INSANE! Membrane UpperLeaflet>loPI:POPI:DPPI:PYPI:ERGO=180.0:5.0:3.0:2.0:10.0 LowerLeaflet>PSPI:POPI:POPS:YOPS:POPE:YOPE:POPC:YOPC:ERGO=6.0:14.0:21.0:9.0:9.0:21.0:12.0:48.0:60.0
48841
    1loPI    C1    1  10.191   5.659  11.687  0.2753  0.0993  0.0504
    1loPI    C2    2  10.009   5.558  12.029  0.2092 -0.0739 -0.0349
    1loPI    C3    3  10.185   5.915  11.994  0.1622 -0.0309  0.1583
    1loPI   PO4    4  10.024   5.595  11.445  0.0021  0.0977  0.4664
    1loPI   GL1    5  10.103   5.495  11.114 -0.2214  0.0360 -0.2635
    1loPI   GL2    6   9.862   5.558  10.927  0.1321  0.0147  0.0856
    1loPI   C1A    7  10.213   5.400  10.632  0.0919  0.0999 -0.2368
    1loPI   C2A    8  10.050   5.438  10.188  0.1590  0.2243 -0.2850
    1loPI   C3A    9  10.039   5.549   9.831 -0.1493 -0.1464 -0.1234
    1loPI   C4A   10   9.992   5.622   9.369  0.0955 -0.2298 -0.0354
    1loPI   C5A   11   9.901   5.517   8.998  0.0035 -0.0046 -0.1325
    1loPI   C6A   12   9.675   5.679   8.758 -0.0432  0.1368 -0.2429
    1loPI   C1B   13   9.728   5.631  10.485  0.3355 -0.1681  0.3626
    1loPI   C2B   14   9.630   5.826  10.083  0.0146 -0.1876  0.1122
    1loPI   C3B   15   9.549   5.872   9.643 -0.0120  0.1115  0.1640
    1loPI   C4B   16   9.537   5.859   9.195  0.2768 -0.4178 -0.0591
    2loPI    C1   17  16.828   4.314  11.919  0.0753  0.0079 -0.0311
    2loPI    C2   18  16.980   4.665  12.035 -0.0011 -0.1014  0.4188
    2loPI    C3   19  17.111   4.326  12.201 -0.0928 -0.2698  0.1546
    2loPI   PO4   20  16.795   4.359  11.647 -0.1653  0.2006 -0.2582
    2loPI   GL1   21  16.717   4.489  11.207  0.0260  0.0706  0.2464
    2loPI   GL2   22  16.907   4.631  10.852  0.3612  0.0767  0.0014
    2loPI   C1A   23  16.366   4.419  10.808 -0.4138 -0.4147 -0.1530
    2loPI   C2A   24  16.376   4.522  10.351  0.2851 -0.0866  0.2515
    2loPI   C3A   25  16.457   4.567   9.913  0.0443 -0.2218 -0.0964
    2loPI   C4A   26  16.361   4.499   9.472  0.2909 -0.3132 -0.2143
    2loPI   C5A   27  16.335   4.508   9.023  0.0895 -0.2192 -0.0992
    2loPI   C6A   28  16.722   4.555   8.692 -0.2292  0.0252  0.1636
    2loPI   C1B   29  16.910   4.687  10.408 -0.0693  0.1536  0.1060
    2loPI   C2B   30  16.920   4.722  10.017 -0.1792  0.1094  0.4244
    2loPI   C3B   31  16.854   4.658   9.694  0.0133 -0.1179 -0.4391
    2loPI   C4B   32  16.861   4.654   9.281  0.0023  0.3656  0.2580
    3loPI    C1   33  15.680  15.490  10.643  0.0162  0.0544  0.4694
    3loPI    C2   34  16.063  15.483  10.758  0.1860 -0.0381 -0.0737
    3loPI    C3   35  15.897  15.826  10.636  0.0409  0.0358  0.3164
    3loPI   PO4   36  15.633  15.259  10.562  0.1728 -0.0163  0.0960
    3loPI   GL1   37  15.849  15.060  10.335  0.1942  0.3684  0.1735
    3loPI   GL2   38  15.555  15.019  10.121 -0.1045 -0.4902 -0.0004
    3loPI   C1A   39  16.110  15.066   9.872 -0.1292  0.3358 -0.0895
    3loPI   C2A   40  16.256  14.962   9.448 -0.0672  0.3104  0.1525
    3loPI   C3A   41  16.266  15.045   9.014 -0.3259  0.1543 -0.2766
    3loPI   C4A   42  16.355  14.994   8.592 -0.2853  0.0950  0.0975
    3loPI   C5A   43  16.353  15.113   8.078 -0.0708 -0.1160 -0.2459
    3loPI   C6A   44  16.450  15.087   7.665 -0.2801  0.0921  0.0104
    3loPI   C1B   45  15.532  14.910   9.720  0.1200  0.1123 -0.0700
    3loPI   C2B   46  15.729  14.832   9.296  0.0493  0.0800  0.2189
    3loPI   C3B   47  15.821  14.880   8.951  0.0031 -0.1242  0.0662
    3loPI   C4B   48  15.955  14.607   8.610  0.1252  0.0208 -0.1277
    4loPI    C1   49   2.604   5.635  11.389  0.0790 -0.0881 -0.1459
    4loPI    C2   50   2.495   5.345  11.642 -0.1909  0.2307  0.1129
    4loPI    C3   51   2.387   5.326  11.258 -0.1696 -0.0302  0.1183
    4loPI   PO4   52   2.879   5.618  11.439 -0.2178  0.1290 -0.0583
    4loPI   GL1   53   3.149   5.522  11.060  0.0055 -0.0933 -0.2149
    4loPI   GL2   54   2.824   5.342  11.021 -0.0515  0.3906 -0.0215
    4loPI   C1A   55   3.139   5.597  10.660  0.0902  0.0241 -0.0396
    4loPI   C2A   56   3.082   5.566  10.224  0.1144 -0.1732 -0.1993
    4loPI   C3A   57   3.012   5.626   9.860 -0.2645  0.1575 -0.0255
    4loPI   C4A   58   3.067   5.797   9.383 -0.2380 -0.0280  0.0951
    4loPI   C5A   59   2.896   6.052   9.088 -0.2958 -0.1452 -0.2184
    4loPI   C6A   60   2.735   6.404   8.925 -0.0887  0.2111  0.0010
    4loPI   C1B   61   2.636   5.434  10.607  0.0157 -0.3439 -0.1021
    4loPI   C2B   62   2.519   5.405  10.196 -0.1334 -0.0313  0.0975
    4loPI   C3B   63   2.564   5.491   9.724 -0.2360  0.1561 -0.2253
    4loPI   C4B   64   2.589   5.683   9.368 -0.1700  0.1838  0.2277
    5loPI    C1   65   7.050  15.579  10.636  0.0102 -0.4773 -0.0150
    5loPI    C2   66   7.436  15.654  10.711 -0.0558 -0.0751 -0.0600
    5loPI    C3   67   7.191  15.550  11.009  0.0074  0.0393  0.0326
    5loPI   PO4   68   7.148  15.512  10.313  0.1092  0.0360 -0.1303
    5loPI   GL1   69   7.078  15.482   9.912 -0.0317  0.1011 -0.1491
    5loPI   GL2   70   7.432  15.630   9.885  0.2746 -0.2097  0.0175
    5loPI   C1A   71   6.836  15.480   9.532  0.0823  0.3095 -0.0101
    5loPI   C2A   72   6.802  15.476   9.110  0.2194 -0.1906 -0.0271
    5loPI   C3A   73   6.724  15.601   8.719 -0.2904 -0.0087 -0.1557
    5loPI   C4A   74   6.636  15.488   8.312  0.1013 -0.0653  0.1549
    5loPI   C5A   75   6.470  15.214   8.073  0.2911 -0.2430  0.2289
    5loPI   C6A   76   6.395  14.801   8.083  0.0369  0.2010  0.2415
    5loPI   C1B   77   7.286  15.712   9.454 -0.0268 -0.1143  0.2058
    5loPI   C2B   78   7.367  15.737   9.050  0.1462  0.0548 -0.0340
    5loPI   C3B   79   7.222  15.611   8.733  0.1153 -0.1956 -0.1051
    5loPI   C4B   80   7.199  15.825   8.378 -0.2197 -0.3117 -0.0286
    6loPI    C1   81   3.272   8.146  11.605 -0.0093  0.1924 -0.1398
    6loPI    C2   82   3.372   7.784  11.743 -0.0497  0.1847 -0.1303
    6loPI    C3   83   3.032   7.957  11.864  0.0063  0.2583 -0.0768
    6loPI   PO4   84   3.418   8.103  11.390  0.2277 -0.0986  0.2093
    6loPI   GL1   85   3.387   7.940  11.032  0.2010 -0.0593 -0.0726
    6loPI   GL2   86   3.102   8.128  10.842  0.0999 -0.1919 -0.1277
    6loPI   C1A   87   3.450   7.815  10.587 -0.3306 -0.1052  0.0793
    6loPI   C2A   88   3.489   7.743  10.123  0.0608 -0.4064 -0.2098
    6loPI   C3A   89   3.530   7.816   9.734  0.4560  0.0131 -0.0239
    6loPI   C4A   90   3.446   7.931   9.319  0.1256 -0.1734 -0.1564
    6loPI   C5A   91   3.507   8.142   8.935 -0.1180  0.0559 -0.0539
    6loPI   C6A   92   3.209   8.289   8.636  0.3872  0.1612 -0.1387
    6loPI   C1B   93   3.074   8.154  10.433  0.0825 -0.0088 -0.2017
    6loPI   C2B   94   3.056   8.082  10.009  0.4517  0.0921 -0.0477
    6loPI   C3B   95   3.040   8.236   9.536  0.2032  0.0999 -0.0264
    6loPI   C4B   96   3.012   8.177   9.104 -0.0286  0.0919 -0.0080
    7loPI    C1   97  14.337  15.310  11.071  0.0781 -0.0212 -0.0645
    7loPI    C2   98  14.276  15.679  11.212 -0.0079 -0.1623  0.2784
    7loPI    C3   99  14.023  15.385  11.306  0.1026 -0.3272  0.0704
    7loPI   PO4  100  14.295  15.388  10.797  0.3926  0.1047 -0.0913
    7loPI   GL1  101  14.146  15.533  10.593  0.0916  0.0498  0.2720
    7loPI   GL2  102  14.211  15.695  10.302  0.0311 -0.0809  0.0726
    7loPI   C1A  103  14.016  15.190  10.283 -0.2014  0.0315  0.0080
    7loPI   C2A  104  13.938  15.160   9.830  0.0821  0.1712 -0.2062
    7loPI   C3A  105  13.893  15.010   9.422 -0.0485  0.0468  0.1214
    7loPI   C4A  106  13.928  15.100   9.003  0.0601  0.2198 -0.1337
    7loPI   C5A  107  14.106  15.120   8.463  0.1543  0.1230 -0.0253
    7loPI   C6A  108  14.223  15.461   8.198 -0.4076 -0.3011 -0.1723
    7loPI   C1B  109  14.343  15.368   9.953 -0.2354 -0.1723 -0.2278
    7loPI   C2B  110  14.317  15.370   9.501 -0.0526  0.0976 -0.1118
    7loPI   C3B  111  14.437  15.417   9.052 -0.0391 -0.0616  0.1056
    7loPI   C4B  112  14.553  15.328   8.633 -0.1332  0.0612  0.1154
    8loPI    C1  113   3.647  16.543  11.064 -0.0963 -0.4451 -0.1070
    8loPI    C2  114   3.843  16.515  11.411  0.0569 -0.0820 -0.1590
    8loPI    C3  115   3.443  16.522  11.407  0.0531 -0.1605  0.0028
    8loPI   PO4  116   3.805  16.375  10.928 -0.3882 -0.1952  0.2339
    8loPI   GL1  117   4.020  16.317  10.583  0.1301 -0.0264  0.2449
    8loPI   GL2  118   4.211  15.971  10.587 -0.1324 -0.3032 -0.2349
    8loPI   C1A  119   4.218  16.392  10.118 -0.0846  0.2674 -0.4012
    8loPI   C2A  120   4.139  16.321   9.702 -0.0839 -0.1374  0.1456
    8loPI   C3A  121   4.227  16.414   9.316  0.0526  0.2227 -0.2947
    8loPI   C4A  122   4.048  16.352   8.899 -0.4412 -0.2098  0.0433
    8loPI   C5A  123   3.856  16.612   8.671  0.0329 -0.0255 -0.0787
    8loPI   C6A  124   3.815  17.046   8.635  0.0500 -0.0913  0.1988
    8loPI   C1B  125   4.139  15.848  10.224 -0.0202  0.0789 -0.1154
    8loPI   C2B  126   4.109  15.767   9.913 -0.0694 -0.0317 -0.0740
    8loPI   C3B  127   4.095  15.836   9.532  0.2220  0.0851  0.3456
    8loPI   C4B  128   4.193  15.869   9.090  0.3259 -0.1267 -0.1699
    9loPI    C1  129  13.530   3.371  11.189 -0.0578  0.0344  0.0859
    9loPI    C2  130  13.175   3.329  11.369 -0.2263 -0.1000 -0.2670
    9loPI    C3  131  13.458   3.050  11.417 -0.0240  0.1889  0.3171
    9loPI   PO4  132  13.517   3.516  10.940  0.4302 -0.0319 -0.0147
    9loPI   GL1  133  13.316   3.709  10.602 -0.2795  0.1412  0.1044
    9loPI   GL2  134  13.058   3.599  10.420  0.0256  0.0211 -0.0299
    9loPI   C1A  135  13.556   3.851  10.249 -0.0589 -0.0893 -0.0369
    9loPI   C2A  136  13.449   3.835   9.827  0.0654 -0.0217 -0.0176
    9loPI   C3A  137  13.417   4.038   9.372 -0.1066  0.0174 -0.4144
    9loPI   C4A  138  13.380   4.274   9.041 -0.1359  0.3350  0.0048
    9loPI   C5A  139  13.429   4.613   8.810  0.2542  0.2755 -0.0366
    9loPI   C6A  140  13.564   5.027   9.010  0.1259 -0.1358  0.0467
    9loPI   C1B  141  12.998   3.631   9.975  0.2759 -0.0960  0.0680
    9loPI   C2B  142  12.962   3.752   9.506 -0.0501  0.1278 -0.0793
    9loPI   C3B  143  12.977   3.928   9.065  0.1955  0.1788  0.0432
    9loPI   C4B  144  12.790   3.858   8.645  0.2865 -0.3697  0.1132
   10loPI    C1  145   2.532   9.268  11.696 -0.0404  0.2121 -0.2228
   10loPI    C2  146   2.885   9.414  11.814 -0.0143  0.1122 -0.1763
   10loPI    C3  147   2.765   9.054  11.941 -0.1677  0.1792 -0.1294
   10loPI   PO4  148   2.573   9.478  11.449 -0.2050 -0.0341 -0.1522
   10loPI   GL1  149   2.438   9.480  11.136  0.0170  0.2571  0.1059
   10loPI   GL2  150   2.479   9.724  10.978 -0.0997  0.0255  0.0831
   10loPI   C1A  151   2.339   9.291  10.800 -0.0943  0.0332  0.0311
   10loPI   C2A  152   2.316   9.253  10.367 -0.2656 -0.2674 -0.0143
   10loPI   C3A  153   2.290   9.315   9.955 -0.1285  0.0537  0.2876
   10loPI   C4A  154   2.262   9.287   9.528  0.0347 -0.1519  0.1163
   10loPI   C5A  155   2.282   9.269   9.081  0.0780 -0.0733  0.4686
   10loPI   C6A  156   2.395   8.954   8.840  0.1307 -0.1933  0.3441
   10loPI   C1B  157   2.385   9.745  10.487 -0.0110 -0.1141  0.4390
   10loPI   C2B  158   2.318   9.798  10.125 -0.1850  0.1747  0.1550
   10loPI   C3B  159   2.440   9.828   9.646 -0.0970  0.0761 -0.2883
   10loPI   C4B  160   2.409   9.709   9.208  0.1219 -0.0255 -0.0429
   11loPI    C1  161  11.914  14.079  11.045  0.0101 -0.0031  0.0521
   11loPI    C2  162  11.686  14.078  11.374 -0.0966 -0.0193 -0.0210
   11loPI    C3  163  12.085  14.085  11.406 -0.1082  0.1208  0.1072
   11loPI   PO4  164  11.730  13.842  10.913 -0.1929 -0.0819  0.0956
   11loPI   GL1  165  11.648  13.779  10.511  0.4365 -0.0105 -0.2596
   11loPI   GL2  166  11.778  13.945  10.295 -0.0034  0.2968 -0.1104
   11loPI   C1A  167  11.334  13.734  10.156 -0.2814  0.2139  0.2058
   11loPI   C2A  168  11.370  13.547   9.733 -0.0666 -0.2542  0.0465
   11loPI   C3A  169  11.444  13.516   9.332 -0.2421 -0.4348 -0.0077
   11loPI   C4A  170  11.452  13.413   8.905  0.3997  0.0461 -0.0418
   11loPI   C5A  171  11.458  13.518   8.475 -0.1416  0.1427 -0.0545
   11loPI   C6A  172  11.345  13.932   8.308  0.1039 -0.0976 -0.0508
   11loPI   C1B  173  11.868  13.798   9.892 -0.1206 -0.0448  0.0446
   11loPI   C2B  174  11.862  13.793   9.444  0.0345 -0.1375  0.0244
   11loPI   C3B  175  11.948  13.618   9.023 -0.1577  0.2599 -0.0319
   11loPI   C4B  176  12.055  13.477   8.645 -0.3321 -0.2649 -0.0410
   12loPI    C1  177   8.536   5.732  11.299 -0.1853 -0.0619 -0.0380
   12loPI    C2  178   8.203   5.629  11.496  0.0089 -0.2260  0.2102
   12loPI    C3  179   8.509   5.373  11.473  0.2108  0.0133  0.1902
   12loPI   PO4  180   8.482   5.764  11.071  0.0534  0.2538 -0.0056
   12loPI   GL1  181   8.644   5.970  10.672  0.0845 -0.2113 -0.1691
   12loPI   GL2  182   8.813   5.865  10.475 -0.2701 -0.3164  0.0188
   12loPI   C1A  183   8.385   6.212  10.361 -0.1331  0.0443  0.1499
   12loPI   C2A  184   8.188   6.250  10.025  0.2291 -0.3089  0.0706
   12loPI   C3A  185   8.191   6.268   9.647 -0.0675 -0.0276 -0.0012
   12loPI   C4A  186   8.091   6.328   9.304  0.0710  0.2540 -0.0955
   12loPI   C5A  187   8.234   6.184   8.959  0.1015  0.0884  0.2384
   12loPI   C6A  188   8.597   6.171   8.656  0.2204 -0.0197 -0.0480
   12loPI   C1B  189   8.735   5.874  10.050 -0.4080 -0.2277  0.0919
   12loPI   C2B  190   8.655   5.887   9.646 -0.1989  0.0033  0.1848
   12loPI   C3B  191   8.610   5.896   9.196 -0.4631  0.0725  0.0739
   12loPI   C4B  192   8.707   5.609   8.798 -0.0280 -0.2574 -0.0215
   13loPI    C1  193   4.154   2.234  11.453  0.0672 -0.0312  0.0213
   13loPI    C2  194   4.186   2.560  11.683  0.0516  0.0787 -0.1310
   13loPI    C3  195   4.296   2.203  11.826  0.0001  0.1391  0.0618
   13loPI   PO4  196   4.253   2.295  11.194  0.0431  0.0586  0.1990
   13loPI   GL1  197   3.986   2.321  10.874 -0.2081 -0.1593  0.0257
   13loPI   GL2  198   3.689   2.350  10.842  0.2686  0.0438  0.1155
   13loPI   C1A  199   3.983   2.599  10.456 -0.0660 -0.2994  0.0632
   13loPI   C2A  200   3.958   2.553   9.933 -0.1136  0.0047  0.2538
   13loPI   C3A  201   4.015   2.541   9.470  0.2248  0.3155 -0.0898
   13loPI   C4A  202   4.206   2.652   9.016 -0.1636 -0.0798  0.0094
   13loPI   C5A  203   4.397   2.353   8.689 -0.0432  0.1549 -0.1035
   13loPI   C6A  204   4.743   2.163   8.562  0.3909 -0.4353  0.0830
   13loPI   C1B  205   3.487   2.305  10.469  0.2867 -0.0840  0.2139
   13loPI   C2B  206   3.513   2.363  10.083  0.0214  0.1725 -0.2981
   13loPI   C3B  207   3.489   2.401   9.632 -0.0630 -0.2381 -0.2117
   13loPI   C4B  208   3.552   2.350   9.288 -0.1628 -0.3896  0.0891
   14loPI    C1  209   4.116   5.370  11.621  0.1378  0.0413 -0.0671
   14loPI    C2  210   4.435   5.311  11.386  0.1041 -0.0448 -0.0919
   14loPI    C3  211   4.415   5.136  11.745  0.0772 -0.0534 -0.0976
   14loPI   PO4  212   3.802   5.268  11.503 -0.3349  0.0066  0.0504
   14loPI   GL1  213   3.729   5.283  11.129  0.0622 -0.1730  0.1467
   14loPI   GL2  214   3.999   5.424  11.080 -0.0383  0.2167 -0.3345
   14loPI   C1A  215   3.528   5.251  10.741 -0.4340 -0.1432  0.0904
   14loPI   C2A  216   3.504   5.293  10.280 -0.1504  0.2643  0.0609
   14loPI   C3A  217   3.412   5.331   9.871  0.0114 -0.0066 -0.2275
   14loPI   C4A  218   3.514   5.410   9.423 -0.2020 -0.0691 -0.0608
   14loPI   C5A  219   3.342   5.560   9.097  0.3317 -0.0053  0.2568
   14loPI   C6A  220   3.275   5.810   8.761  0.1129  0.2456  0.1929
   14loPI   C1B  221   4.005   5.434  10.600  0.3078  0.0657  0.3683
   14loPI   C2B  222   4.035   5.470  10.124  0.3221  0.3814 -0.1367
   14loPI   C3B  223   3.862   5.521   9.731  0.0815 -0.1918  0.2221
   14loPI   C4B  224   3.951   5.673   9.361  0.0824  0.0803  0.1453
   15loPI    C1  225   2.476   2.681  11.348  0.0524 -0.0053  0.1030
   15loPI    C2  226   2.618   2.588  11.710 -0.2136 -0.1650  0.1697
   15loPI    C3  227   2.372   2.336  11.522  0.0041 -0.1304 -0.1700
   15loPI   PO4  228   2.363   2.934  11.385  0.0652  0.1494 -0.1360
   15loPI   GL1  229   2.103   3.079  11.095 -0.2139 -0.1316 -0.5413
   15loPI   GL2  230   2.121   2.826  10.861  0.1938  0.1641  0.1969
   15loPI   C1A  231   2.234   3.293  10.662 -0.0651 -0.0293  0.1625
   15loPI   C2A  232   2.305   3.367  10.244  0.0114 -0.1066  0.1701
   15loPI   C3A  233   2.220   3.338   9.830  0.1187 -0.0104  0.0655
   15loPI   C4A  234   2.178   3.423   9.396 -0.0380  0.4578  0.0904
   15loPI   C5A  235   2.203   3.446   8.952 -0.1460 -0.1147  0.2535
   15loPI   C6A  236   1.986   3.436   8.536  0.1619  0.1413 -0.2121
   15loPI   C1B  237   2.146   2.772  10.424 -0.3488  0.1609  0.1571
   15loPI   C2B  238   2.126   2.899   9.993  0.0212  0.2332  0.1817
   15loPI   C3B  239   2.127   2.862   9.527  0.0348  0.0504 -0.0498
   15loPI   C4B  240   2.133   3.007   9.114  0.1260 -0.1537  0.4382
   16loPI    C1  241   9.111  12.797  11.010 -0.2036 -0.0823  0.1478
   16loPI    C2  242   9.436  12.962  11.176 -0.0798 -0.3455  0.1724
   16loPI    C3  243   9.077  13.015  11.344 -0.0256 -0.1982  0.2433
   16loPI   PO4  244   9.167  12.830  10.752  0.4313 -0.0143 -0.3967
   16loPI   GL1  245   9.216  12.419  10.451  0.0072 -0.0192 -0.1476
   16loPI   GL2  246   9.021  12.670  10.317  0.2357  0.0171  0.3888
   16loPI   C1A  247   8.997  12.105  10.155 -0.2019  0.0016  0.0029
   16loPI   C2A  248   8.984  12.053   9.758 -0.1295 -0.0756 -0.1208
   16loPI   C3A  249   8.930  11.941   9.316 -0.0487  0.0549 -0.3420
   16loPI   C4A  250   9.049  11.956   8.877 -0.1176  0.0436  0.2110
   16loPI   C5A  251   8.954  11.920   8.394 -0.0822  0.1900  0.0663
   16loPI   C6A  252   8.666  12.072   8.059 -0.1829 -0.0269  0.1044
   16loPI   C1B  253   9.051  12.545   9.863  0.3148  0.1834 -0.0551
   16loPI   C2B  254   8.999  12.416   9.473 -0.1285 -0.2568  0.1168
   16loPI   C3B  255   9.057  12.517   9.073 -0.0076 -0.0510 -0.0917
   16loPI   C4B  256   9.079  12.409   8.571 -0.1643 -0.0895 -0.1162
   17loPI    C1  257  13.292  10.094  11.567 -0.0154  0.1551 -0.0380
   17loPI    C2  258  13.573   9.850  11.714 -0.0294  0.1297 -0.0529
   17loPI    C3  259  13.420  10.140  11.943 -0.3303 -0.1529  0.1132
   17loPI   PO4  260  13.273  10.002  11.338 -0.2279 -0.0919  0.2190
   17loPI   GL1  261  13.462  10.115  10.973 -0.0351  0.2014 -0.1571
   17loPI   GL2  262  13.073   9.988  10.873 -0.2593  0.0964 -0.0053
   17loPI   C1A  263  13.600  10.208  10.618  0.1946 -0.1639  0.0199
   17loPI   C2A  264  13.606  10.142  10.219  0.0060 -0.1069 -0.0676
   17loPI   C3A  265  13.691  10.104   9.798 -0.2529  0.2270 -0.3444
   17loPI   C4A  266  13.646  10.040   9.320  0.0687 -0.2848 -0.0626
   17loPI   C5A  267  13.579  10.072   8.883 -0.0759  0.0712  0.4151
   17loPI   C6A  268  13.979   9.985   8.551 -0.3380 -0.1324  0.1881
   17loPI   C1B  269  13.193   9.955  10.481 -0.0962 -0.1113 -0.0683
   17loPI   C2B  270  13.175   9.925  10.066  0.0249  0.2101  0.2255
   17loPI   C3B  271  13.277   9.927   9.662 -0.0963  0.0383 -0.0835
   17loPI   C4B  272  13.178   9.930   9.264  0.0235 -0.0993 -0.1969
   18loPI    C1  273  16.744   8.174  11.576  0.1538  0.2119 -0.0476
   18loPI    C2  274  16.748   8.455  11.861  0.1024  0.1176  0.0471
   18loPI    C3  275  16.668   8.075  11.956  0.0651  0.0885 -0.0967
   18loPI   PO4  276  16.580   8.201  11.368 -0.1612 -0.1112  0.1143
   18loPI   GL1  277  16.698   8.104  10.942 -0.0031 -0.0505 -0.0482
   18loPI   GL2  278  16.977   8.073  10.754 -0.2810 -0.1316 -0.3844
   18loPI   C1A  279  16.438   7.894  10.652 -0.1360  0.1702 -0.1014
   18loPI   C2A  280  16.517   7.917  10.142 -0.1598 -0.4018  0.3481
   18loPI   C3A  281  16.518   7.875   9.682 -0.1117 -0.4172 -0.1837
   18loPI   C4A  282  16.544   7.922   9.296 -0.0827 -0.1197 -0.1198
   18loPI   C5A  283  16.560   7.896   8.897 -0.2954 -0.0073  0.0136
   18loPI   C6A  284  16.881   7.662   8.641 -0.1412  0.2781  0.0570
   18loPI   C1B  285  16.944   8.110  10.350 -0.2258  0.1977  0.0375
   18loPI   C2B  286  17.006   8.094   9.985 -0.0317 -0.2037 -0.1022
   18loPI   C3B  287  17.028   8.045   9.572  0.2829  0.0662  0.2825
   18loPI   C4B  288  17.000   7.949   9.134 -0.1719 -0.0425 -0.2055
   19loPI    C1  289  10.133   1.392  10.506 -0.0163  0.0132 -0.1254
   19loPI    C2  290  10.396   1.150  10.684 -0.0501 -0.1146 -0.2479
   19loPI    C3  291  10.004   1.086  10.728 -0.0588 -0.1350 -0.3513
   19loPI   PO4  292  10.159   1.405  10.311  0.0378 -0.0193  0.3351
   19loPI   GL1  293  10.036   1.508   9.912  0.0006  0.1643  0.1492
   19loPI   GL2  294  10.059   1.844   9.898  0.2019 -0.1034  0.1946
   19loPI   C1A  295   9.795   1.383   9.529  0.0991  0.0752  0.0379
   19loPI   C2A  296   9.777   1.492   9.066  0.1159  0.0260  0.3095
   19loPI   C3A  297  10.007   1.602   8.679 -0.0655  0.0086  0.0474
   19loPI   C4A  298  10.160   1.955   8.484 -0.2569 -0.0248 -0.0929
   19loPI   C5A  299  10.358   2.369   8.344  0.3671  0.0378 -0.2367
   19loPI   C6A  300  10.556   2.722   8.225 -0.0003 -0.2626  0.1554
   19loPI   C1B  301  10.050   1.839   9.442 -0.1990 -0.0640 -0.1666
   19loPI   C2B  302  10.056   1.931   9.032 -0.1818  0.0277  0.1448
   19loPI   C3B  303   9.786   2.057   8.798  0.1513 -0.0843  0.0946
   19loPI   C4B  304   9.723   2.024   8.307 -0.0074 -0.0630  0.1969
   20loPI    C1  305   6.927   6.104  11.421 -0.0256  0.2292  0.2004
   20loPI    C2  306   6.763   5.743  11.474 -0.0023  0.1985  0.0661
   20loPI    C3  307   6.966   5.916  11.773  0.1663  0.0089  0.0642
   20loPI   PO4  308   7.048   6.079  11.238  0.0276  0.3741 -0.1664
   20loPI   GL1  309   7.342   6.089  10.882 -0.2369 -0.2568 -0.1533
   20loPI   GL2  310   7.604   5.959  10.822  0.0984  0.2263  0.0857
   20loPI   C1A  311   7.488   6.272  10.432 -0.0765 -0.3436 -0.0167
   20loPI   C2A  312   7.530   6.293   9.966 -0.1668  0.3560  0.0404
   20loPI   C3A  313   7.334   6.381   9.628  0.1619  0.1857 -0.4877
   20loPI   C4A  314   7.288   6.294   9.225 -0.4502 -0.4492 -0.1268
   20loPI   C5A  315   7.118   6.187   8.807  0.0750  0.0762  0.1879
   20loPI   C6A  316   7.009   5.810   8.707 -0.0951 -0.0680  0.0516
   20loPI   C1B  317   7.432   5.798  10.361  0.2045 -0.1318  0.3454
   20loPI   C2B  318   7.340   5.714   9.941  0.0700 -0.2470  0.1107
   20loPI   C3B  319   7.269   5.809   9.595  0.0233  0.1084  0.0286
   20loPI   C4B  320   7.194   5.791   9.202  0.0241  0.0859  0.0714
   21loPI    C1  321   8.466   8.043  11.288 -0.0494 -0.5391 -0.0881
   21loPI    C2  322   8.293   7.912  11.624 -0.0548 -0.1214  0.0781
   21loPI    C3  323   8.691   7.946  11.605 -0.0478 -0.2360  0.0067
   21loPI   PO4  324   8.392   7.989  11.128  0.4509  0.2457 -0.0355
   21loPI   GL1  325   8.511   8.067  10.785  0.1227  0.0819  0.0553
   21loPI   GL2  326   8.259   8.081  10.656  0.4758  0.0066  0.0795
   21loPI   C1A  327   8.513   7.823  10.326  0.0098 -0.4213  0.0611
   21loPI   C2A  328   8.492   7.905   9.894  0.2700 -0.2281 -0.1692
   21loPI   C3A  329   8.355   7.799   9.479 -0.0341 -0.1652 -0.0753
   21loPI   C4A  330   8.327   7.834   9.052 -0.0322  0.0151 -0.0933
   21loPI   C5A  331   8.082   7.709   8.734 -0.1911 -0.1282 -0.0682
   21loPI   C6A  332   8.383   7.407   8.406  0.5698  0.2575  0.1830
   21loPI   C1B  333   8.171   8.240  10.404  0.1249 -0.2979 -0.0494
   21loPI   C2B  334   8.063   8.272   9.948  0.2303 -0.0578  0.1944
   21loPI   C3B  335   7.965   8.116   9.510 -0.0524  0.1062  0.1187
   21loPI   C4B  336   7.893   8.074   9.043  0.0459  0.0771  0.1339
   22loPI    C1  337   9.534   2.813  10.943  0.0598  0.1104  0.2671
   22loPI    C2  338   9.371   3.031  11.236 -0.0856  0.2455  0.0889
   22loPI    C3  339   9.176   2.713  11.092  0.0467  0.0994  0.2287
   22loPI   PO4  340   9.484   2.911  10.681  0.2109  0.0254 -0.2139
   22loPI   GL1  341   9.306   3.131  10.389  0.0425 -0.0397  0.0896
   22loPI   GL2  342   8.982   3.113  10.322 -0.1613  0.0039  0.2826
   22loPI   C1A  343   9.353   3.361  10.063  0.1091  0.0775  0.3053
   22loPI   C2A  344   9.227   3.396   9.648 -0.1173 -0.0348 -0.1236
   22loPI   C3A  345   9.125   3.327   9.274  0.0665 -0.0964  0.3014
   22loPI   C4A  346   8.903   3.136   8.890 -0.1850 -0.0943  0.2999
   22loPI   C5A  347   8.629   3.156   8.449 -0.0707  0.4300  0.1797
   22loPI   C6A  348   8.338   2.949   8.310  0.3545  0.4187  0.3845
   22loPI   C1B  349   8.837   3.452  10.117  0.5845  0.0184 -0.3195
   22loPI   C2B  350   8.745   3.578   9.681  0.0583  0.1099 -0.1518
   22loPI   C3B  351   8.710   3.553   9.203 -0.1061 -0.2589  0.0183
   22loPI   C4B  352   8.559   3.459   8.833 -0.0904 -0.1008  0.1294
   23loPI    C1  353  10.370   3.134  11.061 -0.0782 -0.0688  0.1169
   23loPI    C2  354  10.461   2.770  11.201 -0.0883 -0.1468 -0.0767
   23loPI    C3  355  10.080   2.866  11.128 -0.0892 -0.0839  0.0087
   23loPI   PO4  356  10.396   3.215  10.856 -0.1910  0.3251 -0.4484
   23loPI   GL1  357  10.637   3.059  10.566  0.1224  0.0080 -0.1151
   23loPI   GL2  358  10.329   3.148  10.377  0.1230 -0.2244  0.0152
   23loPI   C1A  359  10.865   3.221  10.309 -0.3095  0.0907 -0.1813
   23loPI   C2A  360  11.003   3.233   9.928 -0.0936 -0.0686  0.1743
   23loPI   C3A  361  10.867   3.097   9.591  0.1128  0.1889 -0.1156
   23loPI   C4A  362  10.961   3.093   9.173 -0.0942 -0.0341  0.2552
   23loPI   C5A  363  10.846   3.107   8.719  0.2424  0.0035 -0.0954
   23loPI   C6A  364  10.542   3.185   8.397 -0.4791 -0.4231  0.0524
   23loPI   C1B  365  10.437   3.103   9.902  0.1003 -0.2435  0.0557
   23loPI   C2B  366  10.373   3.167   9.543  0.3818 -0.0202 -0.2181
   23loPI   C3B  367  10.473   3.272   9.109  0.0570 -0.0943  0.2816
   23loPI   C4B  368  10.414   3.471   8.770  0.1913 -0.2171 -0.0696
   24loPI    C1  369   5.922  10.938  11.183  0.0403 -0.0209 -0.0638
   24loPI    C2  370   5.719  11.281  11.153 -0.0896 -0.0934 -0.0259
   24loPI    C3  371   5.760  11.104  11.509 -0.1289 -0.1809 -0.0647
   24loPI   PO4  372   5.951  10.871  10.910 -0.1228 -0.0502 -0.0586
   24loPI   GL1  373   6.249  10.789  10.638  0.0920  0.1158 -0.1909
   24loPI   GL2  374   6.503  10.634  10.815  0.0604 -0.0726 -0.0788
   24loPI   C1A  375   6.226  10.855  10.166 -0.1461  0.2300 -0.0496
   24loPI   C2A  376   6.232  10.800   9.729 -0.1520 -0.2372 -0.2283
   24loPI   C3A  377   6.110  10.769   9.242 -0.2769 -0.0031 -0.1205
   24loPI   C4A  378   5.978  10.742   8.919  0.0619  0.0643  0.2979
   24loPI   C5A  379   5.837  10.657   8.399 -0.1464  0.0485 -0.1018
   24loPI   C6A  380   5.523  10.496   8.121  0.0782 -0.0654  0.0035
   24loPI   C1B  381   6.528  10.534  10.298  0.1123  0.1101  0.0313
   24loPI   C2B  382   6.564  10.419   9.811 -0.0849  0.2876 -0.1612
   24loPI   C3B  383   6.520  10.524   9.391 -0.0544 -0.3041 -0.2269
   24loPI   C4B  384   6.472  10.561   9.018 -0.2657  0.0576  0.0952
   25loPI    C1  385  14.076  16.676  10.997 -0.0871  0.0165 -0.1634
   25loPI    C2  386  14.190  16.899  11.309 -0.2561 -0.0276 -0.0691
   25loPI    C3  387  14.075  16.520  11.365 -0.3072 -0.0294 -0.1821
   25loPI   PO4  388  14.202  16.682  10.824  0.0549  0.1235 -0.3826
   25loPI   GL1  389  14.486  16.934  10.479  0.1953  0.2119 -0.2975
   25loPI   GL2  390  14.803  16.838  10.467 -0.0040 -0.1808  0.0637
   25loPI   C1A  391  14.507  16.930  10.047  0.4957 -0.3247  0.1548
   25loPI   C2A  392  14.603  17.030   9.641 -0.2722  0.0447  0.0211
   25loPI   C3A  393  14.601  17.069   9.242 -0.2353  0.0894  0.2093
   25loPI   C4A  394  14.635  16.871   8.858  0.0909  0.2468 -0.4430
   25loPI   C5A  395  14.860  16.711   8.443  0.0212 -0.0217  0.1177
   25loPI   C6A  396  14.940  16.474   8.100 -0.1279 -0.0161 -0.0676
   25loPI   C1B  397  14.916  16.692  10.009  0.0039  0.0348 -0.0071
   25loPI   C2B  398  14.966  16.655   9.608  0.0746  0.0012  0.2461
   25loPI   C3B  399  15.026  16.767   9.261  0.2278 -0.0243 -0.1792
   25loPI   C4B  400  15.079  16.584   8.912  0.0231  0.0043  0.0623
   26loPI    C1  401   2.479  11.062  11.618  0.0631  0.1850  0.0572
   26loPI    C2  402   2.084  11.069  11.556  0.0779 -0.1358 -0.0904
   26loPI    C3  403   2.233  11.171  11.914 -0.1135  0.2919 -0.1274
   26loPI   PO4  404   2.604  11.194  11.427  0.0848  0.1447 -0.2581
   26loPI   GL1  405   2.410  11.330  11.059  0.1696  0.0984  0.3657
   26loPI   GL2  406   2.679  11.398  10.959  0.1238  0.1075  0.0308
   26loPI   C1A  407   2.265  11.087  10.705  0.3806 -0.0304 -0.0022
   26loPI   C2A  408   2.215  11.104  10.329  0.1616  0.0562 -0.0900
   26loPI   C3A  409   2.145  11.120   9.946 -0.2242 -0.0132  0.1913
   26loPI   C4A  410   2.156  11.234   9.503 -0.1925  0.1680  0.0741
   26loPI   C5A  411   2.104  11.159   8.998 -0.1953  0.0346  0.1873
   26loPI   C6A  412   2.110  11.316   8.623 -0.0231  0.0348  0.0646
   26loPI   C1B  413   2.712  11.246  10.531  0.2431 -0.2291  0.0507
   26loPI   C2B  414   2.613  11.328  10.070 -0.1703 -0.0168  0.0646
   26loPI   C3B  415   2.634  11.379   9.638  0.2421  0.3906 -0.0503
   26loPI   C4B  416   2.532  11.379   9.166 -0.1732  0.2126  0.3003
   27loPI    C1  417  10.494  16.813  10.392  0.1331  0.0785  0.0677
   27loPI    C2  418  10.252  16.952  10.679 -0.2852 -0.2943 -0.0917
   27loPI    C3  419  10.524  16.672  10.765  0.0794  0.1023  0.0811
   27loPI   PO4  420  10.467  17.023  10.232 -0.1061  0.1678 -0.1722
   27loPI   GL1  421  10.294  17.093   9.810  0.0326 -0.0050  0.2245
   27loPI   GL2  422  10.028  17.278   9.844  0.0351  0.0854  0.0960
   27loPI   C1A  423  10.249  17.314   9.369  0.0106  0.0775 -0.3389
   27loPI   C2A  424  10.122  17.224   9.073  0.0062  0.1556  0.2390
   27loPI   C3A  425   9.826  16.916   9.050  0.4695  0.0958 -0.0578
   27loPI   C4A  426   9.652  16.614   8.822  0.0072 -0.2281  0.0389
   27loPI   C5A  427   9.698  16.188   8.560 -0.0464 -0.0021  0.1762
   27loPI   C6A  428   9.757  15.781   8.426 -0.0519 -0.0403  0.3911
   27loPI   C1B  429   9.789  16.964   9.525 -0.2151 -0.2696 -0.1201
   27loPI   C2B  430   9.701  16.554   9.452 -0.2760  0.2022  0.0262
   27loPI   C3B  431   9.786  16.245   9.186  0.0778  0.1476 -0.3165
   27loPI   C4B  432   9.906  15.887   8.882 -0.0756 -0.0872  0.0827
   28loPI    C1  433   2.928   1.956  11.386  0.1321  0.1908  0.0862
   28loPI    C2  434   3.265   1.942  11.601  0.2393 -0.1240 -0.0955
   28loPI    C3  435   2.953   1.714  11.704  0.0897  0.1429  0.0532
   28loPI   PO4  436   2.837   2.213  11.372 -0.0675 -0.0307  0.1205
   28loPI   GL1  437   2.727   2.249  10.975 -0.0209  0.0897 -0.0313
   28loPI   GL2  438   2.417   2.341  10.928  0.0023  0.1384  0.0038
   28loPI   C1A  439   2.681   2.420  10.556  0.0822  0.0869  0.4064
   28loPI   C2A  440   2.507   2.525  10.192  0.1681 -0.1019  0.0433
   28loPI   C3A  441   2.504   2.579   9.803  0.0368 -0.1148 -0.1113
   28loPI   C4A  442   2.584   2.530   9.373 -0.1259  0.3668  0.1155
   28loPI   C5A  443   2.588   2.625   9.066 -0.0179 -0.0062  0.1389
   28loPI   C6A  444   2.357   2.767   8.530 -0.0623 -0.0846  0.1419
   28loPI   C1B  445   2.154   2.279  10.489  0.2424  0.0829  0.0821
   28loPI   C2B  446   2.057   2.391  10.106  0.1431 -0.0379 -0.0632
   28loPI   C3B  447   2.000   2.360   9.659  0.2272 -0.0388 -0.0112
   28loPI   C4B  448   2.040   2.415   9.269 -0.0794 -0.0364  0.0068
   29loPI    C1  449   6.182   9.362  11.055  0.0945  0.0397 -0.0903
   29loPI    C2  450   6.399   9.229  11.363 -0.0668 -0.1223 -0.0453
   29loPI    C3  451   6.190   9.568  11.398  0.1128 -0.0088 -0.0614
   29loPI   PO4  452   6.368   9.346  10.867 -0.0368 -0.1232  0.1243
   29loPI   GL1  453   6.208   9.044  10.550  0.1126  0.0679 -0.0371
   29loPI   GL2  454   6.331   8.777  10.395  0.3553 -0.0703 -0.1427
   29loPI   C1A  455   5.924   9.218  10.215 -0.0958 -0.0592  0.0052
   29loPI   C2A  456   5.865   9.307   9.800 -0.1258 -0.0917  0.0632
   29loPI   C3A  457   5.903   9.297   9.362 -0.0194  0.2616 -0.2620
   29loPI   C4A  458   5.805   9.246   8.959 -0.4182 -0.3945 -0.0523
   29loPI   C5A  459   5.616   9.171   8.602  0.1199  0.0485  0.2539
   29loPI   C6A  460   5.313   9.193   8.288  0.0612 -0.2069 -0.3734
   29loPI   C1B  461   6.392   8.885  10.104  0.0060  0.0960 -0.1619
   29loPI   C2B  462   6.295   8.915   9.605 -0.2494 -0.0592 -0.1091
   29loPI   C3B  463   6.237   8.928   9.084 -0.0733 -0.0963 -0.0568
   29loPI   C4B  464   6.178   9.083   8.660 -0.1080 -0.0170 -0.1738
   30loPI    C1  465  17.220  13.014  11.202 -0.0968 -0.1842 -0.0391
   30loPI    C2  466  17.038  13.093  11.549  0.2555  0.1063  0.0862
   30loPI    C3  467  17.123  12.715  11.449  0.0448  0.0110  0.2588
   30loPI   PO4  468  17.169  13.155  11.014  0.1785  0.2962 -0.3389
   30loPI   GL1  469  17.281  13.047  10.662  0.0215 -0.0577 -0.3772
   30loPI   GL2  470  16.979  12.803  10.554  0.0889  0.0277 -0.0228
   30loPI   C1A  471  17.357  13.054  10.251 -0.0295  0.1304  0.2423
   30loPI   C2A  472  17.170  12.991   9.926 -0.1142  0.0905  0.0593
   30loPI   C3A  473  17.287  12.963   9.557 -0.1703  0.0472  0.2036
   30loPI   C4A  474  17.329  13.043   9.183 -0.2328 -0.0173  0.2317
   30loPI   C5A  475  17.325  13.071   8.755 -0.0232  0.1927  0.0429
   30loPI   C6A  476  17.432  13.452   8.443  0.0678 -0.0349  0.1401
   30loPI   C1B  477  16.715  12.828  10.137  0.0760  0.0751  0.3354
   30loPI   C2B  478  16.773  12.736   9.645  0.1387  0.2774 -0.0714
   30loPI   C3B  479  16.859  12.759   9.261  0.0299 -0.0896  0.1302
   30loPI   C4B  480  16.852  12.882   8.885  0.0565 -0.1050  0.1647
   31loPI    C1  481  11.831   0.381  10.716 -0.0151 -0.2447  0.0565
   31loPI    C2  482  12.060   0.681  10.583 -0.3642  0.0463  0.0978
   31loPI    C3  483  12.165   0.481  10.913  0.0506 -0.1087 -0.1214
   31loPI   PO4  484  11.775   0.282  10.448 -0.0993  0.0436 -0.2251
   31loPI   GL1  485  12.040   0.445  10.183  0.0708  0.2398  0.2048
   31loPI   GL2  486  12.218   0.370  10.037  0.3120  0.2713  0.3538
   31loPI   C1A  487  11.865   0.608   9.770  0.2382 -0.1294 -0.3023
   31loPI   C2A  488  11.943   0.669   9.437 -0.1863  0.1388  0.0445
   31loPI   C3A  489  12.034   0.761   9.076  0.0516  0.5693  0.1080
   31loPI   C4A  490  12.088   0.706   8.666 -0.0236  0.3314 -0.0669
   31loPI   C5A  491  11.931   0.734   8.260 -0.2592 -0.2240  0.0771
   31loPI   C6A  492  11.774   0.957   7.938  0.0827 -0.3193  0.3018
   31loPI   C1B  493  12.156   0.265   9.583 -0.2736  0.1465 -0.0541
   31loPI   C2B  494  12.212   0.321   9.167  0.0016  0.1245 -0.2207
   31loPI   C3B  495  12.428   0.386   8.820  0.1823 -0.0139  0.0403
   31loPI   C4B  496  12.502   0.445   8.428  0.2021 -0.0150  0.0452
   32loPI    C1  497   6.355  16.736  10.907 -0.1190  0.1306 -0.0589
   32loPI    C2  498   6.074  16.469  11.009 -0.0012 -0.0129 -0.1061
   32loPI    C3  499   6.170  16.765  11.261  0.0363 -0.1557  0.0494
   32loPI   PO4  500   6.305  16.768  10.681  0.1433 -0.1072 -0.4392
   32loPI   GL1  501   6.084  16.786  10.335 -0.2837  0.3357  0.0225
   32loPI   GL2  502   6.092  17.080  10.262 -0.1759 -0.0443 -0.0016
   32loPI   C1A  503   6.053  16.681   9.884  0.2532 -0.1301 -0.2350
   32loPI   C2A  504   6.090  16.679   9.456 -0.1575 -0.0548 -0.1506
   32loPI   C3A  505   6.064  16.714   9.041  0.0167  0.0213  0.3178
   32loPI   C4A  506   5.939  16.847   8.620  0.0813 -0.1661 -0.1647
   32loPI   C5A  507   5.719  16.919   8.272 -0.1034  0.2352  0.2142
   32loPI   C6A  508   5.527  16.752   7.950  0.1061 -0.0118  0.1369
   32loPI   C1B  509   6.152  17.167   9.836 -0.0102  0.0445 -0.1404
   32loPI   C2B  510   6.091  17.166   9.338  0.1475  0.0725  0.0533
   32loPI   C3B  511   6.167  17.209   8.954 -0.0725  0.0514 -0.3449
   32loPI   C4B  512   6.162  17.298   8.463  0.2386  0.1168 -0.0897
   33loPI    C1  513  15.403  13.625  11.026  0.0587  0.0189  0.1116
   33loPI    C2  514  15.240  13.863  11.303  0.0425 -0.0917  0.1978
   33loPI    C3  515  15.017  13.586  11.122  0.0216  0.0632 -0.0175
   33loPI   PO4  516  15.490  13.873  10.837  0.1093 -0.0356  0.1667
   33loPI   GL1  517  15.648  13.635  10.598 -0.1007  0.1685  0.0884
   33loPI   GL2  518  15.511  13.441  10.495 -0.1067 -0.3686 -0.1312
   33loPI   C1A  519  15.910  13.562  10.210 -0.2032 -0.0518  0.2046
   33loPI   C2A  520  15.983  13.502   9.725 -0.0665  0.0211  0.0829
   33loPI   C3A  521  16.030  13.479   9.289 -0.0627 -0.1371 -0.1431
   33loPI   C4A  522  16.023  13.624   8.837  0.1168  0.0345 -0.1552
   33loPI   C5A  523  15.679  13.640   8.496  0.1845 -0.3019 -0.3022
   33loPI   C6A  524  15.237  13.480   8.327 -0.0699 -0.1587  0.0133
   33loPI   C1B  525  15.489  13.300  10.085 -0.0380  0.1161  0.0224
   33loPI   C2B  526  15.528  13.331   9.707  0.2405 -0.2028  0.2357
   33loPI   C3B  527  15.523  13.318   9.341  0.1453  0.1453  0.0210
   33loPI   C4B  528  15.595  13.452   8.971 -0.2247 -0.2544  0.1217
   34loPI    C1  529  10.493   9.610  11.451  0.2003  0.2784  0.1030
   34loPI    C2  530  10.800   9.508  11.685  0.2045 -0.1738 -0.0889
   34loPI    C3  531  10.426   9.489  11.826  0.2074 -0.4383 -0.1111
   34loPI   PO4  532  10.574   9.566  11.228 -0.1126  0.2209  0.3150
   34loPI   GL1  533  10.526   9.740  10.769  0.0869  0.2125 -0.1119
   34loPI   GL2  534  10.406   9.988  10.749  0.0083 -0.0742 -0.1636
   34loPI   C1A  535  10.529   9.660  10.364  0.1016  0.0983 -0.0721
   34loPI   C2A  536  10.472   9.743   9.861 -0.1756  0.0034 -0.0040
   34loPI   C3A  537  10.414   9.767   9.417 -0.1320  0.1363  0.1601
   34loPI   C4A  538  10.357   9.665   9.037 -0.0732  0.0846  0.0222
   34loPI   C5A  539  10.167   9.663   8.713 -0.2980  0.2237  0.2325
   34loPI   C6A  540   9.970   9.330   8.438  0.1196  0.3966 -0.0863
   34loPI   C1B  541  10.104  10.149  10.453  0.5317  0.1571 -0.0782
   34loPI   C2B  542  10.120   9.990  10.061  0.0109  0.1030 -0.0902
   34loPI   C3B  543  10.053  10.086   9.617 -0.0306 -0.0573 -0.0016
   34loPI   C4B  544   9.948   9.993   9.159  0.0043 -0.0275  0.0488
   35loPI    C1  545  16.093   5.839  11.672 -0.1009  0.0921  0.0378
   35loPI    C2  546  16.049   5.512  11.898 -0.0830  0.1670  0.1503
   35loPI    C3  547  16.337   5.776  11.983 -0.0290  0.1589 -0.0049
   35loPI   PO4  548  16.032   5.722  11.407 -0.0191 -0.0880 -0.2708
   35loPI   GL1  549  15.668   5.606  11.046 -0.2582 -0.0592  0.2084
   35loPI   GL2  550  15.939   5.429  11.045 -0.1160  0.3707 -0.1519
   35loPI   C1A  551  15.666   5.614  10.646 -0.1927  0.0805 -0.2216
   35loPI   C2A  552  15.788   5.643  10.201  0.3344 -0.0703 -0.1711
   35loPI   C3A  553  15.740   5.690   9.727 -0.1670  0.0217 -0.1373
   35loPI   C4A  554  15.660   5.675   9.286 -0.0399  0.0741  0.1153
   35loPI   C5A  555  15.581   5.669   8.874 -0.1908 -0.1545  0.2991
   35loPI   C6A  556  15.718   5.490   8.586 -0.5018 -0.1904 -0.1470
   35loPI   C1B  557  16.080   5.313  10.672  0.1387  0.1196 -0.1247
   35loPI   C2B  558  16.170   5.304  10.233 -0.0692  0.1348  0.0413
   35loPI   C3B  559  16.164   5.391   9.903  0.0084 -0.1584  0.4254
   35loPI   C4B  560  16.013   5.349   9.505  0.1472 -0.1442  0.0413
   36loPI    C1  561   3.003   6.461  11.656 -0.1238 -0.3029  0.1001
   36loPI    C2  562   3.347   6.446  11.860 -0.0075  0.1481 -0.0525
   36loPI    C3  563   3.014   6.578  12.038 -0.0187  0.0667 -0.0125
   36loPI   PO4  564   3.065   6.653  11.456  0.2690 -0.1188 -0.0714
   36loPI   GL1  565   2.934   6.710  11.049  0.1252  0.1472 -0.1000
   36loPI   GL2  566   2.747   6.448  10.955 -0.1885 -0.6806 -0.3565
   36loPI   C1A  567   3.283   6.584  10.868  0.2281  0.0861 -0.3254
   36loPI   C2A  568   3.264   6.649  10.402 -0.0523  0.0290 -0.1914
   36loPI   C3A  569   3.168   6.638   9.947  0.3036 -0.1147 -0.1421
   36loPI   C4A  570   3.208   6.713   9.555 -0.0651 -0.2708  0.1262
   36loPI   C5A  571   3.131   6.839   9.152 -0.0383 -0.0108 -0.1022
   36loPI   C6A  572   3.116   7.046   8.805  0.0637  0.0212  0.3917
   36loPI   C1B  573   2.848   6.384  10.610  0.1042  0.1575  0.1748
   36loPI   C2B  574   2.704   6.493  10.166 -0.3562  0.1748 -0.0405
   36loPI   C3B  575   2.728   6.620   9.701  0.1597  0.1282 -0.0526
   36loPI   C4B  576   2.636   6.745   9.250  0.2216 -0.0016  0.1992
   37loPI    C1  577  15.737   0.583  11.226 -0.2737  0.1737  0.1770
   37loPI    C2  578  15.941   0.290  11.407 -0.0398  0.0422 -0.2854
   37loPI    C3  579  16.084   0.663  11.407 -0.1642  0.0926  0.0047
   37loPI   PO4  580  15.744   0.469  10.908  0.0738 -0.2221 -0.1627
   37loPI   GL1  581  15.885   0.704  10.499 -0.1669  0.0089 -0.1104
   37loPI   GL2  582  15.982   0.289  10.504 -0.0017 -0.1340 -0.2185
   37loPI   C1A  583  15.643   0.913  10.243 -0.0572 -0.1143 -0.0161
   37loPI   C2A  584  15.683   0.897   9.856  0.4012  0.0809  0.0547
   37loPI   C3A  585  15.767   0.873   9.405 -0.0282 -0.2060 -0.0850
   37loPI   C4A  586  15.907   0.776   9.044 -0.1588 -0.0112  0.1061
   37loPI   C5A  587  16.080   0.934   8.650  0.0182  0.1848  0.0046
   37loPI   C6A  588  15.955   1.177   8.361  0.0274  0.2382 -0.0476
   37loPI   C1B  589  15.923   0.398  10.116 -0.2440 -0.3653  0.1529
   37loPI   C2B  590  16.037   0.541   9.732 -0.1951 -0.3811  0.0764
   37loPI   C3B  591  16.144   0.462   9.346 -0.1163 -0.2402  0.1562
   37loPI   C4B  592  16.329   0.494   8.865  0.2586 -0.0208 -0.1476
   38loPI    C1  593   0.949  12.379  11.411  0.1006 -0.0554 -0.0968
   38loPI    C2  594   0.881  12.241  11.780  0.0473  0.0182 -0.0788
   38loPI    C3  595   1.084  12.581  11.729  0.1325 -0.0388 -0.1208
   38loPI   PO4  596   0.698  12.384  11.244  0.0985 -0.1491 -0.2227
   38loPI   GL1  597   0.460  12.550  10.827  0.1297 -0.0687  0.1771
   38loPI   GL2  598   0.760  12.617  10.770 -0.1584 -0.2572  0.1881
   38loPI   C1A  599   0.474  12.330  10.400 -0.2260  0.1206  0.1036
   38loPI   C2A  600   0.508  12.321  10.002  0.0509  0.0511  0.0459
   38loPI   C3A  601   0.529  12.338   9.573 -0.2594 -0.0054  0.1313
   38loPI   C4A  602   0.470  12.331   9.106 -0.0747 -0.0531  0.0976
   38loPI   C5A  603   0.556  12.356   8.725 -0.2294 -0.2774  0.2025
   38loPI   C6A  604   0.318  12.532   8.325 -0.0851  0.1626  0.1342
   38loPI   C1B  605   0.930  12.561  10.384 -0.3560  0.0527 -0.1707
   38loPI   C2B  606   1.019  12.583   9.934 -0.1234 -0.1483  0.2350
   38loPI   C3B  607   0.984  12.660   9.526 -0.0897  0.2243  0.1261
   38loPI   C4B  608   1.003  12.556   9.136  0.1079 -0.0146  0.2911
   39loPI    C1  609   1.306   2.177  11.550  0.0024  0.0268  0.0236
   39loPI    C2  610   1.442   2.233  11.922 -0.0053  0.0814  0.0181
   39loPI    C3  611   1.277   1.883  11.820  0.0882  0.0310  0.0379
   39loPI   PO4  612   1.535   2.227  11.329 -0.1358 -0.0074  0.2419
   39loPI   GL1  613   1.547   2.436  10.933  0.3208  0.3138 -0.0274
   39loPI   GL2  614   1.796   2.291  10.837 -0.0859  0.0125 -0.1275
   39loPI   C1A  615   1.679   2.717  10.620  0.2680  0.1029  0.1057
   39loPI   C2A  616   1.656   2.744  10.163  0.1294 -0.0692 -0.0441
   39loPI   C3A  617   1.652   2.752   9.745 -0.2769 -0.0464  0.0183
   39loPI   C4A  618   1.613   2.692   9.323 -0.0174 -0.2073 -0.0347
   39loPI   C5A  619   1.752   2.668   8.903  0.2699  0.1943  0.0255
   39loPI   C6A  620   1.876   2.944   8.568  0.3038 -0.2957 -0.0261
   39loPI   C1B  621   1.591   2.191  10.405 -0.0714  0.0880 -0.1364
   39loPI   C2B  622   1.589   2.260   9.930 -0.4062  0.1601  0.0621
   39loPI   C3B  623   1.587   2.187   9.495 -0.1629  0.1142  0.1051
   39loPI   C4B  624   1.545   2.278   9.099 -0.1712 -0.2197  0.0671
   40loPI    C1  625   1.221  10.902  11.508 -0.2950  0.3928 -0.0984
   40loPI    C2  626   1.589  11.040  11.584 -0.1331  0.0232 -0.1886
   40loPI    C3  627   1.368  10.886  11.880 -0.0971 -0.0293 -0.1890
   40loPI   PO4  628   1.301  10.773  11.152 -0.1148  0.0339 -0.2389
   40loPI   GL1  629   1.232  10.589  10.816 -0.2269 -0.1445  0.2518
   40loPI   GL2  630   1.185  10.220  10.737 -0.3991 -0.3027  0.1536
   40loPI   C1A  631   1.260  10.721  10.417  0.1590  0.1237 -0.0227
   40loPI   C2A  632   1.195  10.735  10.002 -0.1528  0.0018  0.0353
   40loPI   C3A  633   1.063  10.791   9.575 -0.1123 -0.0444  0.2473
   40loPI   C4A  634   1.221  10.711   9.259 -0.1708 -0.0642  0.0140
   40loPI   C5A  635   1.008  10.726   8.907  0.0157  0.2979  0.0868
   40loPI   C6A  636   0.650  10.936   8.703  0.0139 -0.0372  0.1242
   40loPI   C1B  637   1.145  10.185  10.210  0.0204 -0.1423 -0.0455
   40loPI   C2B  638   1.049  10.195   9.771 -0.1718  0.4100  0.1028
   40loPI   C3B  639   1.170  10.221   9.371  0.1666 -0.4089  0.0548
   40loPI   C4B  640   1.030  10.214   9.034  0.0272  0.0867 -0.0430
   41loPI    C1  641  15.522   5.186  11.453  0.0861  0.0401 -0.1819
   41loPI    C2  642  15.621   5.547  11.594  0.1717 -0.0731  0.0546
   41loPI    C3  643  15.592   5.236  11.844 -0.1834 -0.1720 -0.1032
   41loPI   PO4  644  15.554   5.185  11.233 -0.0349 -0.0810  0.1405
   41loPI   GL1  645  15.506   5.114  10.878  0.1085  0.2118 -0.2429
   41loPI   GL2  646  15.174   5.293  10.838  0.1936  0.3792  0.1312
   41loPI   C1A  647  15.605   5.115  10.405 -0.0268 -0.2233 -0.2611
   41loPI   C2A  648  15.567   5.220   9.960  0.5041 -0.0542 -0.3137
   41loPI   C3A  649  15.500   5.209   9.501  0.0762  0.3015 -0.0638
   41loPI   C4A  650  15.553   5.249   9.085 -0.2898 -0.2676  0.1290
   41loPI   C5A  651  15.827   5.036   8.699 -0.0116  0.0083 -0.1774
   41loPI   C6A  652  16.133   4.745   8.587 -0.3169 -0.1295  0.2221
   41loPI   C1B  653  15.220   5.458  10.332  0.1394  0.2855 -0.1640
   41loPI   C2B  654  15.141   5.552   9.922 -0.1779  0.1413  0.0398
   41loPI   C3B  655  15.192   5.580   9.460 -0.0845  0.0630 -0.1925
   41loPI   C4B  656  14.987   5.669   9.093 -0.3384 -0.1175  0.0916
   42loPI    C1  657  11.212  13.848  10.819  0.0315  0.2542 -0.2994
   42loPI    C2  658  10.868  14.019  10.933 -0.0344 -0.1565  0.1517
   42loPI    C3  659  11.216  14.155  11.076 -0.0262  0.0760 -0.0821
   42loPI   PO4  660  11.024  13.605  10.687 -0.0677  0.1453 -0.0424
   42loPI   GL1  661  10.934  13.400  10.326  0.2962 -0.0555  0.1853
   42loPI   GL2  662  11.147  13.166  10.369  0.2893  0.1033  0.1306
   42loPI   C1A  663  10.943  13.415   9.891 -0.0690 -0.0558 -0.0588
   42loPI   C2A  664  10.940  13.353   9.436  0.0894  0.0151 -0.1187
   42loPI   C3A  665  10.988  13.278   8.997  0.0865 -0.2097 -0.0116
   42loPI   C4A  666  10.813  13.198   8.510  0.0312  0.1790 -0.3173
   42loPI   C5A  667  10.510  12.816   8.369  0.0374  0.0631 -0.2159
   42loPI   C6A  668  10.250  12.475   8.277  0.1538 -0.2758 -0.0270
   42loPI   C1B  669  11.270  13.040   9.915 -0.1039 -0.0769  0.0295
   42loPI   C2B  670  11.350  13.007   9.379 -0.0317 -0.0933 -0.2646
   42loPI   C3B  671  11.325  12.932   8.959  0.0745 -0.1024 -0.1317
   42loPI   C4B  672  11.354  12.953   8.492 -0.0956  0.2166  0.0343
   43loPI    C1  673  14.588   4.758  11.466 -0.0119 -0.2122 -0.2929
   43loPI    C2  674  14.410   4.402  11.425 -0.3303 -0.0641 -0.2289
   43loPI    C3  675  14.479   4.551  11.790 -0.1219 -0.0947 -0.2542
   43loPI   PO4  676  14.809   4.689  11.295 -0.3536 -0.3007  0.1118
   43loPI   GL1  677  14.762   4.865  10.899 -0.0590 -0.1467  0.1013
   43loPI   GL2  678  15.123   4.795  10.918 -0.0854  0.1343  0.1563
   43loPI   C1A  679  14.586   4.770  10.499 -0.0475  0.1215 -0.1851
   43loPI   C2A  680  14.604   4.784  10.113 -0.0404  0.2104  0.0468
   43loPI   C3A  681  14.505   4.810   9.673  0.0876 -0.0802 -0.2998
   43loPI   C4A  682  14.511   4.921   9.367  0.2255 -0.0286  0.1911
   43loPI   C5A  683  14.380   5.228   9.149 -0.2272 -0.0436 -0.1000
   43loPI   C6A  684  14.073   5.221   8.904 -0.2838 -0.0315  0.0733
   43loPI   C1B  685  15.105   4.874  10.485  0.0448  0.1635  0.0366
   43loPI   C2B  686  15.083   4.978  10.051  0.0645 -0.2354 -0.0045
   43loPI   C3B  687  14.992   5.012   9.592  0.4640  0.0537  0.3290
   43loPI   C4B  688  14.915   5.193   9.276  0.2681  0.0058 -0.1485
   44loPI    C1  689   5.955   1.168  11.293 -0.3762  0.0317 -0.1487
   44loPI    C2  690   5.921   0.830  11.505 -0.1353 -0.1097 -0.3296
   44loPI    C3  691   6.122   1.142  11.656 -0.0006 -0.1948 -0.3318
   44loPI   PO4  692   5.745   1.183  11.154 -0.0723 -0.0913 -0.1886
   44loPI   GL1  693   5.484   1.377  10.827  0.0911  0.0515  0.0915
   44loPI   GL2  694   5.701   1.651  10.602 -0.2504 -0.1476  0.1786
   44loPI   C1A  695   5.406   1.267  10.406  0.3087 -0.1798  0.1230
   44loPI   C2A  696   5.527   1.301   9.931 -0.2669  0.3556 -0.2995
   44loPI   C3A  697   5.469   1.378   9.520 -0.1319  0.0595 -0.0161
   44loPI   C4A  698   5.560   1.435   9.131 -0.0031  0.0546  0.3198
   44loPI   C5A  699   5.748   1.579   8.738  0.0307 -0.0748  0.2970
   44loPI   C6A  700   6.078   1.469   8.520 -0.3135 -0.2371 -0.1861
   44loPI   C1B  701   5.625   1.753  10.160  0.1574 -0.1872  0.0781
   44loPI   C2B  702   5.601   1.855   9.695 -0.0509 -0.0263  0.1395
   44loPI   C3B  703   5.698   1.906   9.222 -0.0038 -0.0722  0.1318
   44loPI   C4B  704   5.653   2.050   8.782  0.0136  0.0724 -0.1491
   45loPI    C1  705   2.296   3.994  11.686 -0.1048  0.1316  0.2167
   45loPI    C2  706   2.570   4.083  11.964  0.1146  0.2694 -0.0385
   45loPI    C3  707   2.272   4.339  11.886  0.1801  0.3321 -0.0837
   45loPI   PO4  708   2.371   3.950  11.402  0.1748 -0.0373  0.0107
   45loPI   GL1  709   2.244   4.076  11.040 -0.0088 -0.0422  0.0725
   45loPI   GL2  710   1.986   4.284  10.857  0.1346 -0.1953 -0.2829
   45loPI   C1A  711   2.318   3.816  10.715 -0.0252  0.1133  0.1266
   45loPI   C2A  712   2.283   3.867  10.261  0.1784  0.1177  0.0459
   45loPI   C3A  713   2.300   3.819   9.937  0.1367  0.0197 -0.3361
   45loPI   C4A  714   2.419   3.999   9.544 -0.2019  0.1563 -0.3146
   45loPI   C5A  715   2.255   3.967   9.164 -0.0073  0.0171 -0.0780
   45loPI   C6A  716   2.010   3.955   8.840  0.1114  0.3454  0.2267
   45loPI   C1B  717   1.956   4.212  10.511 -0.0309  0.1716 -0.0599
   45loPI   C2B  718   1.906   4.213  10.024 -0.2052  0.1391 -0.0187
   45loPI   C3B  719   1.964   4.227   9.575  0.1297  0.1576  0.0855
   45loPI   C4B  720   1.794   4.268   9.206 -0.2389 -0.0522  0.1804
   46loPI    C1  721   0.358   8.519  11.728  0.0750  0.1978  0.0999
   46loPI    C2  722  -0.030   8.602  11.777  0.0207 -0.0138  0.0403
   46loPI    C3  723   0.223   8.635  12.086 -0.0948 -0.1400  0.1497
   46loPI   PO4  724   0.380   8.582  11.491 -0.2202 -0.1132  0.2186
   46loPI   GL1  725   0.200   8.718  11.072 -0.4311 -0.1336 -0.4826
   46loPI   GL2  726  -0.068   8.896  10.926 -0.2226  0.1082  0.0117
   46loPI   C1A  727   0.215   8.529  10.632 -0.0907  0.4498 -0.0356
   46loPI   C2A  728   0.419   8.420  10.191 -0.0268  0.0397  0.1066
   46loPI   C3A  729   0.400   8.464   9.715  0.0250  0.3164 -0.1830
   46loPI   C4A  730   0.304   8.500   9.246  0.1321  0.1251  0.0533
   46loPI   C5A  731   0.034   8.531   8.914  0.0791  0.0196  0.4113
   46loPI   C6A  732   0.070   8.657   8.489  0.4716 -0.0221 -0.1571
   46loPI   C1B  733  -0.138   8.795  10.457 -0.0878  0.3153  0.0583
   46loPI   C2B  734   0.030   8.733  10.100  0.1357  0.0308  0.0370
   46loPI   C3B  735  -0.053   8.713   9.638 -0.1591  0.1259  0.0647
   46loPI   C4B  736  -0.158   8.762   9.277  0.2175 -0.0587 -0.2462
   47loPI    C1  737   3.278   7.303  11.646  0.0351 -0.0078  0.3021
   47loPI    C2  738   3.043   7.453  11.933  0.0619 -0.2569  0.4567
   47loPI    C3  739   3.082   7.057  11.892 -0.2400 -0.2366 -0.1325
   47loPI   PO4  740   3.155   7.482  11.383  0.2991 -0.4274  0.0414
   47loPI   GL1  741   2.906   7.611  10.979 -0.1025  0.1333 -0.0645
   47loPI   GL2  742   2.927   7.252  10.957  0.2149 -0.0016  0.1623
   47loPI   C1A  743   2.954   7.619  10.563 -0.1807  0.1665  0.0440
   47loPI   C2A  744   2.979   7.494  10.189  0.1399  0.1885  0.2399
   47loPI   C3A  745   2.995   7.630   9.766 -0.1150  0.0883  0.1468
   47loPI   C4A  746   2.976   7.644   9.304  0.2287 -0.0924 -0.2584
   47loPI   C5A  747   2.832   7.479   9.009  0.2586  0.1004  0.0191
   47loPI   C6A  748   2.664   7.063   8.903  0.1273 -0.2361  0.1659
   47loPI   C1B  749   2.896   6.919  10.612  0.1443  0.1442  0.1611
   47loPI   C2B  750   2.827   6.994  10.158 -0.0246  0.0528  0.2829
   47loPI   C3B  751   2.862   7.072   9.774 -0.3240  0.0747  0.1623
   47loPI   C4B  752   2.840   7.198   9.442 -0.1208 -0.1799  0.3918
   48loPI    C1  753  12.563  11.826  11.449  0.1382  0.0956 -0.0104
   48loPI    C2  754  12.322  12.145  11.470 -0.0351 -0.0256 -0.1310
   48loPI    C3  755  12.236  11.816  11.680  0.0643 -0.0448 -0.1200
   48loPI   PO4  756  12.614  11.892  11.148  0.0747  0.1824 -0.1721
   48loPI   GL1  757  12.482  12.011  10.733  0.1195 -0.0941  0.2383
   48loPI   GL2  758  12.480  12.297  10.508 -0.1168  0.3804 -0.3296
   48loPI   C1A  759  12.632  11.746  10.403  0.2302 -0.1016  0.3578
   48loPI   C2A  760  12.633  11.631  10.043 -0.2156 -0.1273 -0.1811
   48loPI   C3A  761  12.529  11.474   9.597 -0.0731  0.0768 -0.2262
   48loPI   C4A  762  12.553  11.527   9.227  0.1168  0.2390 -0.1013
   48loPI   C5A  763  12.566  11.405   8.864  0.0528 -0.2471  0.3255
   48loPI   C6A  764  12.414  11.434   8.553 -0.1553  0.0151 -0.0625
   48loPI   C1B  765  12.609  12.124  10.108  0.1490 -0.2121 -0.0073
   48loPI   C2B  766  12.615  12.131   9.629 -0.2949  0.0949 -0.2131
   48loPI   C3B  767  12.664  12.039   9.178 -0.1890  0.1707  0.1978
   48loPI   C4B  768  12.680  11.923   8.680 -0.1267  0.2167 -0.0929
   49loPI    C1  769   4.899  10.920  11.241 -0.1734 -0.2219 -0.0732
   49loPI    C2  770   5.257  10.968  11.414 -0.1119  0.1802 -0.2993
   49loPI    C3  771   4.956  10.804  11.620  0.0575  0.3208  0.0684
   49loPI   PO4  772   4.950  10.847  10.967 -0.0523 -0.1764 -0.1797
   49loPI   GL1  773   4.981  10.813  10.546  0.0012  0.0957  0.0590
   49loPI   GL2  774   5.336  10.787  10.541 -0.1307 -0.2291 -0.1428
   49loPI   C1A  775   4.790  10.744  10.145 -0.1248 -0.0641 -0.2956
   49loPI   C2A  776   4.700  10.727   9.700  0.0413 -0.0120 -0.0831
   49loPI   C3A  777   4.758  10.701   9.295 -0.2578  0.1355 -0.0531
   49loPI   C4A  778   4.742  10.751   8.893  0.1000 -0.1601 -0.2932
   49loPI   C5A  779   4.737  10.710   8.509 -0.0045  0.0773 -0.0794
   49loPI   C6A  780   4.839  10.480   8.220 -0.3197 -0.0886 -0.0575
   49loPI   C1B  781   5.261  10.800  10.090 -0.1136 -0.2604 -0.1228
   49loPI   C2B  782   5.234  10.965   9.786  0.0315  0.1416 -0.0013
   49loPI   C3B  783   5.248  10.885   9.422 -0.1753 -0.0817  0.0403
   49loPI   C4B  784   5.201  10.809   8.925  0.1493  0.2223 -0.0738
   50loPI    C1  785  16.246  17.538  11.045 -0.0563  0.0101  0.0218
   50loPI    C2  786  16.404  17.179  11.125 -0.0174  0.0437  0.0968
   50loPI    C3  787  16.419  17.469  11.400 -0.1238  0.0767  0.0679
   50loPI   PO4  788  15.938  17.643  10.957 -0.0605  0.1079 -0.0746
   50loPI   GL1  789  15.727  17.521  10.594  0.0819  0.3103 -0.0290
   50loPI   GL2  790  15.450  17.702  10.396  0.1210 -0.2202 -0.0210
   50loPI   C1A  791  15.952  17.542  10.196  0.0083 -0.0624  0.1117
   50loPI   C2A  792  16.000  17.638   9.798 -0.1216 -0.1212  0.1483
   50loPI   C3A  793  16.044  17.588   9.342  0.2601 -0.2204 -0.1516
   50loPI   C4A  794  16.219  17.553   8.954 -0.0174  0.0883 -0.2948
   50loPI   C5A  795  16.305  17.379   8.460 -0.1262  0.1107  0.1747
   50loPI   C6A  796  16.307  17.466   7.999  0.1648  0.0487  0.0405
   50loPI   C1B  797  15.541  17.795   9.944  0.0840  0.1698 -0.0137
   50loPI   C2B  798  15.652  17.892   9.440  0.0072 -0.0994 -0.2068
   50loPI   C3B  799  15.843  17.878   9.005 -0.1079 -0.1921  0.1497
   50loPI   C4B  800  15.818  18.140   8.640 -0.0093  0.0955 -0.1070
   51loPI    C1  801  11.331  12.866  10.838 -0.0169  0.0156 -0.1985
   51loPI    C2  802  10.950  12.815  10.727 -0.0141 -0.2241 -0.1056
   51loPI    C3  803  11.046  13.102  10.989 -0.1301 -0.1649 -0.1272
   51loPI   PO4  804  11.489  12.942  10.644  0.1498 -0.1379 -0.1856
   51loPI   GL1  805  11.564  12.816  10.315 -0.2902  0.1849 -0.3090
   51loPI   GL2  806  11.762  12.797  10.160 -0.1037 -0.2809 -0.0799
   51loPI   C1A  807  11.346  12.494  10.052 -0.0599 -0.1521 -0.0462
   51loPI   C2A  808  11.249  12.518   9.587 -0.1905  0.3053  0.0616
   51loPI   C3A  809  11.334  12.397   9.135 -0.1940  0.0094 -0.2248
   51loPI   C4A  810  11.388  12.489   8.677  0.3501 -0.0179 -0.1629
   51loPI   C5A  811  11.651  12.543   8.435 -0.1355  0.3091  0.0718
   51loPI   C6A  812  11.901  12.438   8.124  0.0627 -0.1264  0.0278
   51loPI   C1B  813  11.759  12.645   9.781  0.2027 -0.0645 -0.1074
   51loPI   C2B  814  11.809  12.651   9.308  0.1453  0.0809  0.0120
   51loPI   C3B  815  11.805  12.551   8.906 -0.1166 -0.2745 -0.1780
   51loPI   C4B  816  12.135  12.386   8.553  0.2028  0.2615  0.1317
   52loPI    C1  817   8.612   5.019  11.141 -0.2452 -0.1714  0.1855
   52loPI    C2  818   8.924   4.908  11.365  0.0448  0.2754  0.0169
   52loPI    C3  819   8.722   4.635  11.154  0.3568 -0.0129  0.0819
   52loPI   PO4  820   8.728   5.268  11.002  0.1441 -0.2065  0.0187
   52loPI   GL1  821   8.660   5.353  10.536 -0.1658 -0.1847  0.0531
   52loPI   GL2  822   8.435   5.554  10.607  0.1259  0.0884 -0.2337
   52loPI   C1A  823   8.681   5.404  10.151 -0.1222  0.2248  0.2947
   52loPI   C2A  824   8.620   5.414   9.629  0.1335  0.0668  0.1465
   52loPI   C3A  825   8.526   5.297   9.176  0.0493 -0.1039 -0.1826
   52loPI   C4A  826   8.735   5.060   8.819  0.1133 -0.0207 -0.2650
   52loPI   C5A  827   9.176   4.921   8.858 -0.0445  0.3673 -0.1847
   52loPI   C6A  828   9.405   4.858   9.273  0.3527  0.1448 -0.0434
   52loPI   C1B  829   8.239   5.718  10.237  0.1428 -0.0938  0.1898
   52loPI   C2B  830   8.228   5.693   9.748 -0.1023  0.0785 -0.1673
   52loPI   C3B  831   8.140   5.769   9.294 -0.2060 -0.1498 -0.1293
   52loPI   C4B  832   8.205   5.638   9.001  0.2448 -0.0907  0.0691
   53loPI    C1  833   9.479  13.843  10.725 -0.1279 -0.0819  0.0339
   53loPI    C2  834   9.105  13.746  10.621 -0.2121 -0.1382  0.3791
   53loPI    C3  835   9.179  14.099  10.794 -0.0231  0.0973 -0.1600
   53loPI   PO4  836   9.605  13.679  10.494 -0.0074 -0.2646  0.3665
   53loPI   GL1  837   9.652  13.294  10.224  0.2249 -0.1480  0.0483
   53loPI   GL2  838   9.901  13.526  10.082 -0.0350 -0.1501  0.0144
   53loPI   C1A  839   9.503  13.310   9.792 -0.0089  0.1148 -0.2675
   53loPI   C2A  840   9.425  13.249   9.426  0.2101  0.0806  0.0130
   53loPI   C3A  841   9.527  13.286   9.022  0.4043 -0.5127 -0.1076
   53loPI   C4A  842   9.622  13.138   8.582 -0.2584 -0.2137 -0.0284
   53loPI   C5A  843   9.868  12.914   8.228  0.3451  0.0234 -0.0572
   53loPI   C6A  844  10.152  12.808   7.963  0.0995 -0.2007 -0.1482
   53loPI   C1B  845   9.933  13.589   9.702 -0.1282 -0.0539  0.0865
   53loPI   C2B  846  10.014  13.473   9.331  0.2359  0.1424  0.2228
   53loPI   C3B  847  10.013  13.360   8.865 -0.1289  0.0102  0.1823
   53loPI   C4B  848  10.149  13.259   8.490  0.1266  0.0641 -0.1711
   54loPI    C1  849   3.207  16.367  10.910  0.0784  0.1867  0.1520
   54loPI    C2  850   2.820  16.267  10.909  0.1039  0.0881  0.0679
   54loPI    C3  851   3.024  16.272  11.253  0.0503  0.0541  0.1005
   54loPI   PO4  852   3.246  16.456  10.724 -0.0479  0.1955  0.0218
   54loPI   GL1  853   3.547  16.349  10.490  0.2405  0.0418  0.0685
   54loPI   GL2  854   3.393  16.559  10.238  0.1913 -0.1396  0.0347
   54loPI   C1A  855   3.736  16.142  10.080  0.2583  0.0178 -0.0968
   54loPI   C2A  856   3.668  16.168   9.608 -0.0956  0.0784  0.2694
   54loPI   C3A  857   3.668  16.312   9.190  0.1574  0.1847  0.0725
   54loPI   C4A  858   3.451  16.623   8.898  0.0411  0.0638 -0.0634
   54loPI   C5A  859   2.991  16.524   8.712  0.1817 -0.0765  0.1665
   54loPI   C6A  860   2.843  16.230   9.063 -0.4212 -0.0114 -0.1779
   54loPI   C1B  861   3.350  16.460   9.825  0.2733 -0.2362  0.0164
   54loPI   C2B  862   3.278  16.531   9.455 -0.0344 -0.0801 -0.1951
   54loPI   C3B  863   3.019  16.853   9.133 -0.0902  0.1477 -0.0746
   54loPI   C4B  864   2.926  17.025   8.685  0.1713 -0.1555 -0.1638
   55loPI    C1  865   9.184  16.130  10.408  0.0705 -0.0243 -0.1270
   55loPI    C2  866   9.411  16.239  10.719 -0.1028  0.0168 -0.0132
   55loPI    C3  867   9.115  15.974  10.770 -0.1443  0.0380 -0.1394
   55loPI   PO4  868   9.372  16.276  10.218  0.0748  0.3116  0.1332
   55loPI   GL1  869   9.632  16.129   9.758  0.0658  0.0187  0.2802
   55loPI   GL2  870   9.691  15.902   9.636  0.1801  0.1437  0.2813
   55loPI   C1A  871   9.343  16.170   9.422  0.0524  0.0267 -0.2176
   55loPI   C2A  872   9.282  16.196   8.963 -0.1819 -0.0671 -0.1667
   55loPI   C3A  873   9.199  16.219   8.550  0.0106 -0.5475  0.1378
   55loPI   C4A  874   9.517  16.465   8.234  0.2925  0.1700  0.0665
   55loPI   C5A  875   9.681  16.788   8.006  0.1846 -0.0212 -0.0649
   55loPI   C6A  876   9.637  17.067   7.565  0.0103  0.3775  0.0410
   55loPI   C1B  877   9.611  15.777   9.252  0.2230  0.2024 -0.1663
   55loPI   C2B  878   9.419  15.715   8.865  0.0540  0.0303  0.0917
   55loPI   C3B  879   9.265  15.718   8.447 -0.1468  0.3880 -0.1519
   55loPI   C4B  880   9.122  15.999   8.107 -0.1101 -0.1346  0.2223
   56loPI    C1  881   9.271   9.722  11.390  0.0145 -0.0918 -0.0365
   56loPI    C2  882   9.611   9.664  11.592 -0.0478  0.0354  0.1067
   56loPI    C3  883   9.288   9.805  11.781 -0.1249  0.0962 -0.0692
   56loPI   PO4  884   9.359   9.829  11.139  0.0113 -0.1567 -0.2333
   56loPI   GL1  885   9.208  10.069  10.780  0.2817  0.0543 -0.3450
   56loPI   GL2  886   9.261  10.345  10.637  0.0377 -0.0240 -0.0122
   56loPI   C1A  887   9.134   9.742  10.333  0.1906  0.4210 -0.1111
   56loPI   C2A  888   9.211   9.653   9.872  0.1112 -0.1242 -0.3462
   56loPI   C3A  889   9.105   9.573   9.460 -0.2753  0.0450  0.1371
   56loPI   C4A  890   8.990   9.551   9.069  0.0100 -0.6851  0.2198
   56loPI   C5A  891   9.174   9.447   8.690 -0.1738  0.0489 -0.0491
   56loPI   C6A  892   9.006   9.178   8.238 -0.2141 -0.1603 -0.1108
   56loPI   C1B  893   9.184  10.225  10.224  0.0867  0.0780  0.1843
   56loPI   C2B  894   9.271  10.161   9.743 -0.0152 -0.1041  0.1451
   56loPI   C3B  895   9.058  10.090   9.310 -0.1213 -0.3393  0.0418
   56loPI   C4B  896   9.095   9.996   8.860 -0.0684  0.0890  0.2735
   57loPI    C1  897   2.023   9.014  11.673  0.1341 -0.0333  0.0509
   57loPI    C2  898   2.056   9.334  11.435  0.0409 -0.0218  0.0528
   57loPI    C3  899   2.022   9.382  11.831 -0.1612 -0.0258  0.0367
   57loPI   PO4  900   1.895   8.849  11.505  0.0207 -0.2964  0.0704
   57loPI   GL1  901   1.928   8.774  11.099  0.1926  0.1591  0.1190
   57loPI   GL2  902   1.974   9.029  10.957  0.0072 -0.2864  0.1541
   57loPI   C1A  903   2.238   8.640  10.758  0.1454 -0.3066 -0.0215
   57loPI   C2A  904   2.184   8.776  10.339  0.0290 -0.0502  0.1438
   57loPI   C3A  905   2.170   8.788   9.920 -0.2636 -0.0568  0.0197
   57loPI   C4A  906   2.154   8.801   9.549 -0.2053 -0.0754  0.3657
   57loPI   C5A  907   2.055   8.744   9.082 -0.3563  0.0348  0.4007
   57loPI   C6A  908   2.051   8.719   8.629 -0.0442 -0.0829  0.0861
   57loPI   C1B  909   1.856   9.062  10.583  0.1797  0.1666  0.1543
   57loPI   C2B  910   1.835   9.114  10.107  0.0221 -0.2657 -0.1060
   57loPI   C3B  911   1.766   9.176   9.650  0.0414 -0.1297  0.1475
   57loPI   C4B  912   1.814   9.162   9.268 -0.0267  0.2102  0.0462
   58loPI    C1  913   7.017   3.227  11.098  0.1202 -0.1070 -0.0469
   58loPI    C2  914   6.759   3.070  11.361  0.0777 -0.0547 -0.0572
   58loPI    C3  915   7.078   3.274  11.490 -0.0961  0.2158 -0.0486
   58loPI   PO4  916   6.860   3.290  10.877 -0.1433 -0.1842 -0.0444
   58loPI   GL1  917   6.539   3.692  10.728 -0.1069  0.1597  0.1185
   58loPI   GL2  918   6.753   3.926  10.592  0.1796  0.1844  0.0393
   58loPI   C1A  919   6.299   3.898  10.377 -0.0103 -0.0070 -0.0253
   58loPI   C2A  920   6.436   4.042   9.971  0.1597  0.0768  0.0551
   58loPI   C3A  921   6.561   4.064   9.526  0.0510  0.2216 -0.1026
   58loPI   C4A  922   6.325   4.094   9.199 -0.1086 -0.0856  0.2391
   58loPI   C5A  923   6.423   4.098   8.755 -0.0018  0.0449  0.0988
   58loPI   C6A  924   6.220   4.317   8.414  0.2519  0.1530  0.2324
   58loPI   C1B  925   6.695   3.646  10.156 -0.1211  0.1651 -0.2003
   58loPI   C2B  926   6.791   3.633   9.660  0.1661 -0.2802 -0.1112
   58loPI   C3B  927   6.807   3.765   9.208 -0.2663 -0.5019  0.2151
   58loPI   C4B  928   6.786   3.739   8.725 -0.0991 -0.0787  0.0932
   59loPI    C1  929   2.149   6.444  11.770  0.0188  0.2094 -0.0346
   59loPI    C2  930   2.257   6.636  12.104 -0.0126 -0.1553  0.1900
   59loPI    C3  931   2.516   6.393  11.920 -0.0412 -0.0620  0.0245
   59loPI   PO4  932   2.032   6.590  11.588 -0.0866  0.2952  0.0577
   59loPI   GL1  933   2.093   6.702  11.184 -0.0015 -0.1119 -0.2076
   59loPI   GL2  934   2.184   6.450  11.063 -0.0909  0.1417  0.0275
   59loPI   C1A  935   1.925   6.603  10.733  0.0405  0.3548 -0.1254
   59loPI   C2A  936   1.933   6.588  10.361  0.0177 -0.0489 -0.0868
   59loPI   C3A  937   1.747   6.626  10.021  0.0225  0.0414 -0.0230
   59loPI   C4A  938   1.829   6.660   9.621 -0.1692 -0.0485 -0.0249
   59loPI   C5A  939   1.809   6.614   9.140 -0.2405  0.1314 -0.1488
   59loPI   C6A  940   1.812   6.882   8.780 -0.0183  0.0626 -0.5438
   59loPI   C1B  941   2.328   6.319  10.656  0.0938 -0.1492  0.2491
   59loPI   C2B  942   2.256   6.209  10.245  0.0407  0.1969  0.0355
   59loPI   C3B  943   2.186   6.271   9.815  0.0958  0.0055 -0.3298
   59loPI   C4B  944   2.236   6.488   9.370 -0.1436 -0.2333  0.2151
   60loPI    C1  945  17.559  11.770  11.219 -0.1741  0.0165  0.1651
   60loPI    C2  946  17.786  12.021  11.434 -0.2359  0.0394  0.2041
   60loPI    C3  947  17.394  11.993  11.507 -0.2940  0.1911 -0.0353
   60loPI   PO4  948  17.625  11.763  10.986 -0.1862  0.2188  0.0191
   60loPI   GL1  949  17.753  11.695  10.597  0.3157 -0.0608 -0.0429
   60loPI   GL2  950  17.724  11.448  10.587  0.0358  0.0162 -0.0813
   60loPI   C1A  951  17.543  11.722  10.155  0.1289 -0.0068 -0.0175
   60loPI   C2A  952  17.558  11.571   9.826  0.1647 -0.3257 -0.1471
   60loPI   C3A  953  17.574  11.613   9.537  0.2429 -0.0103 -0.0153
   60loPI   C4A  954  17.508  11.708   9.112 -0.0914 -0.1776  0.5595
   60loPI   C5A  955  17.107  11.494   8.871  0.1110  0.0962  0.1760
   60loPI   C6A  956  16.748  11.291   8.753 -0.0580 -0.1585  0.0623
   60loPI   C1B  957  18.039  11.382  10.256 -0.1634  0.4038 -0.0053
   60loPI   C2B  958  17.992  11.403   9.807 -0.1060 -0.1298  0.1832
   60loPI   C3B  959  17.969  11.310   9.358 -0.1523 -0.0281  0.1727
   60loPI   C4B  960  17.859  11.361   8.951 -0.2227  0.4979 -0.0376
   61loPI    C1  961  11.017   6.043  11.393 -0.1522  0.0220  0.0398
   61loPI    C2  962  11.019   5.701  11.599 -0.1845  0.0075  0.0162
   61loPI    C3  963  11.109   6.045  11.782 -0.0750 -0.0237  0.0218
   61loPI   PO4  964  10.933   5.951  11.167 -0.0703 -0.1495  0.0412
   61loPI   GL1  965  10.630   5.959  10.915 -0.1228 -0.3804  0.0184
   61loPI   GL2  966  10.324   5.877  10.740  0.2686 -0.0342 -0.0777
   61loPI   C1A  967  10.923   5.862  10.565 -0.1486 -0.0058 -0.1346
   61loPI   C2A  968  10.917   5.906  10.129 -0.2077 -0.0752  0.2741
   61loPI   C3A  969  10.900   5.869   9.727  0.1163 -0.2527  0.2946
   61loPI   C4A  970  10.871   6.049   9.243 -0.0546 -0.3322  0.2303
   61loPI   C5A  971  11.054   6.055   8.798 -0.0138  0.4429 -0.0197
   61loPI   C6A  972  10.960   6.040   8.345  0.2052 -0.2212 -0.1007
   61loPI   C1B  973  10.104   5.963  10.323 -0.0295  0.0318 -0.1356
   61loPI   C2B  974  10.003   6.035   9.781 -0.0371  0.4662  0.2779
   61loPI   C3B  975  10.023   6.202   9.368  0.0323  0.3433 -0.2450
   61loPI   C4B  976  10.010   6.054   8.989 -0.2999  0.2912 -0.1641
   62loPI    C1  977   9.255   9.128  11.511  0.0013 -0.0449 -0.1683
   62loPI    C2  978   8.873   9.013  11.506  0.0074 -0.0946  0.2201
   62loPI    C3  979   8.977   9.352  11.690  0.1549 -0.0973  0.1428
   62loPI   PO4  980   9.349   9.024  11.237 -0.1435  0.0505 -0.0759
   62loPI   GL1  981   9.303   9.187  10.794 -0.0578 -0.1403  0.1603
   62loPI   GL2  982   9.290   9.524  10.767 -0.1695  0.1621 -0.1756
   62loPI   C1A  983   9.197   9.166  10.354 -0.0826  0.0841 -0.2050
   62loPI   C2A  984   9.077   9.150  10.018  0.0344  0.2690 -0.0662
   62loPI   C3A  985   8.987   9.095   9.578 -0.0363  0.0167 -0.1205
   62loPI   C4A  986   8.941   9.071   9.150 -0.3088 -0.0000 -0.1586
   62loPI   C5A  987   8.846   8.910   8.761 -0.1768  0.1465 -0.1545
   62loPI   C6A  988   9.155   8.708   8.438 -0.1219 -0.0151 -0.2364
   62loPI   C1B  989   9.586   9.422  10.437  0.0550  0.1780 -0.1241
   62loPI   C2B  990   9.528   9.314   9.985 -0.2623 -0.0257 -0.1376
   62loPI   C3B  991   9.478   9.324   9.608  0.0332 -0.0554  0.0214
   62loPI   C4B  992   9.437   9.255   9.238  0.0509 -0.0581  0.0226
   63loPI    C1  993   4.716   1.781  11.600 -0.0479 -0.1128  0.0542
   63loPI    C2  994   4.777   2.101  11.831 -0.2059 -0.1014  0.0809
   63loPI    C3  995   4.861   1.736  11.970  0.1440 -0.0600 -0.0134
   63loPI   PO4  996   4.560   1.922  11.407  0.2099 -0.1624 -0.1730
   63loPI   GL1  997   4.500   1.980  10.903 -0.0861  0.0311  0.1643
   63loPI   GL2  998   4.574   1.700  10.717  0.2260  0.2204 -0.1678
   63loPI   C1A  999   4.422   2.182  10.566  0.2601 -0.0500 -0.1186
   63loPI   C2A 1000   4.358   2.261  10.147 -0.2156  0.0540  0.3501
   63loPI   C3A 1001   4.341   2.243   9.731  0.3369  0.2383 -0.1102
   63loPI   C4A 1002   4.382   2.260   9.240 -0.1401  0.0760  0.0477
   63loPI   C5A 1003   4.395   1.916   8.918 -0.0598 -0.0237  0.3536
   63loPI   C6A 1004   4.304   1.912   8.455 -0.2072 -0.0748  0.3070
   63loPI   C1B 1005   4.774   1.904  10.342 -0.0648  0.0664  0.2527
   63loPI   C2B 1006   4.763   1.939   9.963 -0.2664 -0.1955  0.0528
   63loPI   C3B 1007   4.731   1.964   9.534  0.2886 -0.1459 -0.2635
   63loPI   C4B 1008   4.835   2.064   9.070  0.0107 -0.1760 -0.0630
   64loPI    C1 1009  15.474   8.463  11.360  0.0464  0.1701  0.0858
   64loPI    C2 1010  15.568   8.850  11.329  0.1702  0.1494  0.1951
   64loPI    C3 1011  15.555   8.676  11.688  0.1719  0.0380  0.1415
   64loPI   PO4 1012  15.506   8.368  11.211  0.1181 -0.0831 -0.0394
   64loPI   GL1 1013  15.791   8.450  10.887  0.0227  0.0330  0.0735
   64loPI   GL2 1014  16.038   8.232  10.735  0.3676 -0.3508  0.1206
   64loPI   C1A 1015  15.684   8.549  10.426  0.3081  0.1549  0.0405
   64loPI   C2A 1016  15.692   8.533   9.974 -0.0205  0.1022  0.1016
   64loPI   C3A 1017  15.686   8.529   9.516 -0.0944 -0.3628 -0.0137
   64loPI   C4A 1018  15.723   8.480   9.060  0.2351  0.1551  0.0372
   64loPI   C5A 1019  15.852   8.382   8.619  0.0335 -0.0374 -0.0113
   64loPI   C6A 1020  16.249   8.268   8.511 -0.1391  0.3478  0.3636
   64loPI   C1B 1021  16.170   8.271  10.280  0.0321  0.0739 -0.2249
   64loPI   C2B 1022  16.085   8.260   9.845  0.0518  0.1083  0.4466
   64loPI   C3B 1023  16.142   8.263   9.427  0.1039  0.1415  0.2228
   64loPI   C4B 1024  16.158   8.232   8.998  0.0820  0.1258  0.1222
   65loPI    C1 1025   9.270   7.552  11.492 -0.1714 -0.2363 -0.0491
   65loPI    C2 1026   8.993   7.538  11.781 -0.2718  0.1672 -0.1197
   65loPI    C3 1027   9.350   7.703  11.853 -0.1478 -0.0988 -0.1115
   65loPI   PO4 1028   9.178   7.648  11.240  0.0714 -0.0327  0.2492
   65loPI   GL1 1029   9.394   7.843  10.883  0.2046  0.0775 -0.2875
   65loPI   GL2 1030   9.112   7.931  10.776  0.1792  0.1636 -0.0147
   65loPI   C1A 1031   9.419   7.642  10.447 -0.0791 -0.2432  0.1315
   65loPI   C2A 1032   9.351   7.693   9.999  0.1825  0.1314 -0.0562
   65loPI   C3A 1033   9.324   7.752   9.569 -0.2253  0.1204  0.3302
   65loPI   C4A 1034   9.215   7.717   9.152 -0.0283 -0.0372 -0.0942
   65loPI   C5A 1035   9.261   7.669   8.678 -0.1439  0.1407  0.2780
   65loPI   C6A 1036   9.183   7.342   8.410 -0.1996 -0.1390  0.0003
   65loPI   C1B 1037   8.994   7.982  10.328  0.1002  0.0074  0.1772
   65loPI   C2B 1038   8.972   8.036   9.934 -0.1880 -0.5475 -0.1788
   65loPI   C3B 1039   8.972   8.119   9.540 -0.0008 -0.0143 -0.1402
   65loPI   C4B 1040   8.770   7.964   9.097  0.0532  0.2709  0.0301
   66loPI    C1 1041  11.801  17.020  10.462  0.2254 -0.1244  0.0943
   66loPI    C2 1042  11.822  17.026  10.861  0.0295 -0.0757  0.1046
   66loPI    C3 1043  11.469  17.074  10.678  0.1482  0.1112 -0.0792
   66loPI   PO4 1044  11.899  16.826  10.378  0.0162 -0.0648 -0.1520
   66loPI   GL1 1045  11.956  16.320  10.299  0.0785 -0.1956  0.2700
   66loPI   GL2 1046  11.692  16.162  10.161  0.0350  0.0418  0.0114
   66loPI   C1A 1047  12.088  16.341   9.898  0.0014  0.0895 -0.3499
   66loPI   C2A 1048  12.080  16.404   9.501 -0.1454 -0.2841  0.1055
   66loPI   C3A 1049  12.052  16.573   9.113  0.1221  0.0793  0.1554
   66loPI   C4A 1050  12.028  16.681   8.718 -0.0123 -0.2484  0.0478
   66loPI   C5A 1051  11.802  16.731   8.268 -0.0828  0.1267  0.0262
   66loPI   C6A 1052  11.381  16.785   7.991  0.3349 -0.2068  0.2336
   66loPI   C1B 1053  11.534  16.169   9.751 -0.2751 -0.4972 -0.1562
   66loPI   C2B 1054  11.593  16.296   9.377  0.4138  0.0033 -0.1129
   66loPI   C3B 1055  11.601  16.478   8.981  0.1984 -0.0718 -0.0912
   66loPI   C4B 1056  11.427  16.361   8.613 -0.2512 -0.1781  0.4151
   67loPI    C1 1057   0.628   7.242  11.706 -0.0157 -0.3687 -0.1518
   67loPI    C2 1058   0.324   7.405  11.909 -0.0525 -0.3263 -0.2399
   67loPI    C3 1059   0.592   7.176  12.098 -0.0239 -0.1973 -0.1228
   67loPI   PO4 1060   0.615   7.307  11.463 -0.0210  0.0280  0.0827
   67loPI   GL1 1061   0.781   7.035  11.090 -0.0181  0.2132  0.1161
   67loPI   GL2 1062   0.509   7.212  10.999 -0.0689  0.0152  0.2005
   67loPI   C1A 1063   0.970   7.190  10.714 -0.0968 -0.0692  0.3963
   67loPI   C2A 1064   0.956   7.253  10.231  0.3680  0.3003 -0.3018
   67loPI   C3A 1065   1.123   7.312   9.819 -0.0062 -0.0519  0.0397
   67loPI   C4A 1066   1.156   7.304   9.420 -0.0819  0.2981  0.0681
   67loPI   C5A 1067   0.923   7.192   9.085  0.0845  0.0738 -0.1297
   67loPI   C6A 1068   0.487   7.214   8.864  0.0355 -0.1827 -0.2480
   67loPI   C1B 1069   0.537   7.073  10.525 -0.0139 -0.2299 -0.1026
   67loPI   C2B 1070   0.529   7.076  10.092  0.1743  0.0701  0.5152
   67loPI   C3B 1071   0.553   7.064   9.745 -0.0440 -0.0793  0.2164
   67loPI   C4B 1072   0.530   7.169   9.383  0.3385  0.0512  0.1096
   68loPI    C1 1073   4.189   9.644  11.726 -0.0578  0.0695 -0.3559
   68loPI    C2 1074   3.920   9.430  11.930  0.1696 -0.0098 -0.1343
   68loPI    C3 1075   4.138   9.707  12.117  0.1077  0.1900 -0.3530
   68loPI   PO4 1076   4.071   9.612  11.417 -0.1401  0.1060  0.2235
   68loPI   GL1 1077   4.056   9.389  11.066 -0.0946  0.2038  0.0141
   68loPI   GL2 1078   4.298   9.394  10.776  0.1623  0.1318  0.1138
   68loPI   C1A 1079   3.803   9.292  10.631  0.0499 -0.1487 -0.0024
   68loPI   C2A 1080   3.776   9.391  10.237  0.1503 -0.3701  0.1511
   68loPI   C3A 1081   3.650   9.395   9.772  0.3021 -0.0206 -0.0748
   68loPI   C4A 1082   3.626   9.373   9.244  0.2531  0.0814 -0.0348
   68loPI   C5A 1083   3.793   9.332   8.757  0.1421 -0.2267  0.0147
   68loPI   C6A 1084   3.941   9.266   8.379  0.1656  0.0321 -0.2282
   68loPI   C1B 1085   4.269   9.450  10.395  0.0093  0.1214 -0.2676
   68loPI   C2B 1086   4.123   9.562   9.959  0.0184  0.0648 -0.0377
   68loPI   C3B 1087   4.101   9.593   9.565  0.3285  0.1569  0.1022
   68loPI   C4B 1088   4.118   9.575   9.104 -0.1204 -0.2366  0.0675
   69loPI    C1 1089   9.473  11.119  11.273 -0.1795  0.1121 -0.1573
   69loPI    C2 1090   9.647  11.124  11.633 -0.1303  0.1283 -0.1811
   69loPI    C3 1091   9.268  11.003  11.595 -0.0849 -0.0274 -0.1463
   69loPI   PO4 1092   9.636  11.247  11.096 -0.0924 -0.1346 -0.0158
   69loPI   GL1 1093   9.756  11.162  10.704 -0.2249 -0.1561 -0.0391
   69loPI   GL2 1094   9.723  11.475  10.682 -0.1667  0.0912  0.2016
   69loPI   C1A 1095   9.837  10.972  10.349 -0.0062 -0.1013 -0.1125
   69loPI   C2A 1096   9.786  10.827   9.938  0.1067  0.1411 -0.2880
   69loPI   C3A 1097   9.783  10.854   9.503  0.3279  0.0889  0.0629
   69loPI   C4A 1098   9.631  10.806   9.186 -0.0576  0.0560 -0.0932
   69loPI   C5A 1099   9.645  10.727   8.723  0.2192  0.2421 -0.1819
   69loPI   C6A 1100   9.382  10.873   8.440  0.2146  0.1055  0.0205
   69loPI   C1B 1101   9.980  11.471  10.284 -0.0201 -0.0592  0.0023
   69loPI   C2B 1102   9.875  11.337  10.023 -0.3374  0.1849  0.1301
   69loPI   C3B 1103   9.812  11.355   9.566 -0.1808 -0.0413 -0.0751
   69loPI   C4B 1104   9.730  11.286   9.147  0.3485 -0.0917 -0.2461
   70loPI    C1 1105  16.224   6.676  11.731  0.1835  0.1489 -0.3221
   70loPI    C2 1106  15.966   6.920  11.915 -0.0262 -0.3544  0.0763
   70loPI    C3 1107  16.309   6.819  12.094  0.1789 -0.1569 -0.1972
   70loPI   PO4 1108  16.197   6.717  11.478  0.2864 -0.1166 -0.0210
   70loPI   GL1 1109  16.414   6.574  11.136  0.3142 -0.0919 -0.0578
   70loPI   GL2 1110  16.250   6.368  10.941 -0.1117  0.2323  0.1442
   70loPI   C1A 1111  16.730   6.522  10.769 -0.0088  0.2484 -0.2876
   70loPI   C2A 1112  16.700   6.550  10.315 -0.3771 -0.1491 -0.3122
   70loPI   C3A 1113  16.864   6.575   9.944 -0.2537  0.0837 -0.1156
   70loPI   C4A 1114  16.750   6.621   9.556 -0.2770 -0.0002 -0.4508
   70loPI   C5A 1115  16.763   6.878   9.150  0.2091  0.1527  0.0805
   70loPI   C6A 1116  16.690   6.557   8.819  0.1043 -0.1488  0.0852
   70loPI   C1B 1117  16.307   6.418  10.535  0.3233  0.0098  0.0014
   70loPI   C2B 1118  16.302   6.382  10.002  0.0757  0.0660 -0.0179
   70loPI   C3B 1119  16.291   6.424   9.593  0.0718  0.1475 -0.0390
   70loPI   C4B 1120  16.276   6.496   9.141  0.0221  0.0224 -0.2347
   71loPI    C1 1121   0.178   8.049  11.829  0.2527  0.1871  0.0741
   71loPI    C2 1122   0.221   7.880  12.189  0.1773  0.2501  0.1127
   71loPI    C3 1123  -0.034   8.184  12.140 -0.2515 -0.1339 -0.1166
   71loPI   PO4 1124   0.322   7.845  11.640  0.1561  0.1961 -0.3790
   71loPI   GL1 1125   0.506   7.778  11.301  0.1718  0.1956 -0.0336
   71loPI   GL2 1126   0.384   8.155  11.179 -0.3252  0.1827  0.0973
   71loPI   C1A 1127   0.562   7.669  10.801  0.1267  0.1589  0.2378
   71loPI   C2A 1128   0.578   7.614  10.351 -0.0066  0.0722 -0.2644
   71loPI   C3A 1129   0.699   7.596   9.911  0.0909 -0.0916  0.1979
   71loPI   C4A 1130   0.787   7.602   9.507  0.2652 -0.4972 -0.2032
   71loPI   C5A 1131   0.580   7.658   9.121 -0.2555 -0.1129  0.2343
   71loPI   C6A 1132   0.160   7.706   8.723  0.3049 -0.0292 -0.0915
   71loPI   C1B 1133   0.253   8.015  10.755 -0.3302 -0.1832  0.2738
   71loPI   C2B 1134   0.195   8.001  10.356 -0.3632 -0.2190 -0.3741
   71loPI   C3B 1135   0.314   7.869  10.009 -0.1798  0.1766 -0.0602
   71loPI   C4B 1136   0.376   7.884   9.573 -0.0187 -0.1557  0.0978
   72loPI    C1 1137  15.389  17.243  10.908  0.1471 -0.2110  0.0540
   72loPI    C2 1138  15.068  17.283  11.143  0.0453 -0.2508 -0.0764
   72loPI    C3 1139  15.304  16.962  11.180  0.1170 -0.1815  0.0753
   72loPI   PO4 1140  15.281  17.305  10.702  0.0398  0.0681 -0.1272
   72loPI   GL1 1141  15.240  17.099  10.337 -0.1641  0.1840  0.1601
   72loPI   GL2 1142  14.961  17.228  10.156 -0.2086 -0.1596 -0.3117
   72loPI   C1A 1143  15.444  17.333  10.063  0.2434  0.2548  0.1189
   72loPI   C2A 1144  15.576  17.388   9.645  0.0778  0.1429 -0.1486
   72loPI   C3A 1145  15.628  17.386   9.179 -0.2207 -0.1420  0.1282
   72loPI   C4A 1146  15.686  17.467   8.833  0.3958  0.1245  0.0183
   72loPI   C5A 1147  15.461  17.743   8.604  0.0671  0.0103 -0.1643
   72loPI   C6A 1148  15.010  17.611   8.463  0.3842 -0.1860 -0.1418
   72loPI   C1B 1149  15.095  17.158   9.727 -0.1874  0.2089 -0.0993
   72loPI   C2B 1150  15.134  17.268   9.320  0.6147 -0.1148  0.1992
   72loPI   C3B 1151  15.053  17.173   8.901 -0.2277  0.0371  0.0901
   72loPI   C4B 1152  15.211  17.112   8.420  0.2051  0.1714 -0.0768
   73loPI    C1 1153   9.789   9.045  11.520  0.0954  0.1287 -0.1235
   73loPI    C2 1154   9.967   8.712  11.652 -0.0416  0.0794 -0.0616
   73loPI    C3 1155   9.587   8.789  11.752  0.0656  0.3763  0.1299
   73loPI   PO4 1156   9.878   9.032  11.224  0.3096  0.0358  0.0683
   73loPI   GL1 1157   9.841   9.047  10.728  0.1847  0.1791  0.0356
   73loPI   GL2 1158  10.110   8.976  10.768  0.0415  0.6545 -0.2438
   73loPI   C1A 1159   9.894   9.090  10.281 -0.2914  0.1605  0.0555
   73loPI   C2A 1160   9.956   8.989   9.838 -0.2583 -0.1756 -0.0381
   73loPI   C3A 1161   9.978   9.041   9.445 -0.0140  0.0033 -0.4331
   73loPI   C4A 1162   9.960   9.029   9.043  0.0252 -0.1386 -0.1896
   73loPI   C5A 1163   9.619   8.949   8.723 -0.3287  0.0894 -0.0950
   73loPI   C6A 1164   9.515   9.102   8.339 -0.4005  0.0297  0.0105
   73loPI   C1B 1165  10.252   8.776  10.453 -0.0216 -0.3187  0.3217
   73loPI   C2B 1166  10.303   8.690  10.041  0.0802  0.2642  0.0602
   73loPI   C3B 1167  10.305   8.723   9.608 -0.3085 -0.0328  0.0340
   73loPI   C4B 1168  10.299   8.666   9.174  0.0983  0.0866  0.4806
   74loPI    C1 1169   3.867   7.404  11.688 -0.3760  0.1210 -0.0220
   74loPI    C2 1170   3.599   7.426  11.984 -0.0181 -0.1578  0.3344
   74loPI    C3 1171   3.976   7.319  12.063  0.1966  0.1908 -0.1624
   74loPI   PO4 1172   3.756   7.256  11.429 -0.1559  0.2207  0.0462
   74loPI   GL1 1173   3.761   7.002  11.051 -0.1409  0.1217 -0.1360
   74loPI   GL2 1174   3.892   6.704  11.207 -0.1017  0.1073 -0.2832
   74loPI   C1A 1175   3.641   6.895  10.642 -0.0399  0.1436 -0.2142
   74loPI   C2A 1176   3.832   6.877  10.237 -0.0771  0.0430 -0.3161
   74loPI   C3A 1177   3.761   6.879   9.783 -0.1810 -0.1509  0.0433
   74loPI   C4A 1178   3.610   7.042   9.355  0.2865  0.2796  0.1651
   74loPI   C5A 1179   3.349   7.323   9.155  0.0260  0.0556 -0.1713
   74loPI   C6A 1180   3.408   7.562   8.850 -0.0265 -0.3280  0.1746
   74loPI   C1B 1181   4.056   6.656  10.716  0.2214 -0.0243 -0.1842
   74loPI   C2B 1182   4.238   6.596  10.259 -0.0975 -0.1864 -0.0599
   74loPI   C3B 1183   4.209   6.661   9.812 -0.0161 -0.1676 -0.1960
   74loPI   C4B 1184   4.159   6.647   9.414  0.0974  0.1173 -0.0578
   75loPI    C1 1185   8.187   4.840  11.204  0.2074  0.0682  0.1210
   75loPI    C2 1186   8.084   4.740  11.578 -0.0239  0.0568  0.0558
   75loPI    C3 1187   8.110   5.126  11.473  0.0721  0.0603  0.0910
   75loPI   PO4 1188   8.041   4.698  11.010 -0.1158 -0.0536  0.0759
   75loPI   GL1 1189   8.051   4.626  10.551  0.0186  0.1368 -0.1074
   75loPI   GL2 1190   7.787   4.457  10.471 -0.1210 -0.0645 -0.0588
   75loPI   C1A 1191   7.715   4.921  10.276  0.3126  0.1307 -0.1395
   75loPI   C2A 1192   7.657   5.024   9.869 -0.0366  0.1408  0.1323
   75loPI   C3A 1193   7.552   5.004   9.442  0.0650  0.1232  0.1521
   75loPI   C4A 1194   7.481   5.009   8.981  0.0782 -0.0298 -0.0938
   75loPI   C5A 1195   7.888   5.017   8.732  0.0316  0.2849 -0.0426
   75loPI   C6A 1196   8.229   5.223   8.669  0.0603 -0.0356  0.2801
   75loPI   C1B 1197   7.924   4.509   9.993 -0.1781 -0.3627 -0.1172
   75loPI   C2B 1198   7.945   4.702   9.512 -0.0270  0.0818  0.1431
   75loPI   C3B 1199   7.895   4.575   8.975 -0.0857 -0.0210 -0.1070
   75loPI   C4B 1200   7.835   4.581   8.543 -0.2119  0.2160  0.1393
   76loPI    C1 1201  12.762   9.357  11.602 -0.1861 -0.0814 -0.0364
   76loPI    C2 1202  12.656   9.610  11.893  0.1104 -0.0531  0.0498
   76loPI    C3 1203  12.823   9.257  11.985 -0.0102 -0.1446 -0.0796
   76loPI   PO4 1204  12.614   9.323  11.435 -0.0433 -0.1231 -0.0826
   76loPI   GL1 1205  12.583   9.282  10.935 -0.1807 -0.1775 -0.1118
   76loPI   GL2 1206  12.693   9.623  10.827 -0.2411  0.1139 -0.1973
   76loPI   C1A 1207  12.699   9.121  10.507  0.1604  0.1687  0.0447
   76loPI   C2A 1208  12.699   9.260  10.109  0.1576  0.2378  0.1899
   76loPI   C3A 1209  12.712   9.159   9.662 -0.0144  0.0526  0.0111
   76loPI   C4A 1210  12.595   9.194   9.238  0.0673 -0.0226  0.2070
   76loPI   C5A 1211  12.627   9.184   8.742  0.1118 -0.2687  0.3351
   76loPI   C6A 1212  12.875   9.016   8.401  0.0095  0.1219  0.2134
   76loPI   C1B 1213  12.752   9.760  10.449  0.0891 -0.0325  0.0371
   76loPI   C2B 1214  12.785   9.742   9.893  0.0658 -0.3861 -0.1135
   76loPI   C3B 1215  12.679   9.703   9.477 -0.0802  0.1165  0.2128
   76loPI   C4B 1216  12.727   9.761   9.093 -0.2115 -0.0582  0.1131
   77loPI    C1 1217   6.220  14.813  10.956 -0.2408  0.0369  0.0397
   77loPI    C2 1218   6.382  14.447  10.957 -0.1801  0.0624 -0.1457
   77loPI    C3 1219   6.613  14.769  11.016 -0.2502  0.0652  0.1222
   77loPI   PO4 1220   6.092  14.857  10.807 -0.1438 -0.2986  0.1121
   77loPI   GL1 1221   5.858  14.808  10.471  0.1225  0.2810 -0.0858
   77loPI   GL2 1222   6.157  14.640  10.238  0.3115  0.1413 -0.0596
   77loPI   C1A 1223   5.835  14.976   9.989 -0.3891 -0.0069 -0.2011
   77loPI   C2A 1224   5.772  14.908   9.657 -0.0128  0.1831  0.3907
   77loPI   C3A 1225   5.780  15.071   9.263  0.1466  0.1168  0.1389
   77loPI   C4A 1226   5.754  15.059   8.849 -0.0978  0.1812 -0.1059
   77loPI   C5A 1227   5.720  14.779   8.296 -0.0570  0.0707 -0.4878
   77loPI   C6A 1228   5.977  14.476   8.063  0.1866  0.1964 -0.0731
   77loPI   C1B 1229   6.241  14.688   9.690  0.0443  0.0412  0.2508
   77loPI   C2B 1230   6.269  14.746   9.376  0.1494  0.0624  0.1806
   77loPI   C3B 1231   6.108  14.803   9.034  0.1052 -0.0315 -0.0520
   77loPI   C4B 1232   6.139  14.840   8.602 -0.3638 -0.0013 -0.2357
   78loPI    C1 1233   0.477   4.439  11.458  0.0148 -0.0961 -0.1638
   78loPI    C2 1234   0.335   4.544  11.816 -0.1484 -0.0190 -0.2500
   78loPI    C3 1235   0.641   4.745  11.656 -0.1332  0.0034 -0.1930
   78loPI   PO4 1236   0.254   4.382  11.266  0.0834 -0.0011  0.0402
   78loPI   GL1 1237   0.227   4.385  10.805 -0.3272  0.1756  0.2721
   78loPI   GL2 1238   0.081   4.175  10.754  0.1345  0.1640 -0.1297
   78loPI   C1A 1239   0.204   4.529  10.343 -0.0404  0.2266 -0.1873
   78loPI   C2A 1240   0.145   4.545   9.937  0.0093  0.1262 -0.0214
   78loPI   C3A 1241   0.135   4.609   9.495 -0.0108  0.1014 -0.1643
   78loPI   C4A 1242   0.215   4.507   9.040  0.2013  0.0895 -0.0743
   78loPI   C5A 1243   0.392   4.757   8.626  0.1657  0.2253 -0.0271
   78loPI   C6A 1244   0.198   5.109   8.377  0.3772  0.0263 -0.0050
   78loPI   C1B 1245   0.121   4.073  10.244  0.0308 -0.0349 -0.6116
   78loPI   C2B 1246   0.166   4.026   9.847 -0.0562  0.1849 -0.0654
   78loPI   C3B 1247   0.091   3.936   9.409 -0.3131  0.0810  0.1729
   78loPI   C4B 1248   0.083   4.024   9.012 -0.3253 -0.1511  0.2734
   79loPI    C1 1249   0.399  14.569  11.100  0.1784  0.0232 -0.0732
   79loPI    C2 1250   0.673  14.815  11.256  0.0549  0.0401  0.1201
   79loPI    C3 1251   0.476  14.559  11.492 -0.1834  0.1134  0.0042
   79loPI   PO4 1252   0.458  14.435  10.950 -0.2095 -0.1323  0.0795
   79loPI   GL1 1253   0.490  14.448  10.605  0.0832  0.2139 -0.2025
   79loPI   GL2 1254   0.324  14.667  10.420 -0.0106 -0.3892  0.0822
   79loPI   C1A 1255   0.776  14.493  10.229  0.1103 -0.1850 -0.2834
   79loPI   C2A 1256   0.764  14.576   9.904 -0.3077 -0.0758  0.0576
   79loPI   C3A 1257   0.758  14.527   9.480 -0.1459 -0.1075 -0.0620
   79loPI   C4A 1258   0.745  14.452   9.102 -0.1166 -0.1640 -0.2485
   79loPI   C5A 1259   1.098  14.251   8.852  0.1619 -0.3325 -0.0577
   79loPI   C6A 1260   1.380  14.059   8.576 -0.1814  0.1130 -0.2201
   79loPI   C1B 1261   0.337  14.771  10.072  0.1482 -0.0545  0.1046
   79loPI   C2B 1262   0.357  14.841   9.548 -0.0851  0.1374 -0.0455
   79loPI   C3B 1263   0.404  14.850   9.106 -0.1059  0.2519 -0.1636
   79loPI   C4B 1264   0.253  14.814   8.656 -0.2356  0.0198 -0.0197
   80loPI    C1 1265  15.653  11.775  11.237 -0.2157  0.0075 -0.0133
   80loPI    C2 1266  15.512  11.789  11.611 -0.3353 -0.0732 -0.0547
   80loPI    C3 1267  15.509  12.118  11.383 -0.0017  0.0480  0.1080
   80loPI   PO4 1268  15.527  11.502  11.158 -0.0211  0.1299  0.0416
   80loPI   GL1 1269  15.563  11.306  10.756 -0.2252 -0.1832  0.1487
   80loPI   GL2 1270  15.396  11.615  10.680  0.1970  0.1498  0.4610
   80loPI   C1A 1271  15.742  11.487  10.312 -0.2779  0.1157  0.1978
   80loPI   C2A 1272  15.657  11.430   9.905  0.1139 -0.1758  0.1732
   80loPI   C3A 1273  15.669  11.355   9.510  0.0490 -0.0405  0.0970
   80loPI   C4A 1274  15.659  11.378   9.095  0.0585  0.1752  0.0301
   80loPI   C5A 1275  15.478  11.502   8.799 -0.1607  0.2221 -0.0667
   80loPI   C6A 1276  15.612  11.855   8.503 -0.2341 -0.0718 -0.2185
   80loPI   C1B 1277  15.294  11.764  10.281  0.1875  0.0797 -0.2856
   80loPI   C2B 1278  15.229  11.685   9.789  0.0797  0.0980 -0.1214
   80loPI   C3B 1279  15.349  11.724   9.376  0.1820 -0.2233 -0.2916
   80loPI   C4B 1280  15.089  11.828   9.007 -0.2047  0.0431  0.1874
   81loPI    C1 1281  10.041  14.010  10.595 -0.1316  0.2448  0.0201
   81loPI    C2 1282  10.217  14.143  10.929 -0.1317 -0.0033  0.1211
   81loPI    C3 1283   9.918  13.878  10.952 -0.1615  0.0117 -0.0745
   81loPI   PO4 1284  10.177  13.901  10.486  0.1482  0.0890  0.1183
   81loPI   GL1 1285  10.369  13.866  10.127  0.0587  0.0892  0.2765
   81loPI   GL2 1286  10.681  13.798  10.267  0.1668  0.0526 -0.0198
   81loPI   C1A 1287  10.364  13.825   9.690  0.1576  0.1745  0.2178
   81loPI   C2A 1288  10.558  13.687   9.228  0.2269  0.0839  0.3639
   81loPI   C3A 1289  10.511  13.501   8.834 -0.0864  0.1460 -0.2192
   81loPI   C4A 1290  10.526  13.601   8.432 -0.1161 -0.2672  0.0571
   81loPI   C5A 1291  10.288  13.628   8.026  0.0186 -0.1398  0.1408
   81loPI   C6A 1292  10.109  13.318   7.829  0.2436  0.1149  0.2376
   81loPI   C1B 1293  10.810  13.913   9.879  0.1862  0.0537  0.3085
   81loPI   C2B 1294  11.062  13.964   9.506  0.0281 -0.0842  0.0674
   81loPI   C3B 1295  11.065  13.762   9.139  0.1422 -0.1326 -0.0693
   81loPI   C4B 1296  11.007  13.715   8.656  0.1880 -0.2448 -0.2197
   82loPI    C1 1297   7.598   8.876  11.268  0.0268 -0.4893 -0.2091
   82loPI    C2 1298   7.595   9.001  11.648  0.1285  0.0543 -0.3782
   82loPI    C3 1299   7.852   8.717  11.533  0.1653 -0.0427 -0.0644
   82loPI   PO4 1300   7.573   9.130  11.137  0.2764 -0.2942 -0.1949
   82loPI   GL1 1301   7.400   9.251  10.690  0.0441  0.2961  0.0706
   82loPI   GL2 1302   7.258   9.016  10.611 -0.0331  0.3403 -0.0287
   82loPI   C1A 1303   7.344   9.380  10.274 -0.1182  0.0716  0.0982
   82loPI   C2A 1304   7.266   9.348   9.889  0.0412 -0.1233  0.1298
   82loPI   C3A 1305   7.203   9.278   9.519  0.1083 -0.0709  0.1371
   82loPI   C4A 1306   7.114   9.241   9.055 -0.1225  0.1807 -0.0133
   82loPI   C5A 1307   7.105   9.162   8.604  0.1812 -0.2180 -0.1704
   82loPI   C6A 1308   6.947   9.267   8.208  0.2586  0.2496  0.0182
   82loPI   C1B 1309   7.284   8.883  10.189  0.0847  0.2657 -0.1564
   82loPI   C2B 1310   7.227   8.768   9.821  0.2384  0.0889 -0.0603
   82loPI   C3B 1311   7.076   8.745   9.360  0.3522 -0.1089 -0.1585
   82loPI   C4B 1312   7.097   8.677   8.890  0.0834 -0.0458 -0.3393
   83loPI    C1 1313  15.197  11.371  11.668  0.0211 -0.0690 -0.0256
   83loPI    C2 1314  15.194  11.646  11.959  0.1891 -0.0485 -0.0421
   83loPI    C3 1315  15.450  11.339  11.977 -0.1816 -0.3569  0.1154
   83loPI   PO4 1316  15.113  11.540  11.425  0.3026  0.2082  0.0989
   83loPI   GL1 1317  14.977  11.451  11.010 -0.2489 -0.0111  0.0089
   83loPI   GL2 1318  15.139  11.203  10.834  0.1026  0.2508  0.4580
   83loPI   C1A 1319  14.832  11.657  10.592  0.2311  0.1050  0.1514
   83loPI   C2A 1320  14.753  11.522  10.247 -0.0355 -0.2382 -0.0788
   83loPI   C3A 1321  14.692  11.568   9.763  0.3275 -0.0389 -0.0733
   83loPI   C4A 1322  14.800  11.584   9.356 -0.1459 -0.1075 -0.0643
   83loPI   C5A 1323  14.691  11.537   8.993  0.1776  0.1546 -0.0774
   83loPI   C6A 1324  14.386  11.424   8.725 -0.1193 -0.1450  0.3444
   83loPI   C1B 1325  15.179  11.153  10.440  0.2046  0.0981 -0.2031
   83loPI   C2B 1326  15.139  11.268  10.034 -0.3086 -0.1875  0.0435
   83loPI   C3B 1327  15.116  11.244   9.599 -0.0368  0.3308  0.2022
   83loPI   C4B 1328  15.154  11.336   9.121  0.1257  0.0171 -0.0598
   84loPI    C1 1329  13.312   8.935  11.276 -0.1726 -0.0418  0.0351
   84loPI    C2 1330  13.010   9.176  11.171 -0.1360 -0.0650 -0.1264
   84loPI    C3 1331  12.979   8.781  11.118 -0.0156 -0.0531 -0.2946
   84loPI   PO4 1332  13.485   9.012  11.069 -0.0909  0.0750 -0.3267
   84loPI   GL1 1333  13.528   9.064  10.625 -0.0453 -0.1664  0.0382
   84loPI   GL2 1334  13.127   8.959  10.658  0.2092  0.0577  0.1406
   84loPI   C1A 1335  13.556   9.129  10.193 -0.2191  0.3704 -0.2451
   84loPI   C2A 1336  13.543   9.109   9.757 -0.0813  0.2994  0.2712
   84loPI   C3A 1337  13.583   9.064   9.364 -0.1956 -0.0988 -0.2622
   84loPI   C4A 1338  13.387   9.094   8.966 -0.0749  0.4104 -0.0019
   84loPI   C5A 1339  13.290   9.339   8.607  0.1891 -0.2374  0.0395
   84loPI   C6A 1340  13.413   9.204   8.216 -0.1817  0.0431 -0.0008
   84loPI   C1B 1341  13.109   8.948  10.202 -0.1708  0.0799 -0.2207
   84loPI   C2B 1342  13.105   8.911   9.824 -0.2112 -0.1123 -0.0822
   84loPI   C3B 1343  13.036   8.949   9.329 -0.1442  0.0983 -0.0662
   84loPI   C4B 1344  13.019   8.725   8.863  0.0295 -0.3077 -0.1857
   85loPI    C1 1345  11.179   5.334  11.223  0.1384 -0.0045  0.0207
   85loPI    C2 1346  10.881   5.185  11.445  0.1519 -0.0708 -0.0055
   85loPI    C3 1347  11.245   5.233  11.604  0.1213  0.0342  0.0340
   85loPI   PO4 1348  11.069   5.455  11.092 -0.0356 -0.0075 -0.1843
   85loPI   GL1 1349  11.004   5.307  10.642  0.1465  0.2443 -0.0223
   85loPI   GL2 1350  10.738   5.438  10.735  0.2135  0.0484 -0.2666
   85loPI   C1A 1351  10.887   5.374  10.176 -0.0440  0.3634 -0.0171
   85loPI   C2A 1352  10.950   5.386   9.725  0.0052 -0.2029 -0.0092
   85loPI   C3A 1353  10.838   5.528   9.349  0.0610  0.0758 -0.0691
   85loPI   C4A 1354  10.811   5.512   8.924  0.0255  0.1666 -0.0654
   85loPI   C5A 1355  10.617   5.585   8.477 -0.4356 -0.1614 -0.5301
   85loPI   C6A 1356  10.461   5.570   8.019  0.1260 -0.0258 -0.0610
   85loPI   C1B 1357  10.531   5.651  10.369  0.3338 -0.0487 -0.3383
   85loPI   C2B 1358  10.489   5.698   9.964  0.0697 -0.0043  0.1037
   85loPI   C3B 1359  10.456   5.760   9.538 -0.1493 -0.0874 -0.1268
   85loPI   C4B 1360  10.436   5.719   9.062  0.3955 -0.0903  0.0014
   86loPI    C1 1361  11.783  11.927  11.471 -0.1729  0.0099 -0.3552
   86loPI    C2 1362  11.473  12.180  11.475 -0.0569  0.1523 -0.3197
   86loPI    C3 1363  11.847  12.321  11.462  0.0130 -0.0147 -0.1689
   86loPI   PO4 1364  11.630  11.688  11.243  0.0377  0.1391 -0.0005
   86loPI   GL1 1365  11.535  11.692  10.771 -0.0897  0.2384  0.5063
   86loPI   GL2 1366  11.231  11.596  10.520 -0.0321  0.2542  0.4463
   86loPI   C1A 1367  11.674  11.746  10.339 -0.1897 -0.4468  0.2430
   86loPI   C2A 1368  11.707  11.650   9.889 -0.0555 -0.1143 -0.0896
   86loPI   C3A 1369  11.722  11.622   9.450  0.1778  0.5469 -0.2078
   86loPI   C4A 1370  11.593  11.542   9.024  0.1091  0.1576 -0.2275
   86loPI   C5A 1371  11.557  11.676   8.646  0.0198  0.0667 -0.0675
   86loPI   C6A 1372  11.764  12.028   8.423  0.3131 -0.1182 -0.2679
   86loPI   C1B 1373  11.177  11.485  10.059 -0.3255  0.0226  0.0559
   86loPI   C2B 1374  11.247  11.529   9.636  0.1611 -0.3286  0.2506
   86loPI   C3B 1375  11.178  11.418   9.219  0.2739  0.2931  0.0456
   86loPI   C4B 1376  11.050  11.397   8.761  0.0795  0.2143 -0.2271
   87loPI    C1 1377   2.457   7.939  11.790  0.2637  0.0694  0.0998
   87loPI    C2 1378   2.340   8.307  11.892  0.0341 -0.0234  0.1770
   87loPI    C3 1379   2.548   8.084  12.151 -0.2419 -0.1260  0.3141
   87loPI   PO4 1380   2.436   7.981  11.507 -0.2268  0.1522 -0.3158
   87loPI   GL1 1381   2.411   8.021  11.187 -0.1162 -0.1920 -0.0566
   87loPI   GL2 1382   2.453   8.313  11.003 -0.3444 -0.2797  0.1403
   87loPI   C1A 1383   2.577   7.901  10.771 -0.1471  0.0137 -0.1463
   87loPI   C2A 1384   2.639   7.870  10.256 -0.1297 -0.3468 -0.0196
   87loPI   C3A 1385   2.624   7.971   9.812  0.2628 -0.1039  0.1339
   87loPI   C4A 1386   2.613   8.000   9.346 -0.0243  0.0165  0.3054
   87loPI   C5A 1387   2.553   7.905   8.943  0.1556  0.1457 -0.1139
   87loPI   C6A 1388   2.270   7.632   8.727 -0.2255  0.1731 -0.0072
   87loPI   C1B 1389   2.670   8.425  10.662 -0.1924 -0.0602 -0.0132
   87loPI   C2B 1390   2.733   8.400  10.178 -0.1499  0.2591 -0.0009
   87loPI   C3B 1391   2.602   8.451   9.878  0.3649 -0.0638  0.0792
   87loPI   C4B 1392   2.652   8.458   9.374  0.0345 -0.0716 -0.2433
   88loPI    C1 1393   9.310   0.019  10.701 -0.0833 -0.2900 -0.0639
   88loPI    C2 1394   9.021   0.276  10.597 -0.0618 -0.2786 -0.0962
   88loPI    C3 1395   9.044   0.142  10.973  0.0635 -0.0560 -0.0227
   88loPI   PO4 1396   9.499   0.140  10.567 -0.0393 -0.1906  0.1682
   88loPI   GL1 1397   9.641   0.354  10.240 -0.3006 -0.0280  0.0092
   88loPI   GL2 1398   9.295   0.369  10.145 -0.0203  0.0446 -0.4225
   88loPI   C1A 1399   9.629   0.439   9.794  0.0929 -0.1260 -0.1336
   88loPI   C2A 1400   9.638   0.386   9.434  0.1549 -0.0866  0.3148
   88loPI   C3A 1401   9.542   0.381   8.958  0.0884  0.0515  0.1259
   88loPI   C4A 1402   9.379   0.326   8.430  0.0201 -0.1179 -0.2207
   88loPI   C5A 1403   9.123   0.085   8.232 -0.1149  0.0806 -0.1383
   88loPI   C6A 1404   8.651   0.359   8.091 -0.1532  0.2061 -0.1261
   88loPI   C1B 1405   9.128   0.209   9.759 -0.0193 -0.0625  0.1013
   88loPI   C2B 1406   9.171   0.226   9.311 -0.2971 -0.1394  0.2577
   88loPI   C3B 1407   9.097   0.180   8.931 -0.2952  0.0688  0.1197
   88loPI   C4B 1408   8.786   0.181   8.540 -0.1090  0.0643  0.2984
   89loPI    C1 1409  11.919   9.555  11.680 -0.0490 -0.0710 -0.1473
   89loPI    C2 1410  11.911   9.157  11.721  0.3075 -0.0791 -0.1270
   89loPI    C3 1411  12.257   9.355  11.754  0.1376  0.2313 -0.1660
   89loPI   PO4 1412  11.832   9.564  11.427 -0.0852  0.3258  0.0098
   89loPI   GL1 1413  11.645   9.435  10.956  0.0356 -0.1088  0.4920
   89loPI   GL2 1414  11.788   9.354  10.821 -0.1767 -0.0098  0.0624
   89loPI   C1A 1415  11.370   9.547  10.621 -0.0998 -0.0018  0.1325
   89loPI   C2A 1416  11.326   9.658  10.174 -0.1746 -0.0398 -0.1925
   89loPI   C3A 1417  11.289   9.654   9.788  0.2520 -0.2730  0.1849
   89loPI   C4A 1418  11.308   9.598   9.377  0.0745 -0.0229  0.0722
   89loPI   C5A 1419  11.241   9.459   8.926  0.1860  0.0407 -0.0158
   89loPI   C6A 1420  11.359   9.539   8.568  0.3476  0.0165  0.1420
   89loPI   C1B 1421  11.797   9.314  10.337  0.0504  0.1405 -0.0237
   89loPI   C2B 1422  11.773   9.247   9.890 -0.1158  0.2011 -0.0617
   89loPI   C3B 1423  11.711   9.262   9.445 -0.0581 -0.2084  0.0276
   89loPI   C4B 1424  11.660   9.238   9.077  0.0499 -0.0967 -0.1779
   90loPI    C1 1425   9.275   4.589  11.157  0.1389 -0.0027  0.0793
   90loPI    C2 1426   9.672   4.566  11.203  0.1303 -0.0827  0.1168
   90loPI    C3 1427   9.436   4.622  11.521  0.1209  0.1104  0.0773
   90loPI   PO4 1428   9.217   4.710  10.949  0.0084 -0.2116  0.2240
   90loPI   GL1 1429   8.997   4.987  10.747  0.0299  0.1523  0.1225
   90loPI   GL2 1430   9.166   5.303  10.720 -0.0340 -0.1602 -0.1436
   90loPI   C1A 1431   8.892   4.947  10.342 -0.1235 -0.0081  0.0981
   90loPI   C2A 1432   8.752   4.946   9.916  0.0692 -0.1678 -0.1986
   90loPI   C3A 1433   8.541   4.938   9.510 -0.1935  0.1261  0.0975
   90loPI   C4A 1434   8.360   4.857   9.069  0.3339  0.3580 -0.1076
   90loPI   C5A 1435   8.353   4.701   8.686 -0.4388  0.1584 -0.0714
   90loPI   C6A 1436   8.529   4.736   8.311 -0.0873 -0.3451  0.0857
   90loPI   C1B 1437   9.108   5.483  10.402  0.0823  0.2168 -0.0609
   90loPI   C2B 1438   9.139   5.583   9.954  0.1528 -0.0437  0.0725
   90loPI   C3B 1439   9.116   5.701   9.530 -0.1754 -0.1473 -0.1598
   90loPI   C4B 1440   9.071   5.572   9.159  0.2332 -0.2138  0.0340
   91loPI    C1 1441   1.024   7.544  11.678 -0.1859 -0.1545 -0.0256
   91loPI    C2 1442   0.736   7.683  11.919 -0.0320  0.1409 -0.0063
   91loPI    C3 1443   1.066   7.519  12.075 -0.0998 -0.0156 -0.0251
   91loPI   PO4 1444   1.056   7.799  11.579 -0.2845 -0.1572  0.1402
   91loPI   GL1 1445   0.880   8.025  11.092  0.0560  0.0646  0.2250
   91loPI   GL2 1446   1.100   8.232  10.972  0.0163  0.2264  0.1047
   91loPI   C1A 1447   1.100   7.768  10.697 -0.1372  0.1251 -0.2125
   91loPI   C2A 1448   1.126   7.697  10.238 -0.5604  0.2532  0.0963
   91loPI   C3A 1449   1.199   7.889   9.864  0.2711 -0.1535 -0.1596
   91loPI   C4A 1450   1.131   7.889   9.419  0.2259  0.3229 -0.0813
   91loPI   C5A 1451   1.146   7.680   9.032 -0.0582  0.2084  0.1942
   91loPI   C6A 1452   0.884   7.614   8.670  0.0984  0.0647  0.1318
   91loPI   C1B 1453   1.124   8.587  10.639  0.1433 -0.1120 -0.2657
   91loPI   C2B 1454   0.885   8.740  10.256  0.0251  0.0684 -0.1353
   91loPI   C3B 1455   0.804   8.699   9.883  0.2633 -0.0349 -0.0642
   91loPI   C4B 1456   0.748   8.691   9.415  0.1512  0.0473 -0.1785
   92loPI    C1 1457  10.181   6.369  11.241  0.1371  0.1823  0.1325
   92loPI    C2 1458  10.265   5.978  11.246 -0.1050  0.1230 -0.1397
   92loPI    C3 1459  10.160   6.165  11.584 -0.0194 -0.0533 -0.0141
   92loPI   PO4 1460  10.002   6.406  11.040 -0.2094 -0.1596 -0.0101
   92loPI   GL1 1461  10.207   6.372  10.674  0.0267  0.0387 -0.0007
   92loPI   GL2 1462  10.256   6.622  10.496  0.0235 -0.2001  0.3019
   92loPI   C1A 1463  10.536   6.188  10.380  0.2491 -0.3473  0.0130
   92loPI   C2A 1464  10.482   6.182  10.008  0.0949  0.0853  0.2561
   92loPI   C3A 1465  10.520   6.221   9.628  0.1069  0.1708 -0.1964
   92loPI   C4A 1466  10.476   6.338   9.305 -0.1121  0.1581  0.2599
   92loPI   C5A 1467  10.537   6.252   8.876 -0.1446 -0.0908  0.1374
   92loPI   C6A 1468  10.473   6.106   8.460 -0.0893  0.0215  0.1337
   92loPI   C1B 1469  10.104   6.474  10.170  0.0777 -0.1759 -0.0608
   92loPI   C2B 1470  10.165   6.519   9.817  0.1172  0.3940  0.1781
   92loPI   C3B 1471  10.104   6.710   9.389  0.0422 -0.0142 -0.1814
   92loPI   C4B 1472  10.092   6.619   9.059  0.2267 -0.0601 -0.1229
   93loPI    C1 1473  12.658  10.997  11.407  0.0270  0.0200 -0.1359
   93loPI    C2 1474  12.322  10.985  11.624  0.0736 -0.2728 -0.0760
   93loPI    C3 1475  12.678  10.980  11.806  0.1123 -0.1849 -0.1481
   93loPI   PO4 1476  12.558  10.768  11.158  0.0452 -0.3781 -0.2218
   93loPI   GL1 1477  12.403  10.813  10.758 -0.0788 -0.1866 -0.1269
   93loPI   GL2 1478  12.056  10.991  10.668  0.2330 -0.2235  0.0586
   93loPI   C1A 1479  12.405  10.564  10.402  0.3357 -0.1910  0.0060
   93loPI   C2A 1480  12.345  10.534   9.921 -0.0965 -0.1207 -0.1113
   93loPI   C3A 1481  12.269  10.444   9.481 -0.1828 -0.0785  0.0139
   93loPI   C4A 1482  12.341  10.408   8.976 -0.0583  0.0126 -0.1656
   93loPI   C5A 1483  12.780  10.442   8.738  0.2099  0.1250  0.1704
   93loPI   C6A 1484  13.218  10.538   8.631 -0.2739  0.3421  0.0572
   93loPI   C1B 1485  12.032  10.891  10.220 -0.0461  0.0125  0.2054
   93loPI   C2B 1486  11.993  10.816   9.765 -0.2673  0.2455  0.3521
   93loPI   C3B 1487  11.977  10.878   9.352 -0.3518  0.1712  0.2150
   93loPI   C4B 1488  11.990  10.776   8.902 -0.0830 -0.5512 -0.0351
   94loPI    C1 1489  16.441   6.214  11.689 -0.0048  0.0662  0.0284
   94loPI    C2 1490  16.738   6.034  11.888  0.0116 -0.0180 -0.0713
   94loPI    C3 1491  16.480   6.269  12.083  0.0069 -0.1278  0.0554
   94loPI   PO4 1492  16.544   6.286  11.493 -0.0988 -0.0697  0.0685
   94loPI   GL1 1493  16.448   5.958  11.182 -0.0211  0.0965 -0.2229
   94loPI   GL2 1494  16.192   5.860  10.959 -0.1363 -0.0325  0.1320
   94loPI   C1A 1495  16.595   6.021  10.766  0.1614  0.0544  0.0444
   94loPI   C2A 1496  16.656   5.989  10.371  0.0861 -0.1524 -0.1478
   94loPI   C3A 1497  16.736   6.067  10.062  0.0228  0.2065  0.0916
   94loPI   C4A 1498  16.753   6.053   9.673 -0.3283 -0.0011  0.2107
   94loPI   C5A 1499  16.631   6.174   9.356 -0.1677  0.0387 -0.0155
   94loPI   C6A 1500  16.567   6.085   8.973 -0.0169 -0.3908  0.3280
   94loPI   C1B 1501  16.166   5.743  10.513  0.0709 -0.0252  0.1622
   94loPI   C2B 1502  16.187   5.843  10.057  0.0010  0.0141 -0.0521
   94loPI   C3B 1503  16.241   5.889   9.583  0.3070 -0.0916  0.1525
   94loPI   C4B 1504  16.207   5.897   9.202  0.0918  0.0892 -0.0325
   95loPI    C1 1505  16.949  12.240  11.421  0.2176  0.1220 -0.0063
   95loPI    C2 1506  16.941  12.007  11.746 -0.0468  0.1970  0.0431
   95loPI    C3 1507  17.143  12.352  11.752  0.1295  0.0944  0.0550
   95loPI   PO4 1508  16.910  11.969  11.252  0.1039 -0.0474 -0.2466
   95loPI   GL1 1509  17.144  11.789  10.886 -0.3619  0.1701 -0.1474
   95loPI   GL2 1510  17.208  11.503  10.859 -0.0266 -0.0584  0.0280
   95loPI   C1A 1511  17.165  11.972  10.451 -0.1618 -0.0514 -0.0441
   95loPI   C2A 1512  17.236  12.016   9.938  0.3971  0.1035 -0.1899
   95loPI   C3A 1513  17.183  11.954   9.522  0.0254  0.1380  0.0974
   95loPI   C4A 1514  17.102  11.966   9.101  0.0646 -0.2566  0.0515
   95loPI   C5A 1515  17.094  11.987   8.680 -0.0706  0.3033 -0.0268
   95loPI   C6A 1516  16.880  12.149   8.420 -0.0314  0.0040  0.2256
   95loPI   C1B 1517  17.167  11.418  10.461 -0.2130  0.2007  0.1879
   95loPI   C2B 1518  17.098  11.350  10.121 -0.1116  0.0079 -0.2324
   95loPI   C3B 1519  17.108  11.366   9.703  0.0997 -0.0843  0.0609
   95loPI   C4B 1520  17.036  11.509   9.378  0.0187 -0.1566  0.0963
   96loPI    C1 1521   7.496   0.367  10.934 -0.0367  0.1841  0.1161
   96loPI    C2 1522   7.816   0.464  11.153  0.1060  0.2772 -0.1293
   96loPI    C3 1523   7.455   0.601  11.255  0.1313  0.1161  0.1884
   96loPI   PO4 1524   7.635   0.302  10.639 -0.2338 -0.1261 -0.1735
   96loPI   GL1 1525   7.536   0.186  10.193  0.1044 -0.2725  0.0532
   96loPI   GL2 1526   7.460  -0.058  10.162 -0.0517  0.0030  0.2381
   96loPI   C1A 1527   7.919   0.020   9.792  0.2087 -0.1158 -0.1464
   96loPI   C2A 1528   7.921   0.082   9.351 -0.0646  0.0101 -0.0412
   96loPI   C3A 1529   7.747   0.172   8.950 -0.3015 -0.1018  0.2295
   96loPI   C4A 1530   7.876   0.055   8.608 -0.1267 -0.2905  0.1616
   96loPI   C5A 1531   8.167  -0.107   8.241  0.0893  0.0761  0.1148
   96loPI   C6A 1532   8.288   0.069   7.844  0.0214  0.2414 -0.1755
   96loPI   C1B 1533   7.432   0.076   9.712  0.0629 -0.2149  0.0906
   96loPI   C2B 1534   7.420   0.302   9.396 -0.0459 -0.0634 -0.2856
   96loPI   C3B 1535   7.315   0.395   8.957 -0.0830  0.2837  0.2018
   96loPI   C4B 1536   7.345   0.591   8.636  0.1200  0.2889  0.0394
   97loPI    C1 1537  15.245   9.479  11.453 -0.0435  0.0374 -0.1268
   97loPI    C2 1538  15.323   9.157  11.677 -0.0649  0.0546 -0.0945
   97loPI    C3 1539  15.284   9.516  11.850 -0.0555  0.0721 -0.1287
   97loPI   PO4 1540  15.373   9.392  11.209  0.0763  0.0291 -0.0201
   97loPI   GL1 1541  15.358   9.392  10.729 -0.1590 -0.1221  0.2924
   97loPI   GL2 1542  15.224   9.223  10.806 -0.0215  0.2297  0.1004
   97loPI   C1A 1543  15.424   9.384  10.284  0.1852 -0.2071  0.0268
   97loPI   C2A 1544  15.353   9.353   9.824  0.0823 -0.1926 -0.1983
   97loPI   C3A 1545  15.460   9.363   9.396  0.0124 -0.0866  0.2770
   97loPI   C4A 1546  15.382   9.489   8.913  0.0707  0.2526  0.1192
   97loPI   C5A 1547  15.740   9.702   8.850 -0.3915 -0.0834 -0.4879
   97loPI   C6A 1548  16.089   9.830   8.765  0.1288  0.0268  0.0298
   97loPI   C1B 1549  14.931   9.214  10.448 -0.2728  0.2401  0.2210
   97loPI   C2B 1550  14.792   9.212   9.977  0.0336  0.0322  0.0727
   97loPI   C3B 1551  14.873   9.177   9.607 -0.0020  0.0604 -0.0949
   97loPI   C4B 1552  15.019   9.179   9.146 -0.1567  0.0803  0.1563
   98loPI    C1 1553  11.509  15.977  10.721 -0.0159 -0.0205  0.1481
   98loPI    C2 1554  11.841  16.120  10.893 -0.0170 -0.0995  0.2169
   98loPI    C3 1555  11.636  15.825  11.069 -0.0879 -0.0954  0.1419
   98loPI   PO4 1556  11.524  15.795  10.528  0.0399  0.1175 -0.0635
   98loPI   GL1 1557  11.678  15.506  10.240  0.0309 -0.1468  0.0327
   98loPI   GL2 1558  11.736  15.336  10.012  0.0774  0.1756  0.2763
   98loPI   C1A 1559  11.416  15.722   9.870 -0.0027  0.0073 -0.2188
   98loPI   C2A 1560  11.462  15.778   9.405  0.0889 -0.0975 -0.0497
   98loPI   C3A 1561  11.553  15.949   8.954  0.3874  0.0462  0.2451
   98loPI   C4A 1562  11.838  16.159   8.611  0.1521  0.0416 -0.0403
   98loPI   C5A 1563  12.166  16.282   8.435  0.1060  0.1504 -0.1663
   98loPI   C6A 1564  12.370  16.247   8.056  0.0988 -0.0473  0.1278
   98loPI   C1B 1565  11.600  15.332   9.586 -0.0443  0.2927  0.3127
   98loPI   C2B 1566  11.601  15.382   9.175 -0.2109  0.0955  0.2631
   98loPI   C3B 1567  11.679  15.544   8.765 -0.2182 -0.0282 -0.0900
   98loPI   C4B 1568  11.548  15.818   8.416 -0.0119  0.0189  0.1376
   99loPI    C1 1569  12.494  15.149  11.016  0.1863  0.1496 -0.1641
   99loPI    C2 1570  12.690  15.402  11.256  0.0957 -0.0581  0.1347
   99loPI    C3 1571  12.350  15.232  11.380  0.0933 -0.2357 -0.1087
   99loPI   PO4 1572  12.730  15.087  10.887 -0.0008 -0.1834  0.0075
   99loPI   GL1 1573  12.861  14.803  10.541 -0.0139  0.2271 -0.0777
   99loPI   GL2 1574  13.092  14.953  10.514  0.2554  0.0132  0.0602
   99loPI   C1A 1575  12.865  14.623  10.139 -0.3823 -0.1652 -0.0595
   99loPI   C2A 1576  12.882  14.774   9.682 -0.0555  0.0454 -0.2494
   99loPI   C3A 1577  12.833  14.698   9.237  0.3109 -0.2334  0.0209
   99loPI   C4A 1578  13.037  14.716   8.883  0.0327 -0.2596 -0.1067
   99loPI   C5A 1579  13.128  14.991   8.538 -0.2522 -0.0374 -0.1336
   99loPI   C6A 1580  13.238  15.361   8.416  0.3021 -0.2542  0.1429
   99loPI   C1B 1581  13.003  15.153  10.195 -0.2005 -0.2068  0.0584
   99loPI   C2B 1582  12.958  15.285   9.812 -0.0800 -0.0896 -0.0510
   99loPI   C3B 1583  12.895  15.176   9.398  0.2734  0.1945  0.0185
   99loPI   C4B 1584  12.953  15.256   8.913 -0.2705  0.1736 -0.1975
  100loPI    C1 1585  15.413  10.982  11.410 -0.1878 -0.1975  0.1181
  100loPI    C2 1586  15.644  10.893  11.724 -0.1084 -0.1443  0.0751
  100loPI    C3 1587  15.667  11.255  11.556 -0.0191 -0.2324 -0.1053
  100loPI   PO4 1588  15.446  10.762  11.284 -0.3399  0.0530  0.2733
  100loPI   GL1 1589  15.569  10.709  10.867  0.2810 -0.3326 -0.1349
  100loPI   GL2 1590  15.373  10.438  10.857 -0.0498  0.2093 -0.0285
  100loPI   C1A 1591  15.674  10.829  10.552  0.2266  0.1868  0.1789
  100loPI   C2A 1592  15.577  10.878  10.207  0.0515 -0.1551  0.0143
  100loPI   C3A 1593  15.579  10.900   9.789  0.0306  0.2958 -0.2193
  100loPI   C4A 1594  15.509  10.901   9.364  0.0444  0.1952 -0.0294
  100loPI   C5A 1595  15.556  10.912   8.956  0.2953 -0.0381  0.1274
  100loPI   C6A 1596  15.291  11.095   8.611 -0.0991 -0.0019 -0.2991
  100loPI   C1B 1597  15.491  10.333  10.465  0.1968 -0.0339  0.3635
  100loPI   C2B 1598  15.514  10.385  10.013  0.2660 -0.0882  0.3423
  100loPI   C3B 1599  15.559  10.332   9.556 -0.0124  0.1914 -0.0407
  100loPI   C4B 1600  15.556  10.386   9.067  0.1962  0.1055  0.4103
  101loPI    C1 1601   8.026  17.512  10.754 -0.0666  0.3175 -0.2823
  101loPI    C2 1602   7.812  17.527  11.091  0.0000  0.1028 -0.2290
  101loPI    C3 1603   8.156  17.729  11.063  0.1447 -0.1144 -0.0584
  101loPI   PO4 1604   7.868  17.453  10.554 -0.0601 -0.1495  0.0142
  101loPI   GL1 1605   7.830  17.233  10.269  0.0460  0.2066 -0.0950
  101loPI   GL2 1606   7.806  16.954  10.249  0.1095  0.1870  0.0354
  101loPI   C1A 1607   7.644  17.213   9.830  0.0036  0.4106  0.4556
  101loPI   C2A 1608   7.607  17.315   9.384  0.0194 -0.1341  0.0630
  101loPI   C3A 1609   7.700  17.332   8.997 -0.1186  0.0610 -0.1566
  101loPI   C4A 1610   7.444  17.217   8.638 -0.0263  0.0547  0.0101
  101loPI   C5A 1611   7.016  17.124   8.552 -0.0890  0.1496 -0.1872
  101loPI   C6A 1612   6.584  17.047   8.443 -0.1463  0.0494  0.2491
  101loPI   C1B 1613   7.812  16.729   9.825  0.1947 -0.0749 -0.0654
  101loPI   C2B 1614   7.828  16.877   9.451  0.0086  0.1303  0.2144
  101loPI   C3B 1615   7.634  16.830   8.984 -0.0664  0.0323  0.0782
  101loPI   C4B 1616   7.382  16.698   8.656 -0.0312 -0.2732 -0.4420
  102loPI    C1 1617  17.486   0.764  11.300  0.1201 -0.2441  0.1706
  102loPI    C2 1618  17.311   0.740  11.659  0.2226  0.0664  0.2447
  102loPI    C3 1619  17.674   0.584  11.603  0.0871 -0.2385  0.1944
  102loPI   PO4 1620  17.508   0.965  11.221 -0.1720 -0.1481 -0.2011
  102loPI   GL1 1621  17.672   0.931  10.866  0.2596  0.3556  0.0991
  102loPI   GL2 1622  17.478   1.237  10.770 -0.2346 -0.2579  0.1787
  102loPI   C1A 1623  17.939   1.148  10.525  0.1896  0.0271 -0.0709
  102loPI   C2A 1624  18.020   1.261  10.116 -0.1121  0.2185 -0.0841
  102loPI   C3A 1625  18.078   1.344   9.650  0.1276  0.1572 -0.0598
  102loPI   C4A 1626  18.147   1.216   9.248 -0.2714 -0.1825  0.1965
  102loPI   C5A 1627  18.390   1.412   8.927 -0.2985  0.1744  0.1121
  102loPI   C6A 1628  18.687   1.558   8.681  0.3533  0.2136 -0.2927
  102loPI   C1B 1629  17.507   1.178  10.348  0.1960  0.2075  0.1195
  102loPI   C2B 1630  17.520   1.123   9.890  0.0814 -0.1081 -0.2747
  102loPI   C3B 1631  17.641   1.090   9.449  0.0435  0.0156  0.1102
  102loPI   C4B 1632  17.641   1.088   9.038 -0.2662  0.2325 -0.0474
  103loPI    C1 1633  15.735   8.166  11.655 -0.1284  0.2409  0.0206
  103loPI    C2 1634  15.723   8.013  12.024 -0.1677  0.0303 -0.0668
  103loPI    C3 1635  15.437   8.264  11.903 -0.2701 -0.0652 -0.0249
  103loPI   PO4 1636  15.768   7.951  11.507  0.1585  0.3537 -0.1164
  103loPI   GL1 1637  15.732   7.970  11.106 -0.0083  0.3409 -0.0409
  103loPI   GL2 1638  15.536   7.932  11.000  0.0746 -0.0215  0.2841
  103loPI   C1A 1639  15.970   7.740  10.784 -0.0819  0.0777  0.1607
  103loPI   C2A 1640  16.128   7.673  10.353 -0.0727 -0.0442 -0.1406
  103loPI   C3A 1641  16.108   7.666   9.939  0.0201 -0.1291 -0.2026
  103loPI   C4A 1642  16.041   7.765   9.485  0.1076 -0.3236  0.3539
  103loPI   C5A 1643  16.114   7.772   9.071 -0.0920  0.0686 -0.0809
  103loPI   C6A 1644  16.007   7.857   8.671  0.0628 -0.1252 -0.0474
  103loPI   C1B 1645  15.569   8.088  10.586 -0.0471 -0.0144 -0.3464
  103loPI   C2B 1646  15.596   8.071  10.148  0.0570  0.1213 -0.0010
  103loPI   C3B 1647  15.627   8.039   9.683  0.2687  0.3656 -0.4174
  103loPI   C4B 1648  15.631   8.012   9.218  0.1070  0.0317  0.0805
  104loPI    C1 1649   5.743  12.354  11.222  0.0381  0.1176  0.0878
  104loPI    C2 1650   6.031  12.402  11.495  0.2653  0.1927 -0.1600
  104loPI    C3 1651   5.846  12.721  11.341 -0.0916  0.1382  0.1383
  104loPI   PO4 1652   5.792  12.222  11.016 -0.4022 -0.1338  0.1283
  104loPI   GL1 1653   5.547  12.174  10.713 -0.0282 -0.0115 -0.2767
  104loPI   GL2 1654   5.851  12.284  10.541 -0.0735 -0.0595  0.1400
  104loPI   C1A 1655   5.358  12.077  10.344 -0.0917  0.0191  0.0037
  104loPI   C2A 1656   5.371  11.912   9.922 -0.1675  0.0682 -0.1602
  104loPI   C3A 1657   5.434  11.962   9.441 -0.0716 -0.0006  0.0613
  104loPI   C4A 1658   5.440  12.064   8.945  0.1094 -0.1137  0.1637
  104loPI   C5A 1659   5.167  11.893   8.571  0.1446 -0.0255  0.5018
  104loPI   C6A 1660   4.951  11.542   8.406 -0.2977 -0.0333 -0.1505
  104loPI   C1B 1661   5.854  12.204  10.098 -0.1341  0.1054 -0.1732
  104loPI   C2B 1662   5.828  12.080   9.696  0.1522 -0.0072 -0.0753
  104loPI   C3B 1663   5.834  12.132   9.241 -0.3899  0.0708  0.0295
  104loPI   C4B 1664   5.919  12.225   8.811  0.2193  0.1952  0.1270
  105loPI    C1 1665   4.587   0.320  11.297 -0.0229  0.1696  0.0683
  105loPI    C2 1666   4.251   0.536  11.315 -0.1935 -0.0913  0.0868
  105loPI    C3 1667   4.325   0.259  11.593  0.1710  0.1492  0.2375
  105loPI   PO4 1668   4.655   0.382  10.995 -0.1359 -0.0302  0.0361
  105loPI   GL1 1669   4.821   0.279  10.575 -0.0257  0.0543 -0.1420
  105loPI   GL2 1670   4.471   0.291  10.479 -0.0506  0.2319  0.1340
  105loPI   C1A 1671   4.901   0.062  10.136  0.0796 -0.3499 -0.0690
  105loPI   C2A 1672   4.782  -0.021   9.761 -0.0067  0.0555  0.1557
  105loPI   C3A 1673   4.833   0.050   9.298 -0.0399  0.1218 -0.1503
  105loPI   C4A 1674   4.815   0.213   8.881  0.1852  0.0229  0.0949
  105loPI   C5A 1675   4.830   0.510   8.644  0.0173  0.1227  0.0368
  105loPI   C6A 1676   4.974   0.898   8.672  0.0953 -0.0898  0.0054
  105loPI   C1B 1677   4.509   0.414  10.101  0.2002  0.0328 -0.0430
  105loPI   C2B 1678   4.521   0.359   9.647  0.0927 -0.1007  0.1347
  105loPI   C3B 1679   4.500   0.500   9.255 -0.0492 -0.1045  0.2751
  105loPI   C4B 1680   4.397   0.640   8.807 -0.1678 -0.1948  0.0549
  106loPI    C1 1681   1.926   1.901  11.453 -0.0494 -0.1820  0.2115
  106loPI    C2 1682   2.164   1.924  11.774  0.1495  0.0659  0.0499
  106loPI    C3 1683   1.768   1.888  11.820  0.1925 -0.0789  0.3213
  106loPI   PO4 1684   2.040   2.078  11.255 -0.1791  0.3814 -0.2123
  106loPI   GL1 1685   2.189   1.893  10.919  0.0645 -0.4292  0.4352
  106loPI   GL2 1686   2.457   1.806  10.676 -0.0905  0.2107 -0.0524
  106loPI   C1A 1687   1.979   1.679  10.542  0.0626  0.0365 -0.2981
  106loPI   C2A 1688   1.941   1.877  10.111  0.0532 -0.0018  0.0226
  106loPI   C3A 1689   1.919   1.881   9.668  0.2915  0.0599  0.0017
  106loPI   C4A 1690   1.941   1.816   9.242 -0.2087  0.2064 -0.1132
  106loPI   C5A 1691   1.923   2.143   8.882 -0.2035 -0.2951  0.0347
  106loPI   C6A 1692   2.212   2.381   8.750  0.2579 -0.3342 -0.2105
  106loPI   C1B 1693   2.537   1.997  10.306 -0.0118 -0.1846 -0.1000
  106loPI   C2B 1694   2.485   2.089   9.980  0.2068  0.3225 -0.0800
  106loPI   C3B 1695   2.369   2.018   9.575  0.1760 -0.1054 -0.1446
  106loPI   C4B 1696   2.396   2.120   9.143 -0.0194 -0.0623  0.1822
  107loPI    C1 1697   5.932  13.623  11.135 -0.1675 -0.0185 -0.0447
  107loPI    C2 1698   5.752  13.827  11.429 -0.1367 -0.1524  0.0685
  107loPI    C3 1699   6.063  13.589  11.512  0.0237 -0.0082 -0.1095
  107loPI   PO4 1700   5.815  13.837  10.930  0.0883  0.0975 -0.0074
  107loPI   GL1 1701   5.862  13.864  10.439  0.2209 -0.1495  0.2069
  107loPI   GL2 1702   5.908  13.525  10.402  0.1565  0.1748  0.0798
  107loPI   C1A 1703   5.874  14.014  10.015  0.2376  0.1549  0.0667
  107loPI   C2A 1704   5.721  13.963   9.755 -0.0690 -0.0117  0.2334
  107loPI   C3A 1705   5.643  14.018   9.328  0.1379  0.2196 -0.2425
  107loPI   C4A 1706   5.708  14.083   8.849  0.0434 -0.1569  0.3032
  107loPI   C5A 1707   5.747  14.152   8.399 -0.1255 -0.0757 -0.2287
  107loPI   C6A 1708   5.668  13.855   7.978  0.2083  0.2313 -0.0033
  107loPI   C1B 1709   5.668  13.511  10.034 -0.2898 -0.1398 -0.0921
  107loPI   C2B 1710   5.618  13.416   9.615  0.1497 -0.1577  0.2389
  107loPI   C3B 1711   5.519  13.534   9.137  0.0319  0.3088  0.3045
  107loPI   C4B 1712   5.648  13.616   8.686  0.0411  0.2106  0.0807
  108loPI    C1 1713   2.531  15.071  11.245 -0.2779  0.1857  0.1072
  108loPI    C2 1714   2.422  15.448  11.166 -0.1717  0.2017  0.0342
  108loPI    C3 1715   2.684  15.373  11.458 -0.0784  0.1976 -0.0501
  108loPI   PO4 1716   2.482  15.025  10.954 -0.1347 -0.0124  0.1497
  108loPI   GL1 1717   2.489  14.719  10.759 -0.0773  0.0637  0.3707
  108loPI   GL2 1718   2.419  14.482  10.707 -0.1578 -0.1152 -0.1302
  108loPI   C1A 1719   2.688  14.697  10.289  0.0850 -0.1826 -0.1811
  108loPI   C2A 1720   2.710  14.753   9.885  0.1954  0.4298  0.3925
  108loPI   C3A 1721   2.624  14.762   9.448 -0.1550 -0.0110  0.0397
  108loPI   C4A 1722   2.556  14.649   9.040  0.0662  0.4256 -0.3486
  108loPI   C5A 1723   2.455  14.396   8.662 -0.0977 -0.1360  0.0702
  108loPI   C6A 1724   2.372  13.971   8.519 -0.1095  0.1350  0.0575
  108loPI   C1B 1725   2.517  14.196  10.417 -0.1461  0.0850 -0.1400
  108loPI   C2B 1726   2.668  14.243   9.962  0.1750  0.1572 -0.2018
  108loPI   C3B 1727   2.655  14.183   9.578 -0.1011 -0.0075  0.1518
  108loPI   C4B 1728   2.540  14.224   9.286  0.1726  0.0558 -0.0205
  109loPI    C1 1729   0.152   1.668  11.096 -0.0981  0.0611  0.2230
  109loPI    C2 1730   0.426   1.385  11.031 -0.1251  0.0436  0.1856
  109loPI    C3 1731   0.186   1.360  11.350 -0.2239 -0.0515  0.1048
  109loPI   PO4 1732   0.312   1.880  11.023 -0.0549 -0.1848 -0.1125
  109loPI   GL1 1733   0.508   1.835  10.597 -0.3071 -0.1185 -0.1799
  109loPI   GL2 1734   0.187   1.631  10.544  0.1690 -0.2089 -0.2056
  109loPI   C1A 1735   0.471   1.862  10.182  0.2765  0.0224  0.0645
  109loPI   C2A 1736   0.504   1.812   9.782 -0.1469  0.0854 -0.1022
  109loPI   C3A 1737   0.536   1.804   9.328  0.0195  0.3794  0.1246
  109loPI   C4A 1738   0.604   1.946   8.940 -0.0985 -0.0674 -0.0854
  109loPI   C5A 1739   0.946   1.997   8.626  0.0088 -0.0773 -0.1825
  109loPI   C6A 1740   1.203   2.328   8.442  0.1961  0.2562  0.1157
  109loPI   C1B 1741  -0.018   1.646  10.177  0.0593  0.1631  0.1368
  109loPI   C2B 1742   0.021   1.585   9.754 -0.2387 -0.1414 -0.1514
  109loPI   C3B 1743   0.098   1.554   9.301  0.0262 -0.2100  0.1715
  109loPI   C4B 1744   0.325   1.570   8.831  0.0531  0.4680  0.1372
  110loPI    C1 1745  13.966   0.876  11.023  0.0904  0.2515 -0.0614
  110loPI    C2 1746  14.281   0.867  11.270 -0.2152 -0.0436  0.3322
  110loPI    C3 1747  13.911   0.821  11.416 -0.4300  0.0954 -0.1481
  110loPI   PO4 1748  14.067   0.898  10.781 -0.0682  0.0472  0.0016
  110loPI   GL1 1749  13.907   0.833  10.434 -0.0163 -0.2774 -0.1472
  110loPI   GL2 1750  14.263   0.657  10.381  0.1303  0.0867  0.1694
  110loPI   C1A 1751  13.687   0.996  10.106  0.0740 -0.2851  0.2358
  110loPI   C2A 1752  13.809   1.070   9.697  0.1371  0.2941  0.0105
  110loPI   C3A 1753  13.974   1.086   9.346  0.1120  0.0569  0.2279
  110loPI   C4A 1754  14.084   1.113   8.926  0.0387 -0.1697 -0.0932
  110loPI   C5A 1755  14.129   1.152   8.511  0.2652 -0.0498  0.0377
  110loPI   C6A 1756  14.307   1.403   8.239  0.4373 -0.0856  0.2476
  110loPI   C1B 1757  14.174   0.782   9.984  0.4181  0.3967 -0.2599
  110loPI   C2B 1758  14.284   0.756   9.579 -0.3257  0.3333  0.1846
  110loPI   C3B 1759  14.427   0.793   9.300  0.1981 -0.0822  0.0815
  110loPI   C4B 1760  14.600   0.805   8.900 -0.0347 -0.1041 -0.0977
  111loPI    C1 1761  15.018   8.388  11.532  0.1466  0.2282 -0.1034
  111loPI    C2 1762  15.056   8.711  11.765 -0.1871  0.2048 -0.0116
  111loPI    C3 1763  14.785   8.431  11.854 -0.0742  0.0217 -0.2328
  111loPI   PO4 1764  14.951   8.474  11.295  0.1871 -0.0192 -0.1009
  111loPI   GL1 1765  15.151   8.334  10.892  0.1187  0.1090 -0.3204
  111loPI   GL2 1766  15.331   8.685  10.901  0.0639 -0.0871  0.0614
  111loPI   C1A 1767  15.178   8.353  10.471  0.0309  0.0516  0.1087
  111loPI   C2A 1768  15.196   8.417  10.100 -0.0517  0.1968 -0.1510
  111loPI   C3A 1769  15.247   8.350   9.697  0.3922 -0.0049 -0.1925
  111loPI   C4A 1770  15.267   8.332   9.199  0.0195  0.3675  0.2076
  111loPI   C5A 1771  15.025   8.577   8.818  0.1425  0.1132  0.0134
  111loPI   C6A 1772  15.113   8.954   8.616 -0.4695  0.1391  0.2177
  111loPI   C1B 1773  15.300   8.827  10.493 -0.3330 -0.0673 -0.1061
  111loPI   C2B 1774  15.258   8.904  10.094  0.2725 -0.0130 -0.1639
  111loPI   C3B 1775  15.335   8.877   9.697  0.1040  0.0765  0.0239
  111loPI   C4B 1776  15.398   8.834   9.201 -0.0208  0.0830 -0.1019
  112loPI    C1 1777   2.904  12.663  11.702  0.3467 -0.0294  0.1191
  112loPI    C2 1778   2.663  12.380  11.852  0.3688 -0.0704  0.0776
  112loPI    C3 1779   2.605  12.765  11.947  0.1998 -0.0652 -0.0433
  112loPI   PO4 1780   2.930  12.600  11.364  0.0974  0.2643 -0.1810
  112loPI   GL1 1781   2.922  12.356  10.990 -0.0547 -0.1288  0.0185
  112loPI   GL2 1782   3.207  12.540  10.882  0.0351 -0.0208  0.1558
  112loPI   C1A 1783   2.794  12.310  10.573 -0.1571  0.2089 -0.1158
  112loPI   C2A 1784   2.791  12.322  10.130 -0.0513  0.2610  0.0148
  112loPI   C3A 1785   2.830  12.357   9.654  0.0350 -0.0291  0.1601
  112loPI   C4A 1786   2.863  12.400   9.187 -0.0601  0.0106  0.1925
  112loPI   C5A 1787   3.003  12.476   8.750 -0.1953 -0.1689  0.0178
  112loPI   C6A 1788   3.437  12.232   8.581  0.1115 -0.0714 -0.1903
  112loPI   C1B 1789   3.217  12.582  10.397  0.0740 -0.0341  0.2726
  112loPI   C2B 1790   3.267  12.487   9.938  0.0499 -0.4272  0.0910
  112loPI   C3B 1791   3.293  12.611   9.538  0.0246 -0.1262 -0.1256
  112loPI   C4B 1792   3.366  12.597   9.094 -0.0703 -0.0317 -0.3265
  113loPI    C1 1793  14.562   8.931  11.770  0.1163 -0.0666  0.1383
  113loPI    C2 1794  14.868   9.180  11.841  0.0126  0.1660 -0.2036
  113loPI    C3 1795  14.734   8.939  12.131  0.4479  0.1380 -0.0187
  113loPI   PO4 1796  14.650   8.849  11.534 -0.1930 -0.1174  0.6529
  113loPI   GL1 1797  14.613   8.722  11.095  0.2573  0.0769 -0.1348
  113loPI   GL2 1798  14.843   8.740  10.837 -0.3231 -0.6094 -0.0431
  113loPI   C1A 1799  14.374   8.512  10.744  0.1194  0.1739  0.0391
  113loPI   C2A 1800  14.321   8.458  10.385  0.1777 -0.3816 -0.0759
  113loPI   C3A 1801  14.413   8.466   9.970 -0.1102  0.2049 -0.1143
  113loPI   C4A 1802  14.332   8.514   9.477 -0.0575 -0.1153 -0.0852
  113loPI   C5A 1803  14.292   8.357   9.064 -0.1179  0.2299  0.0929
  113loPI   C6A 1804  14.344   8.574   8.753  0.2271  0.1035 -0.1093
  113loPI   C1B 1805  14.811   8.649  10.373 -0.3386  0.0136  0.2379
  113loPI   C2B 1806  14.825   8.679   9.938  0.1895 -0.1245  0.0911
  113loPI   C3B 1807  14.851   8.691   9.459 -0.0268  0.0304  0.0588
  113loPI   C4B 1808  14.705   8.801   9.070 -0.1549 -0.1434 -0.4185
  114loPI    C1 1809   3.250   4.486  11.269 -0.0566  0.0665 -0.0312
  114loPI    C2 1810   3.455   4.432  11.608 -0.0363  0.1333 -0.0328
  114loPI    C3 1811   3.111   4.636  11.613 -0.0570  0.0989 -0.0453
  114loPI   PO4 1812   3.231   4.318  11.093 -0.0510 -0.0219  0.1015
  114loPI   GL1 1813   3.466   3.939  10.905  0.0606 -0.2212  0.0694
  114loPI   GL2 1814   3.343   4.159  10.655 -0.3088 -0.0054 -0.1153
  114loPI   C1A 1815   3.709   3.852  10.520 -0.0907  0.4276  0.1318
  114loPI   C2A 1816   3.676   3.954  10.142 -0.1655 -0.3201  0.1539
  114loPI   C3A 1817   3.669   3.825   9.686  0.0824  0.2101  0.0803
  114loPI   C4A 1818   3.692   4.025   9.237  0.0646  0.0292  0.0754
  114loPI   C5A 1819   3.666   3.985   8.820 -0.3369  0.2634  0.3395
  114loPI   C6A 1820   3.922   3.889   8.397  0.0168 -0.2411 -0.1282
  114loPI   C1B 1821   3.319   4.332  10.258  0.0768 -0.3132 -0.0068
  114loPI   C2B 1822   3.368   4.237   9.830 -0.0165 -0.1887 -0.1719
  114loPI   C3B 1823   3.358   4.364   9.444  0.0867  0.0179 -0.0046
  114loPI   C4B 1824   3.286   4.226   8.983  0.1547  0.2354 -0.1064
  115loPI    C1 1825   1.034  10.333  11.353  0.2604 -0.0205  0.1478
  115loPI    C2 1826   0.821  10.671  11.357  0.2695 -0.0085 -0.1585
  115loPI    C3 1827   0.931  10.500  11.701 -0.3613 -0.0955  0.0112
  115loPI   PO4 1828   0.872  10.214  11.124 -0.3764  0.1895  0.1617
  115loPI   GL1 1829   0.630  10.248  10.814 -0.2631 -0.1548 -0.0320
  115loPI   GL2 1830   0.536   9.891  10.627  0.5257 -0.1691  0.0382
  115loPI   C1A 1831   0.761  10.437  10.433  0.3462  0.2459 -0.1848
  115loPI   C2A 1832   0.726  10.525   9.980 -0.5146  0.1231  0.2494
  115loPI   C3A 1833   0.680  10.486   9.487  0.0542  0.0423  0.3724
  115loPI   C4A 1834   0.558  10.426   9.023  0.2950 -0.0175 -0.2640
  115loPI   C5A 1835   0.426  10.493   8.646 -0.0881  0.0470  0.0345
  115loPI   C6A 1836   0.167  10.361   8.256 -0.1669  0.4378  0.2553
  115loPI   C1B 1837   0.604   9.999  10.201  0.0060  0.0308  0.0664
  115loPI   C2B 1838   0.530   9.974   9.747 -0.2552 -0.0045  0.0024
  115loPI   C3B 1839   0.530  10.010   9.244  0.1862  0.0670  0.1255
  115loPI   C4B 1840   0.603   9.945   8.772 -0.0538 -0.3096 -0.1058
  116loPI    C1 1841   4.212  11.720  11.288  0.1175 -0.2661 -0.1149
  116loPI    C2 1842   4.076  11.362  11.170 -0.2926 -0.1303 -0.0682
  116loPI    C3 1843   4.105  11.447  11.560 -0.0308 -0.1716 -0.0772
  116loPI   PO4 1844   4.370  11.795  11.029  0.2835 -0.4001  0.2162
  116loPI   GL1 1845   4.212  11.807  10.675  0.1539  0.0150 -0.0090
  116loPI   GL2 1846   3.894  11.694  10.863  0.1324  0.4249  0.0560
  116loPI   C1A 1847   4.047  11.951  10.246  0.0538  0.1490 -0.2072
  116loPI   C2A 1848   4.085  11.834   9.790  0.1033 -0.1123  0.1420
  116loPI   C3A 1849   4.022  11.987   9.337 -0.1258  0.2089 -0.1918
  116loPI   C4A 1850   4.118  12.065   8.822 -0.0689 -0.2822 -0.2963
  116loPI   C5A 1851   4.075  12.511   8.597 -0.0400  0.1551  0.0637
  116loPI   C6A 1852   4.373  12.843   8.455  0.0786  0.0397  0.3106
  116loPI   C1B 1853   4.033  11.410  10.516  0.0079  0.0347 -0.1399
  116loPI   C2B 1854   3.976  11.339  10.188  0.0352 -0.0212 -0.0087
  116loPI   C3B 1855   3.940  11.360   9.740 -0.1936  0.0805 -0.1257
  116loPI   C4B 1856   3.984  11.529   9.421 -0.2087  0.2177 -0.0505
  117loPI    C1 1857   3.027  11.161  11.683  0.0869  0.2823 -0.1516
  117loPI    C2 1858   2.758  11.344  11.916  0.1483  0.2472 -0.0529
  117loPI    C3 1859   3.010  11.075  12.073  0.2860  0.3289 -0.1313
  117loPI   PO4 1860   3.163  11.358  11.608  0.1331 -0.1316  0.0067
  117loPI   GL1 1861   3.136  11.339  11.121 -0.2285 -0.2483 -0.0036
  117loPI   GL2 1862   3.500  11.303  11.177 -0.0537 -0.3317  0.1404
  117loPI   C1A 1863   3.145  11.459  10.672  0.0424  0.0583  0.0391
  117loPI   C2A 1864   3.041  11.490  10.258  0.0311 -0.0638 -0.0736
  117loPI   C3A 1865   3.110  11.494   9.767 -0.0628  0.0513  0.1197
  117loPI   C4A 1866   3.005  11.585   9.323 -0.0024  0.0929 -0.2625
  117loPI   C5A 1867   2.883  11.631   8.806  0.3001 -0.0705 -0.1287
  117loPI   C6A 1868   3.189  11.709   8.503  0.2691 -0.2699  0.2623
  117loPI   C1B 1869   3.607  11.282  10.751 -0.0009 -0.0236  0.0396
  117loPI   C2B 1870   3.536  11.085  10.452 -0.2588 -0.1140  0.1266
  117loPI   C3B 1871   3.485  11.204  10.004  0.2455  0.2032 -0.1987
  117loPI   C4B 1872   3.477  11.210   9.546  0.1851 -0.0585 -0.1218
  118loPI    C1 1873  10.088   9.821  11.198  0.0310  0.0030 -0.1089
  118loPI    C2 1874  10.141   9.460  11.034  0.1783  0.0126 -0.0842
  118loPI    C3 1875  10.029   9.491  11.417 -0.0141 -0.0082 -0.1377
  118loPI   PO4 1876   9.970   9.931  11.054 -0.3216 -0.1395  0.2037
  118loPI   GL1 1877   9.761   9.787  10.777 -0.0921 -0.0596 -0.0814
  118loPI   GL2 1878  10.036   9.606  10.583 -0.1114  0.0393  0.1289
  118loPI   C1A 1879   9.570   9.969  10.355  0.2394  0.2359 -0.1770
  118loPI   C2A 1880   9.608   9.891   9.959 -0.1320  0.1129 -0.0886
  118loPI   C3A 1881   9.627   9.874   9.606 -0.2406  0.3383  0.2875
  118loPI   C4A 1882   9.446   9.764   9.191  0.2730  0.1686 -0.2152
  118loPI   C5A 1883   9.556   9.882   8.834  0.2413  0.2912  0.0071
  118loPI   C6A 1884   9.686   9.735   8.520 -0.2253 -0.2517  0.1203
  118loPI   C1B 1885   9.941   9.564  10.164  0.1774  0.0351  0.0988
  118loPI   C2B 1886  10.002   9.512   9.749  0.3816  0.1960  0.1979
  118loPI   C3B 1887   9.929   9.552   9.333  0.1009 -0.0577 -0.1582
  118loPI   C4B 1888   9.725   9.430   8.906  0.0030  0.1886 -0.1382
  119loPI    C1 1889  15.619   6.049  11.755 -0.0363 -0.0027  0.0833
  119loPI    C2 1890  15.338   5.901  11.999 -0.2551  0.0148 -0.1534
  119loPI    C3 1891  15.725   5.828  12.071 -0.3219 -0.0580  0.1435
  119loPI   PO4 1892  15.517   6.010  11.486  0.0828  0.1112  0.3404
  119loPI   GL1 1893  15.633   6.100  11.080 -0.0730  0.3797  0.0471
  119loPI   GL2 1894  15.395   6.001  10.998  0.0961  0.0548 -0.3699
  119loPI   C1A 1895  15.822   6.215  10.733  0.0726 -0.0110  0.0617
  119loPI   C2A 1896  15.911   6.206  10.356  0.1898 -0.1511  0.1172
  119loPI   C3A 1897  15.831   6.243   9.897 -0.2306  0.1862  0.1890
  119loPI   C4A 1898  15.792   6.211   9.385 -0.1329  0.4038 -0.1374
  119loPI   C5A 1899  15.845   6.187   8.957 -0.3811  0.0793 -0.1917
  119loPI   C6A 1900  16.077   6.387   8.612 -0.0515  0.3705 -0.2127
  119loPI   C1B 1901  15.287   5.982  10.638 -0.0283 -0.0886  0.0067
  119loPI   C2B 1902  15.385   5.959  10.184 -0.0727  0.4197 -0.1585
  119loPI   C3B 1903  15.337   6.030   9.698  0.1915 -0.0449 -0.2208
  119loPI   C4B 1904  15.326   6.018   9.170 -0.0015 -0.1900  0.0937
  120loPI    C1 1905   3.269   9.680  11.618 -0.0839 -0.1654  0.0297
  120loPI    C2 1906   3.351  10.071  11.618 -0.2519 -0.1265 -0.3174
  120loPI    C3 1907   3.253   9.888  11.960 -0.1535  0.1288 -0.1488
  120loPI   PO4 1908   3.565   9.609  11.389  0.1076 -0.0761 -0.1942
  120loPI   GL1 1909   3.678   9.787  10.986 -0.1085  0.1912 -0.1542
  120loPI   GL2 1910   3.906   9.866  10.924  0.3899 -0.1741 -0.0914
  120loPI   C1A 1911   3.408   9.611  10.722  0.0928 -0.1722 -0.1717
  120loPI   C2A 1912   3.313   9.588  10.281 -0.0521 -0.2397 -0.0407
  120loPI   C3A 1913   3.203   9.757   9.886 -0.0437  0.0029  0.1148
  120loPI   C4A 1914   3.212   9.643   9.493  0.2885  0.0840 -0.0636
  120loPI   C5A 1915   3.221   9.624   9.025 -0.2083 -0.0192  0.2332
  120loPI   C6A 1916   3.099   9.953   8.638 -0.2482  0.0597 -0.1928
  120loPI   C1B 1917   3.847   9.840  10.522 -0.1916 -0.0692 -0.1699
  120loPI   C2B 1918   3.781   9.917  10.108 -0.1628  0.1752  0.0828
  120loPI   C3B 1919   3.679   9.860   9.769 -0.0617  0.2074  0.2556
  120loPI   C4B 1920   3.664   9.903   9.389  0.0880 -0.1232 -0.1745
  121loPI    C1 1921  10.962  14.631  10.954 -0.2617 -0.1077  0.1230
  121loPI    C2 1922  10.590  14.539  11.069 -0.2416 -0.0828  0.2087
  121loPI    C3 1923  10.898  14.468  11.314 -0.1696 -0.2732  0.0658
  121loPI   PO4 1924  11.044  14.488  10.727 -0.1757  0.0476 -0.0813
  121loPI   GL1 1925  11.147  14.591  10.295 -0.0532  0.1323  0.2187
  121loPI   GL2 1926  10.965  14.728  10.017 -0.0443  0.2982 -0.2570
  121loPI   C1A 1927  11.522  14.396   9.994  0.3466  0.2761  0.0410
  121loPI   C2A 1928  11.531  14.310   9.600  0.0886  0.1562 -0.2594
  121loPI   C3A 1929  11.503  14.010   9.238  0.2613 -0.0927 -0.0071
  121loPI   C4A 1930  11.583  13.923   8.843  0.0591  0.1238  0.0417
  121loPI   C5A 1931  11.845  13.884   8.461 -0.0027  0.2476  0.0372
  121loPI   C6A 1932  11.704  13.720   8.033  0.0043 -0.1091 -0.0045
  121loPI   C1B 1933  11.038  14.375   9.814 -0.1393  0.2199  0.2842
  121loPI   C2B 1934  11.103  14.437   9.377  0.0260 -0.1005 -0.0335
  121loPI   C3B 1935  11.157  14.269   8.945  0.0853  0.1079 -0.1318
  121loPI   C4B 1936  10.994  14.249   8.481  0.2481 -0.1182 -0.1979
  122loPI    C1 1937  12.854  12.940  11.165 -0.1576  0.1459  0.1708
  122loPI    C2 1938  12.693  13.282  11.035 -0.0291  0.2018  0.1564
  122loPI    C3 1939  12.458  12.989  11.174 -0.1724  0.1296 -0.2258
  122loPI   PO4 1940  12.952  12.792  11.056  0.0713  0.0270  0.0824
  122loPI   GL1 1941  13.065  12.560  10.747  0.2918  0.2983  0.0053
  122loPI   GL2 1942  13.010  12.170  10.863  0.3272 -0.1031  0.0737
  122loPI   C1A 1943  13.059  12.348  10.307 -0.1739  0.1588  0.0821
  122loPI   C2A 1944  13.070  12.267   9.825  0.1434 -0.2296 -0.0887
  122loPI   C3A 1945  13.081  12.331   9.364 -0.1564  0.2048 -0.4698
  122loPI   C4A 1946  13.116  12.198   8.916 -0.2565  0.2475  0.1906
  122loPI   C5A 1947  13.180  11.839   8.623 -0.2148  0.0463 -0.0705
  122loPI   C6A 1948  13.377  11.484   8.776  0.0382  0.1471  0.3696
  122loPI   C1B 1949  13.089  11.906  10.516 -0.0722  0.1044 -0.2446
  122loPI   C2B 1950  13.099  11.863  10.074  0.1179  0.0345 -0.2596
  122loPI   C3B 1951  13.007  11.768   9.628 -0.2529  0.0076  0.0242
  122loPI   C4B 1952  13.007  11.698   9.150 -0.1284 -0.1232  0.0390
  123loPI    C1 1953   1.164   4.534  11.618  0.0329  0.1077 -0.0255
  123loPI    C2 1954   1.424   4.628  11.907 -0.3214 -0.1341  0.3852
  123loPI    C3 1955   1.062   4.798  11.901 -0.2720 -0.0338  0.0013
  123loPI   PO4 1956   1.191   4.528  11.389  0.1027 -0.0326 -0.3604
  123loPI   GL1 1957   0.937   4.501  11.156 -0.0265 -0.2283 -0.0697
  123loPI   GL2 1958   0.633   4.623  11.024 -0.0393  0.2049  0.1570
  123loPI   C1A 1959   1.046   4.389  10.754  0.1306 -0.0278  0.2957
  123loPI   C2A 1960   1.076   4.400  10.328  0.1800 -0.4789  0.1778
  123loPI   C3A 1961   1.093   4.436   9.962 -0.0995  0.4552  0.1342
  123loPI   C4A 1962   1.143   4.338   9.533 -0.1012  0.1406  0.0131
  123loPI   C5A 1963   1.054   4.450   9.095 -0.0110  0.0066 -0.0085
  123loPI   C6A 1964   0.790   4.556   8.802 -0.1991 -0.2145 -0.0009
  123loPI   C1B 1965   0.611   4.679  10.654 -0.2515  0.1265  0.1044
  123loPI   C2B 1966   0.690   4.785  10.295  0.0081  0.0524 -0.2857
  123loPI   C3B 1967   0.589   4.724   9.873  0.1368 -0.3079 -0.3066
  123loPI   C4B 1968   0.598   4.623   9.341 -0.0114  0.2788  0.0175
  124loPI    C1 1969   6.608   0.858  10.575 -0.0750  0.1285 -0.0043
  124loPI    C2 1970   6.754   1.067  10.883  0.0727  0.0341 -0.0090
  124loPI    C3 1971   6.952   1.058  10.536 -0.0648  0.0949 -0.0900
  124loPI   PO4 1972   6.405   0.910  10.543 -0.0410 -0.2431  0.1692
  124loPI   GL1 1973   6.213   0.971  10.156  0.1960  0.2382 -0.1642
  124loPI   GL2 1974   6.440   1.112  10.085 -0.1000 -0.0946 -0.2980
  124loPI   C1A 1975   5.979   0.923   9.835  0.0388  0.1968 -0.0365
  124loPI   C2A 1976   5.942   0.954   9.420 -0.1057 -0.0161 -0.1363
  124loPI   C3A 1977   5.959   1.140   8.954 -0.2676 -0.1748  0.1694
  124loPI   C4A 1978   5.858   1.011   8.506  0.0203 -0.0229  0.0854
  124loPI   C5A 1979   5.746   1.033   8.196 -0.0077  0.0139  0.0544
  124loPI   C6A 1980   5.370   0.943   7.924  0.1958  0.2912 -0.0470
  124loPI   C1B 1981   6.405   1.190   9.705  0.0535  0.0991 -0.2730
  124loPI   C2B 1982   6.399   1.183   9.303 -0.1113 -0.0458 -0.0490
  124loPI   C3B 1983   6.465   1.198   8.846  0.0651  0.2690 -0.1067
  124loPI   C4B 1984   6.620   1.266   8.492 -0.1371 -0.0459 -0.1509
  125loPI    C1 1985  10.969  17.358  10.417 -0.1914  0.0910 -0.0521
  125loPI    C2 1986  11.003  17.318  10.814  0.0173  0.3890 -0.0367
  125loPI    C3 1987  10.648  17.266  10.638 -0.0101 -0.0844  0.1433
  125loPI   PO4 1988  11.111  17.283  10.352  0.1402  0.3250  0.1432
  125loPI   GL1 1989  11.257  17.425   9.923 -0.0947 -0.0071 -0.2587
  125loPI   GL2 1990  11.108  17.713   9.882 -0.0410  0.0423 -0.0025
  125loPI   C1A 1991  11.001  17.285   9.647  0.0554 -0.3170 -0.2999
  125loPI   C2A 1992  10.888  17.354   9.237  0.0535 -0.1325  0.2726
  125loPI   C3A 1993  10.569  17.458   9.045  0.2812 -0.2170 -0.0931
  125loPI   C4A 1994  10.455  17.497   8.606  0.0418  0.0289  0.2364
  125loPI   C5A 1995  10.135  17.293   8.512  0.1242 -0.1163 -0.3038
  125loPI   C6A 1996   9.899  16.955   8.521  0.1293  0.1241 -0.0733
  125loPI   C1B 1997  11.158  17.758   9.520  0.0327 -0.3335  0.0679
  125loPI   C2B 1998  11.047  17.812   9.106  0.0713  0.0851  0.0399
  125loPI   C3B 1999  11.192  17.747   8.784  0.1579 -0.2569  0.1294
  125loPI   C4B 2000  11.094  17.833   8.311  0.1177  0.1662 -0.2573
  126loPI    C1 2001  17.264  11.373  11.376  0.1504 -0.0017  0.0666
  126loPI    C2 2002  16.983  11.485  11.638  0.1548 -0.0148  0.0768
  126loPI    C3 2003  17.370  11.519  11.733  0.1607  0.2085 -0.0212
  126loPI   PO4 2004  17.259  11.072  11.302  0.1823  0.1115 -0.0214
  126loPI   GL1 2005  17.406  10.984  10.871 -0.2563  0.0187  0.0405
  126loPI   GL2 2006  17.389  10.668  10.957  0.2627  0.0083 -0.0203
  126loPI   C1A 2007  17.463  11.033  10.466 -0.1406  0.0530 -0.1482
  126loPI   C2A 2008  17.530  11.144  10.049 -0.2443 -0.0608  0.3902
  126loPI   C3A 2009  17.531  11.076   9.658  0.1302  0.3477  0.2071
  126loPI   C4A 2010  17.438  11.248   9.240 -0.1118 -0.0229  0.2351
  126loPI   C5A 2011  17.484  11.185   8.722  0.1152  0.1484  0.1828
  126loPI   C6A 2012  17.091  11.124   8.424 -0.1195  0.1444  0.2537
  126loPI   C1B 2013  17.368  10.540  10.604  0.1404  0.1941 -0.3013
  126loPI   C2B 2014  17.467  10.615  10.163  0.0623 -0.0959 -0.0185
  126loPI   C3B 2015  17.371  10.600   9.743  0.1473  0.0359  0.0103
  126loPI   C4B 2016  17.383  10.727   9.320  0.1006 -0.3025 -0.0056
  127loPI    C1 2017   6.672  12.055  11.191 -0.0541  0.1884  0.0665
  127loPI    C2 2018   6.643  11.659  11.143  0.0054  0.1928 -0.0081
  127loPI    C3 2019   6.957  11.815  11.336 -0.0034  0.2055 -0.0038
  127loPI   PO4 2020   6.625  12.118  11.038  0.1715 -0.0568  0.0422
  127loPI   GL1 2021   6.628  12.240  10.633  0.1959 -0.1010  0.1607
  127loPI   GL2 2022   6.347  12.367  10.571 -0.0552  0.1407  0.0459
  127loPI   C1A 2023   6.756  12.079  10.332  0.1531  0.0714  0.2922
  127loPI   C2A 2024   6.801  12.098   9.842 -0.0435  0.1062  0.0591
  127loPI   C3A 2025   6.764  12.122   9.397 -0.0867  0.0416 -0.1494
  127loPI   C4A 2026   6.703  12.132   9.020 -0.0312  0.1066  0.1864
  127loPI   C5A 2027   6.647  11.997   8.582  0.0471  0.0743  0.0653
  127loPI   C6A 2028   6.755  12.228   8.252  0.2702  0.0845 -0.3077
  127loPI   C1B 2029   6.423  12.362  10.135  0.3332 -0.1386 -0.0561
  127loPI   C2B 2030   6.386  12.372   9.602 -0.0543  0.3927  0.1347
  127loPI   C3B 2031   6.308  12.332   9.203 -0.2625 -0.1417  0.2184
  127loPI   C4B 2032   6.338  12.404   8.756 -0.1039  0.1190  0.3398
  128loPI    C1 2033   4.518  11.023  11.530 -0.2159 -0.1964 -0.1220
  128loPI    C2 2034   4.351  10.947  11.885 -0.1978 -0.0293 -0.0765
  128loPI    C3 2035   4.695  11.149  11.867 -0.2341  0.0226 -0.1924
  128loPI   PO4 2036   4.365  10.996  11.422 -0.2075  0.1625 -0.0267
  128loPI   GL1 2037   4.287  10.901  11.039 -0.0234  0.2239 -0.2844
  128loPI   GL2 2038   4.331  11.118  10.835  0.0677  0.0549 -0.3157
  128loPI   C1A 2039   4.364  10.627  10.732 -0.1462 -0.0841  0.0418
  128loPI   C2A 2040   4.338  10.599  10.278  0.1603  0.0473  0.1646
  128loPI   C3A 2041   4.251  10.541   9.853  0.3293  0.0193 -0.0173
  128loPI   C4A 2042   4.256  10.616   9.485  0.0013 -0.2244  0.1712
  128loPI   C5A 2043   4.214  10.706   8.978  0.2419 -0.0699  0.1395
  128loPI   C6A 2044   4.280  10.972   8.627  0.2036 -0.2019 -0.2239
  128loPI   C1B 2045   4.415  11.037  10.420 -0.0660 -0.2243 -0.2532
  128loPI   C2B 2046   4.342  11.034   9.975  0.1381 -0.0581 -0.0270
  128loPI   C3B 2047   4.350  11.067   9.579  0.1162 -0.3992 -0.1698
  128loPI   C4B 2048   4.413  11.085   9.207  0.0617  0.0594  0.1655
  129loPI    C1 2049  16.236   7.310  11.901 -0.0806 -0.1134  0.1044
  129loPI    C2 2050  16.413   7.329  12.259  0.0562  0.1351  0.0262
  129loPI    C3 2051  16.168   7.623  12.140  0.1658  0.1516 -0.1633
  129loPI   PO4 2052  16.385   7.163  11.717 -0.0443  0.3202  0.1505
  129loPI   GL1 2053  16.296   7.179  11.220  0.2331 -0.0769  0.2635
  129loPI   GL2 2054  16.326   7.449  10.897  0.3110 -0.1345 -0.1735
  129loPI   C1A 2055  16.352   6.960  10.766 -0.1153 -0.0728 -0.3077
  129loPI   C2A 2056  16.363   6.936  10.349 -0.0122  0.0538 -0.0516
  129loPI   C3A 2057  16.326   6.927   9.889 -0.1510  0.1478  0.0862
  129loPI   C4A 2058  16.313   6.929   9.408 -0.0849 -0.2920  0.3401
  129loPI   C5A 2059  16.288   7.007   8.944 -0.3413  0.0205 -0.3299
  129loPI   C6A 2060  16.724   7.058   8.721  0.0166  0.2899 -0.0390
  129loPI   C1B 2061  16.508   7.405  10.474 -0.1460  0.2579 -0.1928
  129loPI   C2B 2062  16.493   7.365  10.029  0.0047 -0.1237  0.1240
  129loPI   C3B 2063  16.435   7.391   9.633 -0.1341  0.0710  0.1286
  129loPI   C4B 2064  16.432   7.402   9.194  0.0849 -0.1409  0.1503
  130loPI    C1 2065   6.265  13.464  10.795  0.0794 -0.0607 -0.1222
  130loPI    C2 2066   6.324  13.859  10.823  0.0771 -0.0575 -0.1607
  130loPI    C3 2067   6.414  13.620  11.132 -0.0496 -0.0114 -0.0870
  130loPI   PO4 2068   6.356  13.420  10.592  0.2667 -0.0680  0.3750
  130loPI   GL1 2069   6.361  13.205  10.314 -0.0370 -0.1585 -0.1658
  130loPI   GL2 2070   6.478  12.923  10.322 -0.0274  0.0610 -0.0573
  130loPI   C1A 2071   6.053  13.171  10.004  0.0676 -0.0838 -0.1482
  130loPI   C2A 2072   6.039  13.122   9.625 -0.1050 -0.1012 -0.1030
  130loPI   C3A 2073   6.012  13.165   9.273  0.0763 -0.1585 -0.2747
  130loPI   C4A 2074   6.024  13.243   8.876  0.1669 -0.1480  0.1997
  130loPI   C5A 2075   5.863  13.318   8.391 -0.0561  0.1729  0.2209
  130loPI   C6A 2076   5.458  12.994   8.265 -0.0508 -0.0729  0.2033
  130loPI   C1B 2077   6.417  12.831   9.882  0.0965 -0.1060 -0.2110
  130loPI   C2B 2078   6.420  12.847   9.460 -0.0888 -0.0466 -0.1099
  130loPI   C3B 2079   6.418  12.901   9.067 -0.0603 -0.1791 -0.1024
  130loPI   C4B 2080   6.429  12.903   8.678 -0.2154  0.0481  0.1436
  131loPI    C1 2081   2.281   4.853  11.762 -0.0774  0.1453 -0.2249
  131loPI    C2 2082   1.910   4.707  11.733  0.0232 -0.1525 -0.0533
  131loPI    C3 2083   2.007   4.947  12.038  0.0249 -0.2424  0.0174
  131loPI   PO4 2084   2.321   4.918  11.479 -0.2714  0.1328  0.0960
  131loPI   GL1 2085   2.014   4.971  11.208 -0.1111  0.3685  0.1455
  131loPI   GL2 2086   1.886   4.760  11.011 -0.1268  0.2139  0.2002
  131loPI   C1A 2087   2.164   5.248  10.810  0.0354 -0.1934  0.1561
  131loPI   C2A 2088   2.116   5.184  10.362 -0.0434 -0.2512 -0.0936
  131loPI   C3A 2089   2.073   5.293   9.932 -0.1221  0.1796 -0.2160
  131loPI   C4A 2090   2.078   5.279   9.531  0.0633  0.2900 -0.0087
  131loPI   C5A 2091   2.156   5.409   9.226  0.2081  0.0141  0.0235
  131loPI   C6A 2092   2.104   5.550   8.895  0.2927 -0.0319 -0.0749
  131loPI   C1B 2093   2.102   4.723  10.648  0.0344  0.0430  0.0802
  131loPI   C2B 2094   1.993   4.651  10.181 -0.0351  0.0961 -0.0562
  131loPI   C3B 2095   1.999   4.721   9.799  0.1359  0.2279 -0.0764
  131loPI   C4B 2096   2.057   4.786   9.283 -0.2138 -0.2085 -0.0155
  132loPI    C1 2097   9.981  13.046  10.926 -0.5776  0.3157 -0.0782
  132loPI    C2 2098  10.132  13.389  11.065 -0.2138  0.1089  0.0507
  132loPI    C3 2099   9.899  13.164  11.299  0.0487 -0.0289  0.1841
  132loPI   PO4 2100   9.785  13.009  10.745 -0.1512  0.0844 -0.2731
  132loPI   GL1 2101   9.669  12.749  10.500 -0.2124 -0.4127 -0.0595
  132loPI   GL2 2102   9.978  12.669  10.445  0.0306 -0.2197  0.3039
  132loPI   C1A 2103   9.490  12.823  10.058 -0.0046  0.1512 -0.0200
  132loPI   C2A 2104   9.490  12.742   9.644  0.0150 -0.3315 -0.3454
  132loPI   C3A 2105   9.482  12.737   9.257 -0.0674 -0.0328  0.1779
  132loPI   C4A 2106   9.480  12.724   8.842  0.0014 -0.0482  0.0602
  132loPI   C5A 2107   9.601  12.460   8.500  0.0554  0.0045  0.0660
  132loPI   C6A 2108   9.912  12.180   8.465 -0.0137  0.1814  0.0020
  132loPI   C1B 2109   9.953  12.511  10.115  0.1922 -0.4055 -0.1685
  132loPI   C2B 2110   9.935  12.412   9.828  0.0398  0.1347 -0.2515
  132loPI   C3B 2111   9.996  12.343   9.399  0.1266  0.1070  0.0397
  132loPI   C4B 2112   9.834  12.378   8.954 -0.1331  0.2004 -0.3853
  133loPI    C1 2113   6.832   9.274  11.158  0.0983 -0.0858 -0.0564
  133loPI    C2 2114   7.139   9.222  11.409 -0.0767  0.0049  0.1794
  133loPI    C3 2115   6.842   8.954  11.398 -0.1858  0.1220  0.2413
  133loPI   PO4 2116   6.934   9.235  10.920 -0.1195 -0.0358  0.0029
  133loPI   GL1 2117   6.723   9.074  10.569  0.4597 -0.2466 -0.1958
  133loPI   GL2 2118   6.825   8.724  10.607 -0.1763 -0.0397 -0.1763
  133loPI   C1A 2119   6.854   9.108  10.194  0.0850  0.3778  0.3043
  133loPI   C2A 2120   6.834   9.048   9.749 -0.1986  0.0132 -0.1244
  133loPI   C3A 2121   6.747   9.126   9.320 -0.1763 -0.1776 -0.1608
  133loPI   C4A 2122   6.656   9.015   8.910 -0.0092 -0.1069  0.1437
  133loPI   C5A 2123   6.649   8.913   8.490  0.2695  0.1971 -0.0726
  133loPI   C6A 2124   6.784   8.814   8.104  0.0277  0.2247 -0.2115
  133loPI   C1B 2125   6.766   8.608  10.183  0.1651 -0.0605  0.3280
  133loPI   C2B 2126   6.702   8.585   9.712  0.2596  0.1805  0.3918
  133loPI   C3B 2127   6.572   8.607   9.235  0.0184  0.1409  0.3794
  133loPI   C4B 2128   6.561   8.546   8.867 -0.1567  0.3618 -0.0344
  134loPI    C1 2129  13.167  16.700  10.789  0.2789  0.0119 -0.0394
  134loPI    C2 2130  13.543  16.704  10.926  0.1703 -0.2458  0.2797
  134loPI    C3 2131  13.272  16.958  11.076  0.1848 -0.1483  0.1421
  134loPI   PO4 2132  13.212  16.659  10.518  0.0756  0.1668  0.0767
  134loPI   GL1 2133  13.254  16.858  10.290 -0.3644  0.1135 -0.0657
  134loPI   GL2 2134  12.937  16.925  10.233 -0.3033 -0.2327 -0.0584
  134loPI   C1A 2135  13.315  16.823   9.756 -0.0037  0.3376  0.0756
  134loPI   C2A 2136  13.323  16.844   9.314  0.0626  0.0199  0.2883
  134loPI   C3A 2137  13.165  16.756   8.904  0.2567  0.2507  0.1636
  134loPI   C4A 2138  13.042  16.841   8.427 -0.1678 -0.1747 -0.0266
  134loPI   C5A 2139  12.875  16.516   8.031 -0.1322 -0.0295 -0.2897
  134loPI   C6A 2140  12.907  16.186   7.904 -0.1886  0.0779  0.2087
  134loPI   C1B 2141  12.716  16.989   9.829 -0.1603  0.1022  0.1009
  134loPI   C2B 2142  12.833  16.855   9.502 -0.0838  0.0765 -0.0916
  134loPI   C3B 2143  12.767  17.061   9.216  0.0243 -0.3632 -0.1866
  134loPI   C4B 2144  12.937  17.198   8.832 -0.1005  0.0624 -0.0520
  135loPI    C1 2145  10.640   4.509  11.053 -0.1507  0.0234 -0.1663
  135loPI    C2 2146  10.813   4.381  11.390 -0.0222 -0.0354 -0.2539
  135loPI    C3 2147  10.645   4.744  11.377 -0.0821 -0.0570 -0.1087
  135loPI   PO4 2148  10.499   4.365  10.981 -0.3904  0.1841  0.0941
  135loPI   GL1 2149  10.577   4.180  10.587 -0.2029  0.0222  0.0285
  135loPI   GL2 2150  10.298   4.240  10.474  0.1061  0.0666  0.1101
  135loPI   C1A 2151  10.721   4.310  10.211  0.0528  0.0074  0.0853
  135loPI   C2A 2152  10.757   4.328   9.764  0.2769  0.0467 -0.0543
  135loPI   C3A 2153  10.710   4.437   9.390 -0.2066 -0.3560 -0.0770
  135loPI   C4A 2154  10.656   4.408   8.947 -0.0553  0.3601  0.0171
  135loPI   C5A 2155  10.597   4.359   8.461 -0.0831 -0.1734 -0.1267
  135loPI   C6A 2156  10.802   4.176   8.220  0.0545 -0.0397 -0.0692
  135loPI   C1B 2157  10.290   4.276   9.961  0.0842 -0.0552 -0.2951
  135loPI   C2B 2158  10.293   4.142   9.586 -0.0777  0.0553  0.1546
  135loPI   C3B 2159  10.225   4.246   9.180  0.0908  0.0758 -0.0050
  135loPI   C4B 2160  10.191   3.987   8.758 -0.1329 -0.2784  0.2419
  136loPI    C1 2161   2.399  16.246  11.141 -0.0523  0.1692 -0.1753
  136loPI    C2 2162   2.386  16.061  10.787 -0.3264  0.0117 -0.0861
  136loPI    C3 2163   2.187  15.910  11.099 -0.0885  0.1497  0.1368
  136loPI   PO4 2164   2.348  16.513  11.084  0.1255  0.0465 -0.1527
  136loPI   GL1 2165   2.236  16.527  10.601  0.1166  0.0647 -0.2239
  136loPI   GL2 2166   2.510  16.579  10.607  0.1067  0.3091  0.4516
  136loPI   C1A 2167   2.233  16.167  10.325  0.0812  0.0176  0.4111
  136loPI   C2A 2168   2.426  16.077   9.938  0.0673  0.0837 -0.0490
  136loPI   C3A 2169   2.353  16.082   9.556 -0.4359 -0.3113  0.2500
  136loPI   C4A 2170   2.385  16.164   9.175 -0.1707 -0.0498  0.2055
  136loPI   C5A 2171   2.461  15.963   8.800  0.0426 -0.1527 -0.0459
  136loPI   C6A 2172   2.618  15.701   8.493 -0.0762 -0.0295 -0.0807
  136loPI   C1B 2173   2.333  16.585  10.139  0.0125 -0.2683  0.0365
  136loPI   C2B 2174   2.181  16.462   9.800  0.0661 -0.1883 -0.0017
  136loPI   C3B 2175   2.039  16.558   9.432 -0.3189  0.0720  0.2939
  136loPI   C4B 2176   1.985  16.466   9.026 -0.0903 -0.0083 -0.0721
  137loPI    C1 2177   8.234   6.705  11.265 -0.2761 -0.0770  0.1003
  137loPI    C2 2178   8.556   6.775  11.493 -0.1874  0.0503 -0.0615
  137loPI    C3 2179   8.211   6.961  11.572 -0.2209 -0.0816  0.1084
  137loPI   PO4 2180   8.343   6.740  10.963  0.1054 -0.0553  0.2191
  137loPI   GL1 2181   8.250   6.743  10.606 -0.0699 -0.5338 -0.2041
  137loPI   GL2 2182   8.064   7.076  10.581 -0.0244  0.1869 -0.2431
  137loPI   C1A 2183   8.317   6.774  10.124  0.1205  0.2524 -0.1159
  137loPI   C2A 2184   8.279   6.857   9.732  0.1367  0.0548 -0.1063
  137loPI   C3A 2185   8.164   6.832   9.312  0.1202 -0.3057 -0.0278
  137loPI   C4A 2186   8.225   6.727   8.826  0.1724 -0.0029  0.0673
  137loPI   C5A 2187   7.985   6.686   8.394 -0.0664 -0.0225 -0.0774
  137loPI   C6A 2188   7.779   6.573   7.922  0.0116 -0.3592  0.1117
  137loPI   C1B 2189   7.937   7.108  10.077 -0.0967 -0.1018 -0.2228
  137loPI   C2B 2190   7.873   7.132   9.574 -0.0221  0.3071  0.0519
  137loPI   C3B 2191   7.790   7.144   9.113  0.2020 -0.0265 -0.0807
  137loPI   C4B 2192   7.885   7.145   8.719  0.0742  0.1976  0.1259
  138loPI    C1 2193   7.733   5.100  11.121 -0.0313 -0.0024  0.3216
  138loPI    C2 2194   7.341   5.048  11.185 -0.0850 -0.1822 -0.1184
  138loPI    C3 2195   7.605   4.799  11.352 -0.1315  0.1184  0.4250
  138loPI   PO4 2196   7.684   5.347  10.934 -0.1145 -0.0339 -0.0314
  138loPI   GL1 2197   7.325   5.465  10.713 -0.0261  0.1461 -0.2951
  138loPI   GL2 2198   7.300   5.059  10.616 -0.0660 -0.3706  0.0184
  138loPI   C1A 2199   6.869   5.396  10.660  0.1250 -0.0420  0.0247
  138loPI   C2A 2200   6.516   5.348  10.514 -0.1411 -0.0932  0.2229
  138loPI   C3A 2201   6.393   5.409  10.091 -0.1863  0.0639  0.0978
  138loPI   C4A 2202   6.281   5.375   9.705  0.0106 -0.1067  0.2995
  138loPI   C5A 2203   6.244   5.407   9.289 -0.0655  0.0016  0.2941
  138loPI   C6A 2204   6.605   5.527   8.919  0.0514  0.0998 -0.0062
  138loPI   C1B 2205   7.190   5.351  10.238  0.2298 -0.3354 -0.1531
  138loPI   C2B 2206   7.240   5.273   9.765  0.3685 -0.4550  0.1683
  138loPI   C3B 2207   7.126   5.311   9.368  0.0990 -0.2595 -0.2043
  138loPI   C4B 2208   7.109   5.310   8.957  0.0081  0.2858  0.1379
  139loPI    C1 2209   8.764  15.255  10.338  0.1501 -0.0646  0.1443
  139loPI    C2 2210   8.626  15.590  10.508 -0.1753 -0.0174 -0.2003
  139loPI    C3 2211   8.689  15.264  10.731  0.0600  0.2427  0.1228
  139loPI   PO4 2212   8.582  15.189  10.148 -0.1343  0.0617 -0.3753
  139loPI   GL1 2213   8.418  15.366   9.703  0.0162  0.0556 -0.1778
  139loPI   GL2 2214   8.367  15.639   9.581  0.1282 -0.0856  0.0452
  139loPI   C1A 2215   8.317  15.126   9.422 -0.2817  0.1462 -0.1213
  139loPI   C2A 2216   8.170  15.041   9.090 -0.2942 -0.4797 -0.1202
  139loPI   C3A 2217   8.175  15.062   8.663  0.2702 -0.0398  0.1011
  139loPI   C4A 2218   8.054  15.125   8.289  0.0195  0.0543  0.0035
  139loPI   C5A 2219   7.798  15.100   7.864  0.1797 -0.0259 -0.0781
  139loPI   C6A 2220   7.493  15.045   7.702  0.0379  0.3586  0.2594
  139loPI   C1B 2221   8.330  15.665   9.174  0.2541 -0.0762  0.0936
  139loPI   C2B 2222   8.197  15.578   8.739  0.0193 -0.1766 -0.0224
  139loPI   C3B 2223   8.186  15.585   8.296  0.2310  0.0087  0.0829
  139loPI   C4B 2224   8.255  15.858   8.000 -0.2245 -0.1649  0.1029
  140loPI    C1 2225   2.021   1.528  11.181 -0.0409  0.2273  0.0683
  140loPI    C2 2226   1.804   1.357  10.892  0.1133 -0.0345  0.1046
  140loPI    C3 2227   1.708   1.297  11.276  0.1241  0.0202  0.1159
  140loPI   PO4 2228   2.358   1.422  11.038 -0.1883 -0.0562 -0.0355
  140loPI   GL1 2229   2.400   1.228  10.631 -0.1228  0.1622 -0.1857
  140loPI   GL2 2230   2.329   0.899  10.561  0.0313  0.2204  0.0582
  140loPI   C1A 2231   2.390   1.485  10.231 -0.0097  0.0712  0.0948
  140loPI   C2A 2232   2.373   1.632   9.821  0.1068 -0.2916 -0.2964
  140loPI   C3A 2233   2.384   1.577   9.347 -0.0415  0.0724 -0.0107
  140loPI   C4A 2234   2.353   1.447   8.891 -0.0608  0.0005  0.0888
  140loPI   C5A 2235   2.101   1.725   8.671 -0.0379 -0.3183  0.0067
  140loPI   C6A 2236   2.101   2.037   8.329 -0.2134 -0.0576  0.2128
  140loPI   C1B 2237   2.266   0.930  10.247 -0.1541 -0.0549  0.1702
  140loPI   C2B 2238   2.271   0.952   9.754  0.1517  0.4219  0.0864
  140loPI   C3B 2239   2.316   1.052   9.303  0.0022  0.1512 -0.1630
  140loPI   C4B 2240   2.176   0.880   8.860 -0.0461 -0.1181  0.0549
  141loPI    C1 2241  14.950  12.320  11.318  0.0218  0.0865 -0.2207
  141loPI    C2 2242  15.055  12.038  11.582 -0.3069 -0.0027 -0.1814
  141loPI    C3 2243  15.064  12.424  11.688 -0.3139 -0.0298 -0.0807
  141loPI   PO4 2244  15.130  12.338  11.155 -0.0522 -0.0395 -0.2499
  141loPI   GL1 2245  15.118  12.400  10.687  0.0794 -0.0056  0.1588
  141loPI   GL2 2246  14.951  12.767  10.627  0.0169 -0.1965  0.1552
  141loPI   C1A 2247  15.278  12.234  10.421  0.0720  0.1723 -0.1054
  141loPI   C2A 2248  15.352  12.333  10.058  0.0645 -0.0395  0.1422
  141loPI   C3A 2249  15.364  12.256   9.608  0.0990  0.1694 -0.0431
  141loPI   C4A 2250  15.422  12.261   9.206  0.1491  0.4045 -0.1116
  141loPI   C5A 2251  15.346  12.183   8.758 -0.1484  0.1293  0.1592
  141loPI   C6A 2252  15.094  12.269   8.463 -0.2845  0.0225  0.1757
  141loPI   C1B 2253  14.948  12.628  10.151 -0.0126 -0.0445 -0.0022
  141loPI   C2B 2254  14.919  12.617   9.762  0.0516  0.0635  0.1719
  141loPI   C3B 2255  14.928  12.667   9.324 -0.1195 -0.1340  0.2040
  141loPI   C4B 2256  14.902  12.495   8.876  0.2139 -0.1562 -0.2894
  142loPI    C1 2257   7.670  14.204  10.467 -0.1879 -0.1164  0.1223
  142loPI    C2 2258   7.966  14.468  10.515 -0.0906 -0.1682 -0.1730
  142loPI    C3 2259   7.866  14.223  10.815  0.0414 -0.0252 -0.0101
  142loPI   PO4 2260   7.637  14.210  10.185  0.1237 -0.1368 -0.1689
  142loPI   GL1 2261   7.298  14.063   9.936 -0.4169  0.0655 -0.1510
  142loPI   GL2 2262   7.574  13.919   9.768  0.1833  0.1535 -0.2681
  142loPI   C1A 2263   7.100  14.145   9.599 -0.0620  0.2118  0.0786
  142loPI   C2A 2264   7.034  14.067   9.134  0.0639  0.0594 -0.0494
  142loPI   C3A 2265   7.035  14.135   8.708  0.0471 -0.2506 -0.0204
  142loPI   C4A 2266   7.038  14.250   8.223  0.1252  0.0042 -0.1108
  142loPI   C5A 2267   6.920  14.085   7.892  0.1333 -0.0448  0.4899
  142loPI   C6A 2268   6.956  13.768   7.693  0.0112 -0.0967  0.0737
  142loPI   C1B 2269   7.449  13.758   9.384  0.2050  0.1687 -0.0817
  142loPI   C2B 2270   7.412  13.736   8.891 -0.0503 -0.1210  0.0732
  142loPI   C3B 2271   7.487  13.900   8.499 -0.0559  0.1686  0.1480
  142loPI   C4B 2272   7.396  13.922   7.986 -0.1190  0.1898  0.1957
  143loPI    C1 2273  13.963   3.204  11.000  0.1002 -0.0630  0.1459
  143loPI    C2 2274  13.974   3.603  11.028 -0.1869 -0.0465  0.0603
  143loPI    C3 2275  13.975   3.379  11.360 -0.2922  0.0345  0.1158
  143loPI   PO4 2276  13.804   3.104  10.858  0.0643  0.3985 -0.0071
  143loPI   GL1 2277  13.618   3.286  10.483 -0.1291 -0.2439  0.1384
  143loPI   GL2 2278  13.839   3.535  10.535 -0.3277  0.0069  0.0046
  143loPI   C1A 2279  13.445   3.371  10.072 -0.1140 -0.1834 -0.0423
  143loPI   C2A 2280  13.403   3.301   9.603 -0.3102 -0.0068  0.0166
  143loPI   C3A 2281  13.381   3.484   9.249 -0.0689  0.0383 -0.0878
  143loPI   C4A 2282  13.394   3.742   8.909 -0.1172 -0.1523  0.2156
  143loPI   C5A 2283  13.514   3.792   8.442  0.0927  0.2684  0.1630
  143loPI   C6A 2284  13.755   3.478   8.224 -0.0493 -0.3842  0.2122
  143loPI   C1B 2285  13.899   3.595  10.054 -0.1438 -0.0902  0.0278
  143loPI   C2B 2286  13.771   3.677   9.545 -0.0326 -0.1181 -0.1692
  143loPI   C3B 2287  13.890   3.645   9.090 -0.0282  0.1435 -0.0012
  143loPI   C4B 2288  13.888   3.522   8.682  0.1150  0.1752  0.1590
  144loPI    C1 2289  16.594   7.668  11.617 -0.2181  0.0443  0.0929
  144loPI    C2 2290  16.986   7.705  11.685 -0.1663 -0.2235 -0.0464
  144loPI    C3 2291  16.741   7.596  11.982 -0.1188 -0.1746  0.0112
  144loPI   PO4 2292  16.642   7.695  11.348  0.2508 -0.1493  0.3053
  144loPI   GL1 2293  16.873   7.500  11.142  0.0468 -0.0187  0.0324
  144loPI   GL2 2294  17.234   7.504  11.241  0.3780 -0.0416 -0.0258
  144loPI   C1A 2295  16.874   7.552  10.737  0.0675 -0.1045 -0.0401
  144loPI   C2A 2296  16.959   7.570  10.303 -0.0640  0.2011  0.1357
  144loPI   C3A 2297  16.929   7.602   9.869 -0.1067  0.0961 -0.0520
  144loPI   C4A 2298  16.914   7.587   9.475  0.2910  0.0946  0.2018
  144loPI   C5A 2299  16.929   7.440   9.072 -0.0850 -0.0592  0.1594
  144loPI   C6A 2300  17.220   7.117   9.150 -0.1527  0.2579  0.3696
  144loPI   C1B 2301  17.311   7.253  10.909  0.1881 -0.0517 -0.3139
  144loPI   C2B 2302  17.324   7.225  10.507 -0.1333 -0.2390  0.2161
  144loPI   C3B 2303  17.305   7.245  10.016 -0.1118  0.1509 -0.3182
  144loPI   C4B 2304  17.318   7.305   9.642 -0.3498 -0.0486  0.3211
  145loPI    C1 2305   4.680   4.606  11.742  0.1179 -0.1171  0.2669
  145loPI    C2 2306   4.373   4.355  11.796  0.1106 -0.1457  0.0985
  145loPI    C3 2307   4.428   4.661  12.048 -0.0123 -0.1838  0.1726
  145loPI   PO4 2308   4.595   4.740  11.534  0.0427 -0.3004  0.3652
  145loPI   GL1 2309   4.563   4.788  11.061 -0.0027 -0.1696 -0.0817
  145loPI   GL2 2310   4.352   5.092  10.923 -0.4157 -0.3797  0.0432
  145loPI   C1A 2311   4.719   4.802  10.669 -0.1830  0.0965  0.1881
  145loPI   C2A 2312   4.790   4.890  10.315 -0.1746  0.2724  0.1231
  145loPI   C3A 2313   4.717   4.861   9.807  0.0827 -0.0876 -0.1570
  145loPI   C4A 2314   4.792   4.897   9.323  0.1131 -0.2435  0.0449
  145loPI   C5A 2315   4.619   4.941   8.886  0.1452 -0.3342  0.0010
  145loPI   C6A 2316   4.441   5.362   8.741 -0.0835 -0.0202  0.1189
  145loPI   C1B 2317   4.381   5.183  10.467 -0.0665  0.1809  0.1169
  145loPI   C2B 2318   4.402   5.140  10.065 -0.1354 -0.0460  0.1009
  145loPI   C3B 2319   4.240   5.255   9.678  0.3483  0.2981 -0.0967
  145loPI   C4B 2320   4.392   5.343   9.240  0.0520 -0.2907  0.0757
  146loPI    C1 2321  13.425   9.356  11.465 -0.1642 -0.0216 -0.2034
  146loPI    C2 2322  13.573   9.339  11.837 -0.0018  0.1897 -0.2555
  146loPI    C3 2323  13.222   9.165  11.752  0.1880 -0.2765 -0.1172
  146loPI   PO4 2324  13.454   9.515  11.375  0.1811  0.0650 -0.0471
  146loPI   GL1 2325  13.412   9.615  10.993  0.2699 -0.0819 -0.0048
  146loPI   GL2 2326  13.191   9.468  10.784 -0.0153 -0.0726 -0.4611
  146loPI   C1A 2327  13.621   9.656  10.566  0.0121 -0.2249 -0.0647
  146loPI   C2A 2328  13.650   9.620  10.063  0.0901  0.0621 -0.0678
  146loPI   C3A 2329  13.656   9.574   9.579 -0.0813 -0.0228  0.1271
  146loPI   C4A 2330  13.613   9.609   9.071 -0.0195 -0.1873 -0.0106
  146loPI   C5A 2331  13.846   9.471   8.712  0.1943  0.3287  0.0326
  146loPI   C6A 2332  14.259   9.490   8.557  0.1545 -0.0661  0.0240
  146loPI   C1B 2333  13.166   9.428  10.414 -0.0885  0.0322  0.1041
  146loPI   C2B 2334  13.186   9.420   9.962 -0.0425 -0.2164 -0.1234
  146loPI   C3B 2335  13.150   9.394   9.498  0.1869  0.0993 -0.2594
  146loPI   C4B 2336  13.001   9.398   9.031 -0.3707  0.0830 -0.0127
  147loPI    C1 2337   6.669  12.607  11.214  0.1020  0.0341  0.2111
  147loPI    C2 2338   6.368  12.789  11.405 -0.0233 -0.0170  0.0639
  147loPI    C3 2339   6.742  12.921  11.451 -0.0571 -0.0025  0.3108
  147loPI   PO4 2340   6.684  12.642  10.968  0.0928  0.0992 -0.0487
  147loPI   GL1 2341   6.904  12.660  10.525  0.2042 -0.1313  0.1139
  147loPI   GL2 2342   7.253  12.470  10.451 -0.0428 -0.0385 -0.0062
  147loPI   C1A 2343   6.858  12.638  10.065 -0.2923 -0.0402  0.3671
  147loPI   C2A 2344   6.846  12.610   9.650  0.1781  0.1204  0.2234
  147loPI   C3A 2345   6.819  12.628   9.167  0.1502 -0.1471  0.1291
  147loPI   C4A 2346   6.809  12.580   8.763 -0.0468  0.0311  0.2278
  147loPI   C5A 2347   6.745  12.701   8.347  0.1703 -0.1595  0.3275
  147loPI   C6A 2348   6.400  12.608   8.211 -0.0017 -0.2345  0.1993
  147loPI   C1B 2349   7.254  12.263  10.068  0.0526 -0.2829  0.1804
  147loPI   C2B 2350   7.206  12.194   9.597  0.2535  0.0147  0.1692
  147loPI   C3B 2351   7.224  12.294   9.129 -0.3603  0.2129  0.2022
  147loPI   C4B 2352   7.091  12.135   8.686 -0.0198  0.1843 -0.2224
  148loPI    C1 2353   8.624  12.841  10.706 -0.0942 -0.1085 -0.0746
  148loPI    C2 2354   8.585  12.777  11.099 -0.0475 -0.0912 -0.0671
  148loPI    C3 2355   8.747  13.118  10.968  0.3244 -0.2715 -0.0906
  148loPI   PO4 2356   8.438  12.670  10.623  0.0069 -0.0248  0.2735
  148loPI   GL1 2357   8.473  12.486  10.222 -0.1987 -0.2073 -0.2302
  148loPI   GL2 2358   8.163  12.332  10.185  0.1600  0.2686  0.0786
  148loPI   C1A 2359   8.561  12.358   9.854 -0.0345 -0.2623  0.0582
  148loPI   C2A 2360   8.545  12.229   9.419  0.0052  0.1924  0.3045
  148loPI   C3A 2361   8.610  12.199   8.995 -0.1243  0.0973  0.0325
  148loPI   C4A 2362   8.610  12.348   8.566  0.5042 -0.2374 -0.0787
  148loPI   C5A 2363   8.601  12.623   8.207  0.2319 -0.3638  0.2676
  148loPI   C6A 2364   8.821  12.940   7.950 -0.0902 -0.1069  0.0554
  148loPI   C1B 2365   8.111  12.112   9.809  0.1416 -0.1264  0.0449
  148loPI   C2B 2366   8.048  12.117   9.395 -0.1343  0.0791 -0.1619
  148loPI   C3B 2367   8.150  12.017   9.063 -0.4537  0.0427 -0.1046
  148loPI   C4B 2368   8.057  12.029   8.664  0.0724 -0.2252 -0.4390
  149loPI    C1 2369  16.781   5.399  11.436 -0.0760  0.1127  0.0238
  149loPI    C2 2370  16.577   5.708  11.588 -0.1737 -0.0700  0.2691
  149loPI    C3 2371  16.443   5.334  11.640 -0.1371 -0.1473 -0.1556
  149loPI   PO4 2372  16.914   5.476  11.198 -0.2047  0.1189 -0.0272
  149loPI   GL1 2373  16.848   5.662  10.873  0.0795  0.2118 -0.1238
  149loPI   GL2 2374  16.547   5.556  10.725 -0.0388  0.3161 -0.0222
  149loPI   C1A 2375  17.106   5.575  10.481  0.2788 -0.1909 -0.0083
  149loPI   C2A 2376  17.102   5.701  10.021  0.0859 -0.1523 -0.2167
  149loPI   C3A 2377  17.183   5.659   9.600  0.1689  0.0862 -0.1480
  149loPI   C4A 2378  16.876   5.751   9.215  0.0390 -0.0982 -0.1309
  149loPI   C5A 2379  16.643   5.513   8.875  0.0387  0.1723  0.1829
  149loPI   C6A 2380  16.258   5.308   8.665  0.0796  0.0015 -0.2459
  149loPI   C1B 2381  16.664   5.489  10.290 -0.0180 -0.2196  0.2144
  149loPI   C2B 2382  16.696   5.588   9.752  0.1994 -0.0666  0.0019
  149loPI   C3B 2383  16.462   5.478   9.343 -0.2170 -0.2045  0.0821
  149loPI   C4B 2384  16.027   5.470   9.045 -0.2188  0.2426 -0.0649
  150loPI    C1 2385   6.784   9.815  11.306  0.0895 -0.0665 -0.0956
  150loPI    C2 2386   6.704   9.604  11.637 -0.1740 -0.0907 -0.1725
  150loPI    C3 2387   7.054   9.794  11.601 -0.0538 -0.2706  0.0240
  150loPI   PO4 2388   6.639   9.713  11.158  0.1576  0.0201  0.3483
  150loPI   GL1 2389   6.763   9.676  10.779  0.2221  0.0593  0.1457
  150loPI   GL2 2390   7.077   9.684  10.636  0.0224 -0.0189  0.1422
  150loPI   C1A 2391   6.527   9.540  10.342  0.0226 -0.0626  0.0859
  150loPI   C2A 2392   6.380   9.330   9.974 -0.2270  0.1542  0.3463
  150loPI   C3A 2393   6.437   9.445   9.493  0.1982 -0.1807 -0.1296
  150loPI   C4A 2394   6.241   9.426   9.082  0.1318 -0.0866 -0.0419
  150loPI   C5A 2395   6.255   9.731   8.768  0.2255  0.1905  0.0242
  150loPI   C6A 2396   5.843   9.712   8.656 -0.1642  0.0414  0.1816
  150loPI   C1B 2397   6.981   9.716  10.254  0.4450 -0.0911  0.1465
  150loPI   C2B 2398   6.850   9.544   9.839  0.0907  0.0949 -0.1301
  150loPI   C3B 2399   6.867   9.660   9.398  0.2024 -0.0722  0.0165
  150loPI   C4B 2400   6.721   9.636   8.975  0.1007 -0.1852 -0.3458
  151loPI    C1 2401  11.341  14.968  10.998 -0.0598 -0.0391  0.0488
  151loPI    C2 2402  11.036  15.076  11.234 -0.1022 -0.2368  0.0863
  151loPI    C3 2403  11.408  15.063  11.381 -0.0366  0.2366 -0.0216
  151loPI   PO4 2404  11.161  14.997  10.723  0.2018 -0.3324 -0.1561
  151loPI   GL1 2405  11.291  15.082  10.256  0.1539  0.1479  0.1910
  151loPI   GL2 2406  11.569  14.891  10.108  0.1175 -0.2301  0.2207
  151loPI   C1A 2407  11.070  15.202   9.887 -0.0235  0.0189 -0.0576
  151loPI   C2A 2408  10.872  14.878   9.526  0.2772  0.0562 -0.5041
  151loPI   C3A 2409  10.849  14.786   9.093  0.0537  0.2900 -0.2728
  151loPI   C4A 2410  10.646  14.612   8.769  0.2020  0.1506 -0.2370
  151loPI   C5A 2411  10.635  14.619   8.418  0.1032  0.2653  0.1186
  151loPI   C6A 2412  10.422  14.985   8.248  0.1621  0.1611  0.1258
  151loPI   C1B 2413  11.345  14.822   9.660 -0.1232  0.2643 -0.0036
  151loPI   C2B 2414  11.348  14.789   9.180 -0.1938 -0.0133  0.0150
  151loPI   C3B 2415  11.293  14.809   8.823  0.1868  0.0474  0.0785
  151loPI   C4B 2416  11.221  14.700   8.452 -0.1550 -0.2916  0.1002
  152loPI    C1 2417   8.783  11.276  11.397 -0.1393  0.1646  0.0612
  152loPI    C2 2418   8.890  11.304  11.781  0.0255  0.1275  0.0185
  152loPI    C3 2419   8.757  10.956  11.636  0.0568  0.1155  0.0184
  152loPI   PO4 2420   8.978  11.400  11.208  0.0164  0.1651 -0.0151
  152loPI   GL1 2421   9.129  11.337  10.820  0.2338 -0.1001 -0.0920
  152loPI   GL2 2422   8.920  11.198  10.743 -0.3947 -0.3781 -0.3770
  152loPI   C1A 2423   9.348  11.291  10.388  0.0237  0.3257  0.0374
  152loPI   C2A 2424   9.327  11.216   9.873  0.1601  0.3103 -0.4446
  152loPI   C3A 2425   9.355  11.145   9.443  0.0205 -0.1218  0.0545
  152loPI   C4A 2426   9.222  11.070   9.072  0.2130  0.0003  0.1473
  152loPI   C5A 2427   9.408  11.320   8.725 -0.1016 -0.1271  0.0098
  152loPI   C6A 2428   9.361  11.684   8.574  0.0893  0.0532 -0.2944
  152loPI   C1B 2429   8.882  11.133  10.343  0.0534 -0.0119  0.1977
  152loPI   C2B 2430   8.863  10.973   9.922 -0.0974  0.2066 -0.0186
  152loPI   C3B 2431   8.784  10.935   9.597 -0.2004  0.3479  0.0008
  152loPI   C4B 2432   8.764  10.829   9.178 -0.0875 -0.0522  0.1483
  153loPI    C1 2433   0.319  10.031  11.274 -0.1994  0.2725  0.0420
  153loPI    C2 2434   0.377   9.923  11.655  0.0612 -0.0497 -0.0842
  153loPI    C3 2435   0.586  10.226  11.499 -0.0857  0.1187  0.0416
  153loPI   PO4 2436   0.405   9.917  11.121  0.0667  0.1008  0.0096
  153loPI   GL1 2437   0.556   9.574  11.021 -0.1323 -0.2496 -0.0737
  153loPI   GL2 2438   0.255   9.395  10.989 -0.1301  0.0261 -0.1375
  153loPI   C1A 2439   0.570   9.380  10.617 -0.0837  0.2447  0.0010
  153loPI   C2A 2440   0.476   9.518  10.178 -0.0115  0.0666  0.3371
  153loPI   C3A 2441   0.445   9.438   9.748 -0.0233  0.1152  0.3276
  153loPI   C4A 2442   0.471   9.493   9.271  0.1846 -0.0912 -0.0265
  153loPI   C5A 2443   0.242   9.626   8.867  0.0004 -0.0531  0.1497
  153loPI   C6A 2444   0.160  10.038   8.639 -0.2449  0.3233 -0.1163
  153loPI   C1B 2445   0.128   9.213  10.583  0.0652 -0.1257 -0.2987
  153loPI   C2B 2446   0.089   9.261  10.160 -0.1429  0.0627  0.0224
  153loPI   C3B 2447  -0.040   9.294   9.780 -0.0878  0.0551 -0.0227
  153loPI   C4B 2448  -0.008   9.298   9.345 -0.1428  0.2989  0.1086
  154loPI    C1 2449   7.897  10.199  11.211 -0.0732  0.0520 -0.1205
  154loPI    C2 2450   7.746  10.369  11.540  0.0399 -0.0223 -0.0297
  154loPI    C3 2451   8.118  10.223  11.543  0.0293 -0.0541 -0.1806
  154loPI   PO4 2452   7.854  10.391  11.022 -0.0144  0.4055 -0.0027
  154loPI   GL1 2453   8.017  10.377  10.663 -0.2915 -0.1632 -0.2754
  154loPI   GL2 2454   7.995  10.157  10.502  0.0134 -0.2016  0.0535
  154loPI   C1A 2455   7.899  10.643  10.261  0.0677 -0.0970 -0.0689
  154loPI   C2A 2456   7.903  10.581   9.881 -0.1998  0.1350  0.0335
  154loPI   C3A 2457   7.795  10.555   9.483  0.2757  0.2937  0.3598
  154loPI   C4A 2458   7.789  10.469   9.067  0.0903  0.2971 -0.2245
  154loPI   C5A 2459   7.722  10.410   8.592 -0.1026  0.0751  0.2757
  154loPI   C6A 2460   7.692  10.484   8.179 -0.1839 -0.0970 -0.1299
  154loPI   C1B 2461   7.888  10.088  10.076  0.4744 -0.1778  0.3071
  154loPI   C2B 2462   7.807  10.085   9.653 -0.1405  0.0354  0.2548
  154loPI   C3B 2463   7.756  10.015   9.346  0.0618  0.0373  0.0275
  154loPI   C4B 2464   7.672  10.037   8.931 -0.0729  0.2824 -0.0195
  155loPI    C1 2465  14.659  14.967  10.998 -0.0256 -0.0260 -0.1221
  155loPI    C2 2466  15.039  15.022  11.110 -0.0297 -0.1949 -0.0217
  155loPI    C3 2467  14.795  14.798  11.334 -0.3006  0.2363  0.1273
  155loPI   PO4 2468  14.704  15.079  10.750 -0.2782  0.0033 -0.1637
  155loPI   GL1 2469  14.480  15.048  10.412  0.3520  0.0007  0.2299
  155loPI   GL2 2470  14.776  15.110  10.178  0.0537  0.0235 -0.0449
  155loPI   C1A 2471  14.350  14.860  10.010 -0.3670 -0.3307  0.0774
  155loPI   C2A 2472  14.298  14.773   9.589  0.1189 -0.0628  0.1249
  155loPI   C3A 2473  14.339  14.833   9.147 -0.1967 -0.2003  0.0179
  155loPI   C4A 2474  14.279  14.780   8.849  0.0770 -0.1635 -0.4305
  155loPI   C5A 2475  14.545  14.904   8.418 -0.3467  0.2074 -0.0087
  155loPI   C6A 2476  14.509  14.729   7.988  0.1622 -0.0407  0.2097
  155loPI   C1B 2477  14.750  15.033   9.726  0.0137 -0.2026  0.0981
  155loPI   C2B 2478  14.759  14.993   9.311 -0.1203  0.0472 -0.1441
  155loPI   C3B 2479  14.858  14.913   8.848 -0.1669 -0.0866 -0.1004
  155loPI   C4B 2480  15.027  15.018   8.339 -0.1510 -0.2402 -0.0594
  156loPI    C1 2481  16.534   2.007  11.468 -0.2713  0.1128 -0.2333
  156loPI    C2 2482  16.171   1.902  11.597 -0.1712  0.3042  0.2227
  156loPI    C3 2483  16.496   1.729  11.753 -0.0640 -0.0644 -0.3745
  156loPI   PO4 2484  16.470   2.223  11.234 -0.1293  0.1048 -0.4037
  156loPI   GL1 2485  16.468   2.236  10.854 -0.1997  0.3022 -0.1298
  156loPI   GL2 2486  16.598   2.566  10.766  0.1599  0.0094 -0.0396
  156loPI   C1A 2487  16.754   2.197  10.472  0.1440 -0.1605  0.0273
  156loPI   C2A 2488  16.903   2.277  10.100  0.3417 -0.4158 -0.2423
  156loPI   C3A 2489  16.941   2.310   9.648 -0.4952  0.0612 -0.0464
  156loPI   C4A 2490  16.913   2.214   9.191 -0.0742  0.3652 -0.2151
  156loPI   C5A 2491  16.915   2.192   8.833  0.1116  0.0449 -0.0601
  156loPI   C6A 2492  17.072   1.886   8.533 -0.1550  0.0311 -0.1351
  156loPI   C1B 2493  16.890   2.674  10.393 -0.1247 -0.3263  0.1775
  156loPI   C2B 2494  17.044   2.766   9.957  0.2548  0.3563 -0.2308
  156loPI   C3B 2495  16.983   2.814   9.570 -0.0364  0.0144 -0.0780
  156loPI   C4B 2496  16.992   2.813   9.130  0.1279  0.1269 -0.3489
  157loPI    C1 2497  11.984  15.310  10.798  0.1134 -0.1581 -0.1293
  157loPI    C2 2498  11.931  14.979  11.017 -0.0676  0.1319  0.2793
  157loPI    C3 2499  11.769  15.324  11.135 -0.0354  0.3331 -0.2379
  157loPI   PO4 2500  11.983  15.251  10.576  0.3095  0.0802  0.0260
  157loPI   GL1 2501  12.232  15.412  10.184  0.0430  0.4375  0.0217
  157loPI   GL2 2502  12.478  15.240  10.371  0.0830  0.1596  0.1492
  157loPI   C1A 2503  12.161  15.347   9.786  0.1647  0.0800  0.0814
  157loPI   C2A 2504  12.065  15.308   9.343  0.2619 -0.0145 -0.1567
  157loPI   C3A 2505  12.108  15.328   9.010 -0.2655  0.1099  0.0139
  157loPI   C4A 2506  12.227  15.144   8.552 -0.3284  0.1515 -0.0982
  157loPI   C5A 2507  12.232  14.854   8.221 -0.1671  0.5326 -0.1537
  157loPI   C6A 2508  11.978  14.567   7.934  0.1060 -0.0391 -0.2483
  157loPI   C1B 2509  12.558  15.058  10.067 -0.0842  0.2886 -0.0337
  157loPI   C2B 2510  12.472  15.019   9.628  0.3703 -0.0853 -0.1446
  157loPI   C3B 2511  12.425  15.057   9.224 -0.0948  0.1514  0.1670
  157loPI   C4B 2512  12.565  14.877   8.867  0.0172 -0.4066  0.0424
  158loPI    C1 2513   2.084  13.527  11.208  0.0865 -0.1331  0.1006
  158loPI    C2 2514   1.965  13.454  11.583  0.1724  0.0009  0.1550
  158loPI    C3 2515   2.355  13.453  11.493  0.1613  0.1417  0.1037
  158loPI   PO4 2516   1.908  13.669  11.125  0.0864 -0.1014 -0.0650
  158loPI   GL1 2517   2.013  13.849  10.705 -0.1352 -0.1509  0.1037
  158loPI   GL2 2518   2.289  13.744  10.743  0.1340 -0.1908  0.2047
  158loPI   C1A 2519   2.095  14.006  10.311  0.2690  0.0266  0.0936
  158loPI   C2A 2520   2.137  14.051   9.791 -0.0628 -0.1681 -0.4339
  158loPI   C3A 2521   2.066  13.965   9.405 -0.1018 -0.2265  0.0993
  158loPI   C4A 2522   2.114  14.023   9.023  0.0516 -0.2304  0.2589
  158loPI   C5A 2523   1.947  14.305   8.621  0.3568  0.1647  0.0436
  158loPI   C6A 2524   1.914  14.735   8.264 -0.1248 -0.1238  0.0889
  158loPI   C1B 2525   2.457  13.634  10.399 -0.2711  0.0946 -0.2871
  158loPI   C2B 2526   2.510  13.659   9.930  0.2344 -0.0554 -0.0945
  158loPI   C3B 2527   2.531  13.671   9.484  0.1390  0.3687  0.0693
  158loPI   C4B 2528   2.416  13.676   9.027 -0.2285  0.1578 -0.3945
  159loPI    C1 2529   7.050   0.318  10.728  0.3206 -0.0341 -0.1991
  159loPI    C2 2530   7.105   0.676  10.898  0.2592 -0.0774 -0.0869
  159loPI    C3 2531   7.026   0.357  11.126 -0.2131 -0.0632 -0.2205
  159loPI   PO4 2532   6.812   0.434  10.508 -0.0765  0.0663 -0.0550
  159loPI   GL1 2533   6.623   0.611  10.171 -0.0184 -0.4856  0.2616
  159loPI   GL2 2534   6.855   0.857  10.058 -0.3019 -0.0687  0.2298
  159loPI   C1A 2535   6.333   0.581   9.863 -0.0021  0.0131 -0.1031
  159loPI   C2A 2536   6.338   0.673   9.397 -0.2858 -0.2957  0.1631
  159loPI   C3A 2537   6.381   0.752   8.984 -0.0445  0.2032  0.3191
  159loPI   C4A 2538   6.298   0.767   8.551  0.0644 -0.1185  0.0482
  159loPI   C5A 2539   6.328   0.934   8.130 -0.2261  0.1579 -0.1965
  159loPI   C6A 2540   6.293   1.382   8.061 -0.0796  0.0375 -0.0913
  159loPI   C1B 2541   6.783   0.821   9.729 -0.1099  0.1106 -0.0993
  159loPI   C2B 2542   6.800   0.830   9.303  0.1712 -0.2057 -0.0950
  159loPI   C3B 2543   6.870   0.859   8.779 -0.1452  0.0730  0.0344
  159loPI   C4B 2544   6.815   0.728   8.289  0.1734  0.0530 -0.2528
  160loPI    C1 2545   3.690  14.011  11.659 -0.0065  0.1924 -0.1915
  160loPI    C2 2546   3.799  13.651  11.794  0.1644  0.2986 -0.0410
  160loPI    C3 2547   3.517  13.859  11.986  0.0732  0.2503 -0.1218
  160loPI   PO4 2548   3.673  14.001  11.408 -0.0440  0.3243 -0.0459
  160loPI   GL1 2549   3.961  13.959  11.014  0.0761  0.0439  0.0309
  160loPI   GL2 2550   3.855  14.275  10.866 -0.0407 -0.1182  0.4092
  160loPI   C1A 2551   3.892  13.810  10.615  0.0924 -0.0077 -0.0525
  160loPI   C2A 2552   3.851  13.813  10.173 -0.0722 -0.1443 -0.1848
  160loPI   C3A 2553   3.893  13.709   9.750 -0.0532 -0.1514 -0.1256
  160loPI   C4A 2554   3.841  13.828   9.324 -0.0117  0.0709 -0.1198
  160loPI   C5A 2555   3.897  13.886   8.874  0.0678  0.0465 -0.0686
  160loPI   C6A 2556   3.755  13.713   8.457  0.1120  0.1498  0.2398
  160loPI   C1B 2557   3.839  14.266  10.438  0.2142 -0.2231 -0.2535
  160loPI   C2B 2558   3.920  14.281   9.946  0.0111 -0.2099 -0.0039
  160loPI   C3B 2559   3.949  14.287   9.504  0.0844 -0.0212  0.0102
  160loPI   C4B 2560   3.897  14.330   9.084 -0.1432  0.1208  0.2733
  161loPI    C1 2561  13.273  12.462  11.205  0.0447  0.4776 -0.0349
  161loPI    C2 2562  13.458  12.498  11.557 -0.0486  0.2557  0.0385
  161loPI    C3 2563  13.063  12.554  11.533 -0.0901 -0.0262  0.0287
  161loPI   PO4 2564  13.431  12.590  11.069 -0.1304  0.1106  0.1185
  161loPI   GL1 2565  13.536  12.364  10.669 -0.0468  0.2220  0.2160
  161loPI   GL2 2566  13.518  12.082  10.830  0.0009  0.2637 -0.2288
  161loPI   C1A 2567  13.503  12.527  10.241  0.2017  0.2097 -0.3030
  161loPI   C2A 2568  13.591  12.448   9.890 -0.1304  0.1327 -0.3501
  161loPI   C3A 2569  13.575  12.570   9.434  0.0041  0.2410  0.0396
  161loPI   C4A 2570  13.486  12.536   9.014 -0.1679 -0.1206  0.0709
  161loPI   C5A 2571  13.490  12.340   8.633 -0.1579  0.0307  0.1860
  161loPI   C6A 2572  13.878  12.498   8.404  0.1036 -0.2932 -0.0626
  161loPI   C1B 2573  13.575  12.040  10.289 -0.4744 -0.0076  0.0642
  161loPI   C2B 2574  13.531  11.974   9.872  0.0806 -0.2802  0.1680
  161loPI   C3B 2575  13.493  12.022   9.483 -0.0500  0.0191 -0.1588
  161loPI   C4B 2576  13.511  11.879   9.095 -0.0892  0.1042  0.0129
  162loPI    C1 2577  10.367   5.218  11.479 -0.1150  0.1369 -0.0493
  162loPI    C2 2578  10.175   4.870  11.524  0.1009  0.0193 -0.0247
  162loPI    C3 2579  10.123   5.163  11.792 -0.0824  0.0077 -0.0462
  162loPI   PO4 2580  10.441   5.129  11.154 -0.2433  0.1207 -0.0886
  162loPI   GL1 2581  10.402   4.947  10.757 -0.1359 -0.0335  0.0064
  162loPI   GL2 2582  10.403   4.711  10.654  0.1432  0.0228 -0.3319
  162loPI   C1A 2583  10.523   5.138  10.365 -0.1579  0.0083  0.0148
  162loPI   C2A 2584  10.480   5.168   9.935  0.0026  0.1214 -0.3335
  162loPI   C3A 2585  10.423   5.269   9.556 -0.0909 -0.0118  0.0464
  162loPI   C4A 2586  10.403   5.241   9.137  0.0414  0.4199  0.0468
  162loPI   C5A 2587  10.360   5.253   8.772 -0.1145  0.1790 -0.3093
  162loPI   C6A 2588   9.921   5.122   8.677  0.1510  0.0396  0.0916
  162loPI   C1B 2589  10.349   4.710  10.172 -0.0346 -0.0267  0.0461
  162loPI   C2B 2590  10.371   4.686   9.720  0.1105 -0.1171 -0.2457
  162loPI   C3B 2591  10.323   4.785   9.287  0.0143 -0.1228 -0.2814
  162loPI   C4B 2592  10.159   4.732   8.868 -0.2125 -0.0479 -0.1359
  163loPI    C1 2593   3.417  14.869  11.267 -0.3357 -0.1532 -0.0392
  163loPI    C2 2594   3.614  15.089  11.537 -0.1670 -0.1108 -0.1954
  163loPI    C3 2595   3.404  14.769  11.654 -0.2179 -0.0058  0.0036
  163loPI   PO4 2596   3.379  15.044  11.061 -0.0276 -0.0101  0.0177
  163loPI   GL1 2597   3.123  15.004  10.615 -0.1787  0.3662  0.1130
  163loPI   GL2 2598   2.773  15.071  10.571 -0.0078 -0.1167 -0.0737
  163loPI   C1A 2599   3.153  14.833  10.137  0.0166 -0.0933  0.0556
  163loPI   C2A 2600   3.098  14.939   9.682 -0.0783  0.0793  0.0464
  163loPI   C3A 2601   3.110  15.013   9.307 -0.3278 -0.3701  0.0797
  163loPI   C4A 2602   3.065  15.071   8.821  0.1305 -0.0739 -0.3440
  163loPI   C5A 2603   2.952  15.311   8.543  0.2337  0.0558  0.0303
  163loPI   C6A 2604   3.060  15.395   8.192  0.1554 -0.2591 -0.1330
  163loPI   C1B 2605   2.709  15.247  10.063  0.0427  0.0171  0.0029
  163loPI   C2B 2606   2.717  15.279   9.549 -0.0897 -0.2050 -0.1642
  163loPI   C3B 2607   2.663  15.232   9.172 -0.0290  0.1602  0.0752
  163loPI   C4B 2608   2.565  15.368   8.821  0.1795  0.1547  0.0659
  164loPI    C1 2609  14.403  11.264  11.623 -0.0890  0.1165 -0.0783
  164loPI    C2 2610  14.737  11.134  11.801 -0.0961  0.1164 -0.0650
  164loPI    C3 2611  14.417  11.232  12.021 -0.1625 -0.0453 -0.0880
  164loPI   PO4 2612  14.551  11.395  11.343  0.0526  0.2161  0.0380
  164loPI   GL1 2613  14.442  11.304  10.936 -0.1400  0.0675 -0.0373
  164loPI   GL2 2614  14.185  11.304  10.830  0.0333 -0.0674 -0.0622
  164loPI   C1A 2615  14.671  11.094  10.668 -0.0372 -0.0804 -0.0646
  164loPI   C2A 2616  14.710  11.059  10.220  0.1884 -0.2086  0.2480
  164loPI   C3A 2617  14.646  11.086   9.772 -0.1245 -0.1207  0.1433
  164loPI   C4A 2618  14.697  11.056   9.342 -0.1135 -0.0887  0.0165
  164loPI   C5A 2619  14.667  11.050   8.950 -0.2038  0.0385  0.0520
  164loPI   C6A 2620  14.463  11.014   8.520  0.0239  0.0931 -0.1623
  164loPI   C1B 2621  14.311  11.445  10.478 -0.1880 -0.1940  0.3451
  164loPI   C2B 2622  14.329  11.340  10.035  0.0517 -0.1064  0.0087
  164loPI   C3B 2623  14.264  11.369   9.646 -0.1803  0.2184 -0.1328
  164loPI   C4B 2624  14.310  11.312   9.167 -0.0703  0.0589  0.2133
  165loPI    C1 2625  16.632  11.048  11.533  0.1171 -0.1204 -0.1392
  165loPI    C2 2626  16.707  10.744  11.783  0.4604  0.2467  0.2181
  165loPI    C3 2627  16.517  11.071  11.916 -0.1584  0.0891 -0.2310
  165loPI   PO4 2628  16.755  11.025  11.380 -0.0037  0.1229  0.0786
  165loPI   GL1 2629  16.920  11.028  10.873 -0.2819 -0.0081 -0.2052
  165loPI   GL2 2630  16.876  10.683  11.012 -0.0779  0.2160 -0.0733
  165loPI   C1A 2631  17.002  10.891  10.429  0.1541 -0.0413 -0.2074
  165loPI   C2A 2632  17.021  10.852   9.970  0.3112 -0.0620 -0.1522
  165loPI   C3A 2633  16.927  10.974   9.553  0.2693 -0.3093 -0.0955
  165loPI   C4A 2634  16.985  11.002   9.124 -0.1395 -0.2376  0.1276
  165loPI   C5A 2635  17.090  10.865   8.853 -0.2336  0.0531  0.0824
  165loPI   C6A 2636  16.945  10.451   8.847 -0.0936 -0.0543 -0.2977
  165loPI   C1B 2637  16.876  10.411  10.559 -0.1417  0.0810  0.3332
  165loPI   C2B 2638  16.938  10.409  10.230  0.2482 -0.2462  0.3077
  165loPI   C3B 2639  16.912  10.423   9.824 -0.5665 -0.0893 -0.0175
  165loPI   C4B 2640  16.920  10.459   9.310  0.2712  0.1246 -0.2028
  166loPI    C1 2641  17.311  14.885  11.120  0.0635 -0.0284  0.0573
  166loPI    C2 2642  17.291  15.092  11.461  0.0308  0.0654 -0.0011
  166loPI    C3 2643  17.326  14.693  11.471  0.3409  0.0923  0.1138
  166loPI   PO4 2644  17.350  14.955  10.960 -0.0321  0.2167  0.1648
  166loPI   GL1 2645  17.264  14.827  10.518 -0.0110 -0.1435  0.4994
  166loPI   GL2 2646  17.376  14.581  10.335  0.0561  0.2992 -0.0319
  166loPI   C1A 2647  17.531  15.053  10.182 -0.0909 -0.0487  0.0805
  166loPI   C2A 2648  17.570  15.106   9.707 -0.0260  0.0087 -0.0379
  166loPI   C3A 2649  17.635  15.142   9.238 -0.1107  0.3133  0.0609
  166loPI   C4A 2650  17.441  15.158   8.798 -0.0761 -0.1588  0.0807
  166loPI   C5A 2651  17.308  14.863   8.447 -0.3817 -0.0178 -0.0242
  166loPI   C6A 2652  17.116  14.662   8.117 -0.0506  0.1079 -0.0253
  166loPI   C1B 2653  17.461  14.552   9.965  0.4685  0.0389 -0.1643
  166loPI   C2B 2654  17.523  14.591   9.542 -0.0375  0.1241 -0.1461
  166loPI   C3B 2655  17.545  14.656   9.160 -0.0276  0.1814  0.1724
  166loPI   C4B 2656  17.518  14.381   8.704  0.7650 -0.1200  0.1753
  167loPI    C1 2657  14.482  15.922  10.759 -0.0158  0.0041 -0.1460
  167loPI    C2 2658  14.298  16.216  10.560 -0.0029  0.0474 -0.0939
  167loPI    C3 2659  14.297  16.214  10.960 -0.1194 -0.0963 -0.0943
  167loPI   PO4 2660  14.824  15.917  10.670 -0.0938 -0.2189 -0.1031
  167loPI   GL1 2661  14.921  15.813  10.210  0.1237  0.2606  0.3295
  167loPI   GL2 2662  14.610  15.955  10.255  0.0844  0.1854 -0.2142
  167loPI   C1A 2663  14.769  15.580   9.838 -0.0893  0.0157  0.2954
  167loPI   C2A 2664  14.880  15.595   9.349 -0.0008  0.0732 -0.1096
  167loPI   C3A 2665  14.965  15.450   8.976  0.3090  0.1594 -0.0689
  167loPI   C4A 2666  15.157  15.472   8.556  0.0096  0.2035  0.2342
  167loPI   C5A 2667  15.419  15.342   8.176  0.0323  0.1666  0.0482
  167loPI   C6A 2668  15.482  15.044   7.888  0.1053 -0.0491 -0.4296
  167loPI   C1B 2669  14.389  15.901   9.765 -0.2085 -0.0170 -0.1444
  167loPI   C2B 2670  14.382  15.813   9.300  0.2410 -0.0997  0.0292
  167loPI   C3B 2671  14.426  15.846   8.843 -0.1620  0.0939  0.1906
  167loPI   C4B 2672  14.776  15.821   8.564 -0.1775  0.1269 -0.0027
  168loPI    C1 2673  12.267   2.998  10.953 -0.2672  0.1835 -0.1156
  168loPI    C2 2674  11.897   3.026  11.103 -0.2093  0.0907  0.0480
  168loPI    C3 2675  12.181   2.830  11.306 -0.0991  0.0627 -0.1306
  168loPI   PO4 2676  12.211   3.092  10.737  0.2777  0.1758  0.1252
  168loPI   GL1 2677  12.229   3.013  10.369  0.1421  0.1571  0.1449
  168loPI   GL2 2678  11.915   3.109  10.163 -0.3142 -0.1993  0.1205
  168loPI   C1A 2679  12.498   2.990   9.923  0.3217 -0.1562  0.1012
  168loPI   C2A 2680  12.461   2.904   9.560  0.0666  0.3164 -0.0470
  168loPI   C3A 2681  12.447   3.147   9.187  0.0996 -0.3520 -0.0310
  168loPI   C4A 2682  12.356   3.146   8.783 -0.0058 -0.1841  0.3371
  168loPI   C5A 2683  12.206   3.374   8.433  0.0694 -0.0750 -0.2324
  168loPI   C6A 2684  12.249   3.802   8.441  0.0008  0.3655  0.0131
  168loPI   C1B 2685  12.034   3.107   9.826 -0.2614 -0.0161  0.1140
  168loPI   C2B 2686  12.053   3.119   9.522  0.0645 -0.2148  0.1926
  168loPI   C3B 2687  11.991   3.347   9.228 -0.0106  0.0090 -0.2664
  168loPI   C4B 2688  11.928   3.440   8.870  0.0972 -0.0507  0.1719
  169loPI    C1 2689   7.732   5.786  11.243 -0.2292  0.0197 -0.0046
  169loPI    C2 2690   7.843   5.975  11.578 -0.0961 -0.0621 -0.0019
  169loPI    C3 2691   7.483   6.046  11.419 -0.0735  0.1435  0.0356
  169loPI   PO4 2692   7.988   5.852  11.076  0.1586 -0.1657  0.0968
  169loPI   GL1 2693   8.043   5.793  10.759 -0.0094  0.0371 -0.1727
  169loPI   GL2 2694   7.823   5.525  10.522  0.1064  0.1162 -0.0238
  169loPI   C1A 2695   7.895   6.028  10.351  0.2206  0.1947 -0.1078
  169loPI   C2A 2696   7.826   5.928   9.957 -0.3612 -0.4488  0.5401
  169loPI   C3A 2697   7.717   6.005   9.508 -0.1831 -0.0030 -0.0778
  169loPI   C4A 2698   7.686   5.958   9.160 -0.2247 -0.1119  0.0913
  169loPI   C5A 2699   7.845   5.904   8.673 -0.1284 -0.0584  0.1139
  169loPI   C6A 2700   8.211   5.747   8.453  0.0193 -0.1497  0.0456
  169loPI   C1B 2701   7.769   5.494  10.104  0.2945  0.1077 -0.4061
  169loPI   C2B 2702   7.698   5.513   9.673 -0.0847  0.2558  0.0428
  169loPI   C3B 2703   7.581   5.466   9.233 -0.1615  0.0551 -0.0421
  169loPI   C4B 2704   7.579   5.488   8.812 -0.0018  0.2697  0.0493
  170loPI    C1 2705  10.655   6.360  11.331  0.0284 -0.0158 -0.1216
  170loPI    C2 2706  10.482   6.649  11.547  0.1048  0.0878 -0.1984
  170loPI    C3 2707  10.813   6.470  11.682  0.0781  0.0613 -0.1678
  170loPI   PO4 2708  10.650   6.443  11.069  0.1412 -0.0267  0.3205
  170loPI   GL1 2709  10.823   6.400  10.688 -0.1522  0.0015  0.0284
  170loPI   GL2 2710  10.728   6.647  10.513  0.0963 -0.1344  0.1319
  170loPI   C1A 2711  11.072   6.437  10.255 -0.1047  0.0865  0.0950
  170loPI   C2A 2712  10.986   6.365   9.810  0.1791  0.2013  0.1190
  170loPI   C3A 2713  11.022   6.511   9.466  0.0248 -0.0387 -0.1494
  170loPI   C4A 2714  10.977   6.548   8.978 -0.1152 -0.1849 -0.1262
  170loPI   C5A 2715  10.885   6.446   8.584  0.1440  0.1015  0.0782
  170loPI   C6A 2716  10.653   6.465   8.184 -0.0601 -0.0185 -0.1924
  170loPI   C1B 2717  10.601   6.685  10.073  0.2339 -0.0325 -0.3532
  170loPI   C2B 2718  10.533   6.798   9.687 -0.1973 -0.2891  0.0971
  170loPI   C3B 2719  10.601   6.773   9.203  0.0809 -0.3850 -0.2954
  170loPI   C4B 2720  10.416   6.823   8.801  0.0083  0.2389 -0.2079
  171loPI    C1 2721   4.029  15.872  11.040  0.0595  0.2237  0.1481
  171loPI    C2 2722   4.028  15.709  11.405 -0.1004  0.1493  0.1151
  171loPI    C3 2723   4.084  16.103  11.362 -0.0213  0.1493  0.2157
  171loPI   PO4 2724   3.989  15.668  10.910 -0.0701  0.0606 -0.0713
  171loPI   GL1 2725   3.822  15.577  10.454  0.0207 -0.0797 -0.0960
  171loPI   GL2 2726   3.604  15.749  10.357 -0.1072  0.1514 -0.0189
  171loPI   C1A 2727   4.014  15.333  10.117  0.1523  0.0482  0.2104
  171loPI   C2A 2728   3.969  15.331   9.669  0.1464  0.0017  0.3910
  171loPI   C3A 2729   4.028  15.354   9.275  0.2956 -0.0287 -0.3866
  171loPI   C4A 2730   4.031  15.483   8.847 -0.3379  0.2014  0.2019
  171loPI   C5A 2731   3.981  15.608   8.371  0.1370 -0.2902 -0.1771
  171loPI   C6A 2732   3.900  15.431   7.805  0.0703 -0.0346 -0.0300
  171loPI   C1B 2733   3.624  15.612  10.001  0.1102 -0.2665  0.1673
  171loPI   C2B 2734   3.605  15.659   9.581 -0.1317 -0.2889 -0.2587
  171loPI   C3B 2735   3.670  15.724   9.184 -0.0463 -0.1209  0.0791
  171loPI   C4B 2736   3.776  15.950   8.808  0.1663  0.1329  0.2700
  172loPI    C1 2737   6.688   8.391  11.335 -0.1063  0.0003  0.1089
  172loPI    C2 2738   6.680   8.577  11.690 -0.0616 -0.0409  0.1317
  172loPI    C3 2739   6.593   8.188  11.666  0.0491 -0.0651  0.1145
  172loPI   PO4 2740   6.913   8.407  11.206  0.0808 -0.1194  0.0916
  172loPI   GL1 2741   6.951   8.257  10.735 -0.0135  0.0522 -0.1736
  172loPI   GL2 2742   7.222   8.390  10.679 -0.1774  0.0710  0.0086
  172loPI   C1A 2743   6.724   8.132  10.418 -0.1061 -0.0637 -0.1442
  172loPI   C2A 2744   6.643   8.077   9.927  0.4390  0.0908 -0.1546
  172loPI   C3A 2745   6.604   8.012   9.440  0.2151  0.5084 -0.4362
  172loPI   C4A 2746   6.474   7.998   9.047 -0.0479  0.0964  0.0304
  172loPI   C5A 2747   6.548   8.113   8.630  0.3176  0.2403 -0.6928
  172loPI   C6A 2748   6.885   7.982   8.286  0.0368 -0.0441 -0.4139
  172loPI   C1B 2749   7.146   8.295  10.245 -0.2774 -0.0421 -0.2188
  172loPI   C2B 2750   7.158   8.261   9.799  0.0222  0.4782  0.0508
  172loPI   C3B 2751   7.044   8.177   9.427  0.0450 -0.0245  0.1113
  172loPI   C4B 2752   6.930   8.156   9.041 -0.3762  0.0449  0.1275
  173loPI    C1 2753   4.103   1.045  11.441  0.0536 -0.0958 -0.0221
  173loPI    C2 2754   4.047   1.365  11.675 -0.1967 -0.0842 -0.0948
  173loPI    C3 2755   3.805   1.048  11.708  0.1089 -0.3089  0.0444
  173loPI   PO4 2756   4.269   1.194  11.275 -0.0659  0.0009  0.0915
  173loPI   GL1 2757   4.440   1.238  10.806  0.0526  0.2540 -0.2363
  173loPI   GL2 2758   4.191   1.429  10.832  0.0322 -0.0822  0.1665
  173loPI   C1A 2759   4.640   1.308  10.364 -0.1035  0.2860 -0.1105
  173loPI   C2A 2760   4.697   1.440   9.928  0.0332  0.2154  0.0460
  173loPI   C3A 2761   4.663   1.444   9.507  0.0665 -0.0071  0.2362
  173loPI   C4A 2762   4.660   1.525   9.046  0.0980  0.0619 -0.1438
  173loPI   C5A 2763   4.756   1.654   8.607 -0.2856  0.3217  0.0238
  173loPI   C6A 2764   5.145   1.654   8.315 -0.0773 -0.1989  0.0928
  173loPI   C1B 2765   4.139   1.600  10.441 -0.1117  0.0009  0.1562
  173loPI   C2B 2766   4.344   1.728  10.225  0.1427 -0.0065 -0.0474
  173loPI   C3B 2767   4.287   1.752   9.858  0.0526 -0.0226 -0.1523
  173loPI   C4B 2768   4.213   1.681   9.336 -0.1244  0.0841  0.1515
  174loPI    C1 2769  10.808  16.440  10.346  0.1645 -0.2801 -0.2349
  174loPI    C2 2770  10.458  16.262  10.428 -0.0280  0.2302  0.0991
  174loPI    C3 2771  10.752  16.260  10.699  0.1849 -0.0775 -0.1271
  174loPI   PO4 2772  10.823  16.344  10.106 -0.0666  0.0172  0.0844
  174loPI   GL1 2773  10.736  16.453   9.713 -0.4271  0.1295  0.2663
  174loPI   GL2 2774  10.735  16.728   9.692 -0.1489 -0.2175 -0.1380
  174loPI   C1A 2775  10.657  16.318   9.354 -0.2298  0.2196  0.1958
  174loPI   C2A 2776  10.718  16.484   8.934  0.1086  0.1580  0.0741
  174loPI   C3A 2777  10.794  16.410   8.475  0.1120  0.0654 -0.1040
  174loPI   C4A 2778  10.678  16.425   8.064 -0.1962 -0.0783  0.1660
  174loPI   C5A 2779  10.473  16.461   7.735 -0.2776 -0.1088  0.1312
  174loPI   C6A 2780  10.563  16.472   7.279 -0.0582 -0.2859 -0.0891
  174loPI   C1B 2781  10.660  16.931   9.349 -0.0102 -0.4101  0.1059
  174loPI   C2B 2782  10.553  17.039   8.818  0.0227  0.0419  0.1279
  174loPI   C3B 2783  10.623  17.052   8.457  0.0149 -0.0735  0.5098
  174loPI   C4B 2784  10.553  17.419   8.096  0.2342  0.0785  0.5385
  175loPI    C1 2785  10.916   1.082  10.653 -0.1128 -0.2748 -0.2497
  175loPI    C2 2786  10.927   0.684  10.689 -0.0051 -0.2435  0.1017
  175loPI    C3 2787  10.790   0.908  10.990 -0.2372 -0.0220 -0.1631
  175loPI   PO4 2788  11.142   1.145  10.471 -0.0085 -0.0357 -0.3881
  175loPI   GL1 2789  11.061   1.061  10.043  0.0885 -0.1684  0.1859
  175loPI   GL2 2790  11.405   0.884   9.911 -0.0791  0.1142  0.0164
  175loPI   C1A 2791  10.948   1.030   9.674 -0.0381  0.1352 -0.0371
  175loPI   C2A 2792  10.979   1.122   9.212  0.1022  0.2095 -0.0304
  175loPI   C3A 2793  10.966   1.298   8.737 -0.1528  0.2576 -0.0670
  175loPI   C4A 2794  11.027   1.375   8.344  0.1978  0.0261 -0.1127
  175loPI   C5A 2795  10.805   1.562   7.975  0.0029 -0.1134 -0.0184
  175loPI   C6A 2796  10.773   1.991   7.666 -0.0909 -0.2524  0.0769
  175loPI   C1B 2797  11.452   0.855   9.501 -0.0344 -0.3468 -0.1277
  175loPI   C2B 2798  11.531   0.884   9.030  0.0322  0.1578  0.2505
  175loPI   C3B 2799  11.458   1.032   8.620 -0.1056  0.0975  0.0811
  175loPI   C4B 2800  11.721   1.191   8.374  0.1246 -0.2286 -0.2379
  176loPI    C1 2801   4.496   3.804  11.664 -0.1913 -0.0401 -0.0992
  176loPI    C2 2802   4.300   3.857  12.008 -0.0415  0.1155 -0.0361
  176loPI    C3 2803   4.689   3.765  12.012 -0.0766 -0.0422 -0.1625
  176loPI   PO4 2804   4.438   3.977  11.487  0.0630 -0.1886  0.0596
  176loPI   GL1 2805   4.220   3.961  11.036 -0.0486 -0.0601 -0.0888
  176loPI   GL2 2806   4.520   4.204  10.847  0.1537  0.2453 -0.4667
  176loPI   C1A 2807   4.191   3.782  10.643  0.1436 -0.2661 -0.0043
  176loPI   C2A 2808   4.136   3.623  10.237  0.1200  0.0260 -0.0140
  176loPI   C3A 2809   4.108   3.585   9.782 -0.4538  0.1999 -0.3650
  176loPI   C4A 2810   4.024   3.594   9.386 -0.0484 -0.1566  0.0175
  176loPI   C5A 2811   4.199   3.910   9.047 -0.1056  0.0992 -0.2068
  176loPI   C6A 2812   4.120   4.219   8.816 -0.1390 -0.0253 -0.2949
  176loPI   C1B 2813   4.461   4.293  10.468  0.0877  0.0269  0.2111
  176loPI   C2B 2814   4.318   4.119  10.219  0.0671 -0.1550  0.1940
  176loPI   C3B 2815   4.163   4.079   9.838  0.0098 -0.0623  0.0380
  176loPI   C4B 2816   4.119   4.278   9.376  0.1013 -0.1065 -0.0768
  177loPI    C1 2817  10.200  14.518  10.598  0.2624  0.1557 -0.1737
  177loPI    C2 2818   9.857  14.682  10.722  0.1137 -0.1245 -0.2058
  177loPI    C3 2819  10.206  14.851  10.820 -0.0263  0.0700 -0.0323
  177loPI   PO4 2820  10.184  14.446  10.398 -0.0540  0.2080  0.0300
  177loPI   GL1 2821  10.085  14.253  10.102 -0.0737 -0.0738  0.2417
  177loPI   GL2 2822  10.111  14.538   9.819  0.2368  0.0971 -0.1074
  177loPI   C1A 2823   9.936  14.097   9.718 -0.1332  0.0454  0.0042
  177loPI   C2A 2824  10.027  14.038   9.266 -0.0022  0.2916 -0.0446
  177loPI   C3A 2825  10.120  13.844   8.894 -0.0317  0.2156  0.0267
  177loPI   C4A 2826  10.039  13.859   8.468 -0.1594  0.2323 -0.2420
  177loPI   C5A 2827   9.776  13.715   8.229  0.0556  0.0530  0.0461
  177loPI   C6A 2828   9.672  13.384   8.097  0.1140  0.0987  0.2937
  177loPI   C1B 2829  10.092  14.461   9.489 -0.1534  0.1452 -0.0121
  177loPI   C2B 2830  10.181  14.434   8.975  0.3950  0.0072  0.0255
  177loPI   C3B 2831  10.176  14.438   8.584 -0.3776 -0.2042 -0.1831
  177loPI   C4B 2832  10.432  14.153   8.322  0.1770  0.0923  0.0546
  178loPI    C1 2833   1.790  10.593  11.420 -0.0925 -0.0832 -0.0275
  178loPI    C2 2834   1.769  10.219  11.561  0.1768 -0.0008  0.2413
  178loPI    C3 2835   1.453  10.462  11.592 -0.1504 -0.3303 -0.3186
  178loPI   PO4 2836   1.822  10.612  11.195 -0.0577 -0.0904 -0.0358
  178loPI   GL1 2837   1.732  10.736  10.839  0.0033  0.1187 -0.0284
  178loPI   GL2 2838   1.688  10.439  10.686  0.0306 -0.0465  0.0632
  178loPI   C1A 2839   1.773  10.963  10.468 -0.0589  0.2172 -0.1346
  178loPI   C2A 2840   1.650  10.947  10.027  0.2678 -0.0062  0.2685
  178loPI   C3A 2841   1.626  10.939   9.596  0.0515 -0.1729  0.1373
  178loPI   C4A 2842   1.667  10.952   9.122 -0.2005 -0.1561 -0.3977
  178loPI   C5A 2843   1.489  10.863   8.637  0.0274 -0.1210  0.0675
  178loPI   C6A 2844   1.307  10.543   8.368  0.0124  0.0521 -0.2263
  178loPI   C1B 2845   1.615  10.378  10.311 -0.2886 -0.0897 -0.2386
  178loPI   C2B 2846   1.597  10.441   9.880  0.0309  0.0567  0.0709
  178loPI   C3B 2847   1.599  10.464   9.416 -0.1357 -0.0762 -0.1497
  178loPI   C4B 2848   1.592  10.471   8.934  0.2392 -0.3288  0.0243
  179loPI    C1 2849  13.424  16.195  10.866 -0.1224  0.0609  0.0852
  179loPI    C2 2850  13.431  16.019  11.225 -0.0238 -0.1992 -0.0414
  179loPI    C3 2851  13.726  16.267  11.118 -0.2837  0.2416  0.2299
  179loPI   PO4 2852  13.360  16.074  10.654  0.0046 -0.0599  0.0091
  179loPI   GL1 2853  13.426  16.309  10.250 -0.2317 -0.0573 -0.0479
  179loPI   GL2 2854  13.565  16.528  10.081 -0.3569 -0.4465 -0.2611
  179loPI   C1A 2855  13.502  16.077   9.863 -0.1736 -0.3524 -0.0287
  179loPI   C2A 2856  13.453  16.015   9.421  0.0318  0.0634  0.0057
  179loPI   C3A 2857  13.534  15.924   9.019 -0.1603  0.0055  0.0461
  179loPI   C4A 2858  13.504  15.861   8.531  0.0796  0.2588 -0.1073
  179loPI   C5A 2859  13.699  16.104   8.176  0.1089  0.1748  0.0222
  179loPI   C6A 2860  13.961  16.064   7.950  0.0142 -0.1061 -0.1528
  179loPI   C1B 2861  13.631  16.458   9.596  0.0578  0.0035  0.2234
  179loPI   C2B 2862  13.649  16.408   9.170  0.1474 -0.1616 -0.0440
  179loPI   C3B 2863  13.482  16.355   8.711  0.1568 -0.1007 -0.1410
  179loPI   C4B 2864  13.833  16.543   8.401  0.0139  0.1312 -0.3149
  180loPI    C1 2865   6.665   1.809  10.800  0.0571  0.1622 -0.1051
  180loPI    C2 2866   6.897   1.519  10.949  0.1285  0.1419 -0.2543
  180loPI    C3 2867   6.796   1.832  11.177  0.0040 -0.0275 -0.0737
  180loPI   PO4 2868   6.796   1.856  10.528 -0.1906 -0.0487  0.0717
  180loPI   GL1 2869   6.755   1.773  10.179  0.0816 -0.2747  0.1050
  180loPI   GL2 2870   6.480   1.601  10.078 -0.1052  0.0978 -0.0994
  180loPI   C1A 2871   6.852   1.955   9.843 -0.0431  0.1195 -0.1282
  180loPI   C2A 2872   6.895   1.966   9.422  0.2416  0.3137  0.3272
  180loPI   C3A 2873   6.735   2.175   8.996 -0.3623  0.2383  0.1238
  180loPI   C4A 2874   6.573   2.338   8.687  0.1777  0.0547  0.1653
  180loPI   C5A 2875   6.453   2.411   8.337  0.1977 -0.1764  0.0079
  180loPI   C6A 2876   6.479   2.714   7.981  0.0230  0.1024 -0.0868
  180loPI   C1B 2877   6.482   1.658   9.649  0.0201 -0.2823  0.0731
  180loPI   C2B 2878   6.587   1.682   9.085 -0.2015  0.0958 -0.1293
  180loPI   C3B 2879   6.577   1.695   8.725 -0.4816 -0.3248  0.1397
  180loPI   C4B 2880   6.484   1.828   8.343 -0.0979 -0.0774  0.0125
  181loPI    C1 2881   3.797  17.158  10.937 -0.0282 -0.1114  0.1508
  181loPI    C2 2882   3.543  17.299  11.212  0.1474  0.0924  0.2114
  181loPI    C3 2883   3.757  16.970  11.288 -0.1341 -0.1118  0.1388
  181loPI   PO4 2884   3.823  17.414  10.811 -0.3203 -0.1632 -0.2580
  181loPI   GL1 2885   4.048  17.456  10.494  0.0374  0.0221  0.1133
  181loPI   GL2 2886   3.999  17.235  10.319 -0.1389 -0.1916 -0.1956
  181loPI   C1A 2887   4.025  17.713  10.179  0.2005  0.1842 -0.0575
  181loPI   C2A 2888   4.040  17.704   9.728 -0.1201 -0.0381 -0.2937
  181loPI   C3A 2889   3.973  17.845   9.290  0.1380  0.1410 -0.0381
  181loPI   C4A 2890   3.912  18.004   8.825  0.0246 -0.1250 -0.0510
  181loPI   C5A 2891   3.905  18.314   8.580  0.0750  0.0294 -0.1363
  181loPI   C6A 2892   3.710  18.731   8.545  0.0494 -0.1510 -0.2600
  181loPI   C1B 2893   3.931  17.265   9.994  0.0348  0.3556 -0.1567
  181loPI   C2B 2894   3.872  17.188   9.629 -0.2079 -0.2109 -0.1987
  181loPI   C3B 2895   3.922  17.364   9.303  0.0412  0.1785  0.0551
  181loPI   C4B 2896   3.742  17.478   8.891  0.0690  0.1237  0.0870
  182loPI    C1 2897   3.165   5.985  12.016  0.1411 -0.0750 -0.0753
  182loPI    C2 2898   3.404   5.732  12.214 -0.0403 -0.1075  0.1053
  182loPI    C3 2899   3.030   5.796  12.342  0.0229  0.3006  0.0987
  182loPI   PO4 2900   3.159   5.876  11.767  0.0424  0.4117  0.2620
  182loPI   GL1 2901   3.210   6.059  11.343 -0.0956  0.0066 -0.3483
  182loPI   GL2 2902   2.893   6.102  11.296 -0.1682  0.1907  0.1510
  182loPI   C1A 2903   3.192   6.012  10.919 -0.1440 -0.0406  0.1429
  182loPI   C2A 2904   3.234   6.128  10.477  0.0423 -0.1588  0.5277
  182loPI   C3A 2905   3.147   6.106  10.046  0.0568 -0.0189  0.2253
  182loPI   C4A 2906   3.056   6.241   9.623  0.2928  0.2380 -0.1578
  182loPI   C5A 2907   3.301   6.360   9.224  0.3068 -0.0772  0.3275
  182loPI   C6A 2908   3.573   6.209   8.866  0.0724  0.0278 -0.2691
  182loPI   C1B 2909   2.725   5.919  10.887 -0.3218  0.0690 -0.1341
  182loPI   C2B 2910   2.631   5.969  10.408  0.1533 -0.4065  0.0319
  182loPI   C3B 2911   2.646   6.009   9.890  0.4663 -0.0365  0.1890
  182loPI   C4B 2912   2.603   6.152   9.509 -0.0567 -0.0444  0.2049
  183loPI    C1 2913  10.834   7.993  11.132 -0.0088  0.0133 -0.0165
  183loPI    C2 2914  10.597   8.142  11.417 -0.1750  0.0721 -0.1835
  183loPI    C3 2915  10.980   8.061  11.498 -0.2532 -0.0337  0.0917
  183loPI   PO4 2916  10.840   8.126  10.944 -0.1506 -0.1287  0.0490
  183loPI   GL1 2917  10.652   7.927  10.632 -0.1340  0.1008 -0.2220
  183loPI   GL2 2918  10.784   7.693  10.665 -0.1248  0.2716  0.2526
  183loPI   C1A 2919  10.749   7.932  10.148  0.2708 -0.2444  0.0711
  183loPI   C2A 2920  10.649   7.798   9.734  0.0519  0.0203  0.1139
  183loPI   C3A 2921  10.557   7.891   9.318 -0.3482  0.1682  0.1022
  183loPI   C4A 2922  10.648   7.837   8.867  0.1350 -0.2509 -0.0818
  183loPI   C5A 2923  10.512   7.636   8.433 -0.1899  0.0859  0.1871
  183loPI   C6A 2924  10.444   7.270   8.452  0.1750 -0.0434  0.6589
  183loPI   C1B 2925  10.743   7.417  10.264 -0.1268 -0.2071 -0.2216
  183loPI   C2B 2926  10.622   7.277   9.832  0.2636  0.0112 -0.3687
  183loPI   C3B 2927  10.648   7.372   9.417 -0.0676 -0.1727 -0.1642
  183loPI   C4B 2928  10.500   7.363   8.913 -0.0128  0.2256  0.3285
  184loPI    C1 2929  12.958   2.694  10.792  0.1943  0.3554 -0.0592
  184loPI    C2 2930  12.568   2.607  10.769  0.2154  0.0943  0.4308
  184loPI    C3 2931  12.694   2.979  10.694 -0.1010  0.1383  0.0869
  184loPI   PO4 2932  13.143   2.533  10.704  0.1627 -0.0415  0.0766
  184loPI   GL1 2933  13.249   2.385  10.303 -0.0421  0.2057 -0.0610
  184loPI   GL2 2934  13.378   2.110  10.339 -0.0876  0.3464  0.2457
  184loPI   C1A 2935  13.411   2.377   9.905 -0.0409  0.3445  0.0873
  184loPI   C2A 2936  13.564   2.326   9.449 -0.0417 -0.0631  0.0834
  184loPI   C3A 2937  13.605   2.421   9.046 -0.0753 -0.1997 -0.1363
  184loPI   C4A 2938  13.747   2.524   8.568  0.1006 -0.1140  0.1790
  184loPI   C5A 2939  13.877   2.311   8.235 -0.0664  0.2610  0.0350
  184loPI   C6A 2940  13.560   2.206   7.850  0.0556  0.0699 -0.3148
  184loPI   C1B 2941  13.408   1.825  10.003 -0.1164 -0.1961 -0.0874
  184loPI   C2B 2942  13.378   1.878   9.625 -0.1130 -0.1385 -0.2110
  184loPI   C3B 2943  13.485   1.903   9.155  0.0892 -0.1172 -0.2857
  184loPI   C4B 2944  13.641   1.955   8.691 -0.1609 -0.0316  0.2511
  185loPI    C1 2945  14.036   9.585  11.536  0.3882  0.0381 -0.0659
  185loPI    C2 2946  14.087   9.663  11.924  0.0658 -0.1897  0.0269
  185loPI    C3 2947  14.078   9.284  11.797 -0.0081 -0.1203 -0.1775
  185loPI   PO4 2948  14.205   9.692  11.358  0.1764 -0.1332 -0.1453
  185loPI   GL1 2949  14.505   9.762  11.080  0.0713  0.0970 -0.0117
  185loPI   GL2 2950  14.549  10.002  10.962  0.0743  0.1294 -0.0577
  185loPI   C1A 2951  14.445   9.547  10.593 -0.0622 -0.3496  0.1787
  185loPI   C2A 2952  14.523   9.553  10.132  0.2130  0.0129 -0.1270
  185loPI   C3A 2953  14.479   9.529   9.637 -0.0337 -0.1536 -0.0581
  185loPI   C4A 2954  14.599   9.542   9.242 -0.0275  0.1614  0.0401
  185loPI   C5A 2955  14.519   9.708   8.898  0.1110 -0.0949  0.0319
  185loPI   C6A 2956  14.443  10.077   8.677  0.0229  0.0488  0.1590
  185loPI   C1B 2957  14.555  10.044  10.496 -0.2025 -0.1511  0.2329
  185loPI   C2B 2958  14.633  10.038  10.072 -0.2330  0.0970  0.2066
  185loPI   C3B 2959  14.557  10.005   9.618 -0.2574 -0.0078  0.3583
  185loPI   C4B 2960  14.572  10.007   9.279 -0.0348 -0.3314 -0.1938
  186loPI    C1 2961   3.866  10.956  11.616  0.4944  0.1088 -0.2654
  186loPI    C2 2962   3.647  11.288  11.657 -0.1404 -0.3027 -0.1781
  186loPI    C3 2963   3.916  11.189  11.937  0.0646  0.1352 -0.2120
  186loPI   PO4 2964   3.886  10.945  11.339 -0.1141 -0.0264  0.1844
  186loPI   GL1 2965   3.784  10.881  10.972  0.4417  0.0438  0.2603
  186loPI   GL2 2966   3.591  10.796  10.953 -0.0642 -0.0170 -0.2658
  186loPI   C1A 2967   3.980  10.916  10.650  0.1112  0.0064  0.0542
  186loPI   C2A 2968   3.945  10.883  10.224  0.0096  0.1238 -0.1077
  186loPI   C3A 2969   3.821  10.880   9.797  0.0179  0.2530  0.1905
  186loPI   C4A 2970   3.891  10.963   9.342  0.0743  0.2177 -0.2129
  186loPI   C5A 2971   3.635  11.126   9.011 -0.1121  0.0789 -0.2816
  186loPI   C6A 2972   3.321  11.190   8.636 -0.1184  0.0103  0.2381
  186loPI   C1B 2973   3.472  10.602  10.485 -0.0447  0.1003 -0.1878
  186loPI   C2B 2974   3.441  10.718  10.097 -0.3492  0.0769 -0.0869
  186loPI   C3B 2975   3.354  10.698   9.726 -0.2356  0.0621  0.1559
  186loPI   C4B 2976   3.404  10.750   9.340 -0.1336 -0.0691  0.3580
  187loPI    C1 2977  12.839   1.478  10.868  0.0423  0.0372 -0.2884
  187loPI    C2 2978  12.589   1.718  10.668 -0.2214 -0.0403 -0.0569
  187loPI    C3 2979  12.589   1.717  11.068  0.0160 -0.1820 -0.0554
  187loPI   PO4 2980  12.786   1.255  10.687 -0.1426  0.1000 -0.1688
  187loPI   GL1 2981  12.650   1.293  10.182  0.3477 -0.0788 -0.1841
  187loPI   GL2 2982  12.779   1.058  10.190  0.0079  0.2572  0.0346
  187loPI   C1A 2983  12.792   1.588   9.881  0.0059  0.1888 -0.1852
  187loPI   C2A 2984  12.946   1.601   9.583 -0.1884 -0.2756  0.0894
  187loPI   C3A 2985  13.042   1.670   9.099  0.2493 -0.1234 -0.2307
  187loPI   C4A 2986  13.272   1.649   8.736 -0.0392 -0.5464  0.3339
  187loPI   C5A 2987  13.351   1.627   8.376 -0.0158 -0.1762 -0.1586
  187loPI   C6A 2988  13.690   1.850   8.201 -0.0468 -0.0753 -0.1467
  187loPI   C1B 2989  12.817   1.113   9.779  0.2031 -0.3069 -0.0178
  187loPI   C2B 2990  12.931   1.185   9.393 -0.1123  0.3420  0.0634
  187loPI   C3B 2991  13.080   1.172   8.994  0.2751  0.1973  0.0532
  187loPI   C4B 2992  13.156   1.130   8.677  0.1532  0.0027 -0.0322
  188loPI    C1 2993   7.798  15.873  10.374 -0.0544 -0.0484  0.2013
  188loPI    C2 2994   8.014  16.181  10.510  0.0029  0.0732 -0.1564
  188loPI    C3 2995   8.154  15.809  10.544  0.1775  0.1337 -0.2027
  188loPI   PO4 2996   7.758  15.881  10.130  0.0451  0.3029  0.0843
  188loPI   GL1 2997   8.020  15.955   9.745 -0.2248  0.0700 -0.0117
  188loPI   GL2 2998   7.944  16.246   9.826 -0.1022  0.0887 -0.0410
  188loPI   C1A 2999   7.865  15.964   9.331 -0.1171  0.3110  0.1492
  188loPI   C2A 3000   7.841  15.949   8.831 -0.0841  0.0037 -0.1497
  188loPI   C3A 3001   7.779  15.905   8.380 -0.0126 -0.0470 -0.0278
  188loPI   C4A 3002   7.815  15.587   7.915 -0.3338 -0.0417 -0.2423
  188loPI   C5A 3003   7.555  15.539   7.643  0.1022  0.0436  0.0366
  188loPI   C6A 3004   7.476  15.372   7.279  0.2618 -0.0038 -0.0009
  188loPI   C1B 3005   7.991  16.423   9.526  0.0464  0.0944 -0.1552
  188loPI   C2B 3006   7.967  16.457   9.121 -0.3449 -0.0928  0.2435
  188loPI   C3B 3007   7.805  16.481   8.657 -0.1377 -0.0108 -0.0511
  188loPI   C4B 3008   7.743  16.645   8.214 -0.0458 -0.1995 -0.0856
  189loPI    C1 3009   0.737  11.034  11.656 -0.1086 -0.0647 -0.2207
  189loPI    C2 3010   0.621  11.303  11.929  0.0805 -0.2582  0.0567
  189loPI    C3 3011   0.817  10.974  12.044  0.1288 -0.3627 -0.3121
  189loPI   PO4 3012   0.453  11.058  11.383  0.1616 -0.1648  0.2220
  189loPI   GL1 3013   0.410  10.967  10.891 -0.2072 -0.0422  0.0333
  189loPI   GL2 3014   0.760  10.770  10.853 -0.2161 -0.1546 -0.0167
  189loPI   C1A 3015   0.264  10.760  10.481  0.1617  0.1257  0.1793
  189loPI   C2A 3016   0.295  10.831  10.099  0.2327  0.2171 -0.0115
  189loPI   C3A 3017   0.325  10.785   9.729 -0.1976  0.0503 -0.3966
  189loPI   C4A 3018   0.268  10.770   9.263 -0.1838  0.0910 -0.2129
  189loPI   C5A 3019   0.110  10.810   8.891 -0.2104  0.1567  0.1572
  189loPI   C6A 3020   0.133  10.887   8.408 -0.0864 -0.0149 -0.0730
  189loPI   C1B 3021   0.744  10.958  10.497  0.1911  0.3744 -0.3567
  189loPI   C2B 3022   0.839  11.151  10.098  0.0757 -0.1925  0.1902
  189loPI   C3B 3023   0.723  11.101   9.660  0.1207  0.1984  0.0358
  189loPI   C4B 3024   0.737  11.067   9.249  0.2002 -0.1598 -0.0905
  190loPI    C1 3025   8.699  14.079  10.555  0.1171  0.0974 -0.1429
  190loPI    C2 3026   8.393  14.278  10.718  0.0974  0.0096 -0.0716
  190loPI    C3 3027   8.680  14.127  10.952  0.0460 -0.1551 -0.1137
  190loPI   PO4 3028   8.613  13.877  10.394  0.2052  0.1554 -0.0754
  190loPI   GL1 3029   8.797  13.640  10.117 -0.0198  0.0693 -0.0977
  190loPI   GL2 3030   9.188  13.618  10.171 -0.0285 -0.0151  0.1241
  190loPI   C1A 3031   8.650  13.327   9.822  0.2349  0.0215  0.3073
  190loPI   C2A 3032   8.644  13.280   9.355  0.0782  0.0521  0.0017
  190loPI   C3A 3033   8.647  13.294   8.867  0.1114  0.3455  0.0146
  190loPI   C4A 3034   8.644  13.327   8.386 -0.0667 -0.2304 -0.0663
  190loPI   C5A 3035   8.898  13.441   8.032 -0.0401 -0.2911  0.0232
  190loPI   C6A 3036   9.201  13.196   7.805 -0.2261 -0.1777 -0.2073
  190loPI   C1B 3037   9.063  13.565   9.655 -0.0013 -0.0624 -0.1745
  190loPI   C2B 3038   9.028  13.482   9.195 -0.1324  0.2198 -0.0635
  190loPI   C3B 3039   9.176  13.527   8.767  0.1786 -0.1782 -0.0384
  190loPI   C4B 3040   9.234  13.551   8.361  0.2592 -0.2323 -0.3722
  191loPI    C1 3041   6.864  13.093  10.720  0.2683  0.0340  0.0808
  191loPI    C2 3042   7.088  13.334  10.947  0.0640  0.0205  0.3000
  191loPI    C3 3043   6.724  13.223  11.071  0.0246 -0.1376  0.0497
  191loPI   PO4 3044   6.871  13.175  10.451  0.0844  0.3135 -0.1706
  191loPI   GL1 3045   7.044  13.117  10.085 -0.2351 -0.0619 -0.0690
  191loPI   GL2 3046   7.276  12.911  10.222  0.2852  0.0566 -0.2355
  191loPI   C1A 3047   6.926  13.070   9.659  0.1149  0.2180  0.2432
  191loPI   C2A 3048   6.826  13.145   9.219  0.0494  0.0255 -0.1447
  191loPI   C3A 3049   6.881  13.049   8.768 -0.1866 -0.1084 -0.1323
  191loPI   C4A 3050   6.768  13.212   8.356  0.0472 -0.2144  0.3020
  191loPI   C5A 3051   6.745  13.464   8.040 -0.1569 -0.2319 -0.1834
  191loPI   C6A 3052   6.521  13.454   7.669  0.2406  0.1729 -0.1137
  191loPI   C1B 3053   7.300  12.780   9.865 -0.0897  0.1328  0.1582
  191loPI   C2B 3054   7.324  12.691   9.437  0.1384 -0.0582 -0.2081
  191loPI   C3B 3055   7.315  12.747   8.993  0.1927  0.1192  0.1211
  191loPI   C4B 3056   7.326  12.669   8.581  0.1758 -0.1374  0.2024
  192loPI    C1 3057  14.423   6.102  11.458 -0.0698 -0.0658 -0.1646
  192loPI    C2 3058  14.240   6.432  11.325 -0.1137 -0.0019  0.0500
  192loPI    C3 3059  14.214   6.331  11.711  0.0121 -0.1842  0.0123
  192loPI   PO4 3060  14.620   6.055  11.240 -0.1572  0.1330 -0.1146
  192loPI   GL1 3061  14.475   6.016  10.856 -0.1163 -0.1537 -0.0584
  192loPI   GL2 3062  14.303   6.261  10.850 -0.2186  0.1307 -0.1569
  192loPI   C1A 3063  14.463   6.038  10.374 -0.1356  0.1838 -0.0642
  192loPI   C2A 3064  14.374   6.065   9.919  0.0748 -0.1279  0.3605
  192loPI   C3A 3065  14.376   6.118   9.455  0.0689  0.2198  0.1148
  192loPI   C4A 3066  14.187   6.109   9.039  0.0931  0.1334  0.1149
  192loPI   C5A 3067  13.930   6.324   8.669 -0.0990 -0.2493 -0.0507
  192loPI   C6A 3068  13.612   6.512   8.767 -0.0915 -0.2304  0.2402
  192loPI   C1B 3069  14.182   6.483  10.550 -0.2579 -0.1493  0.3508
  192loPI   C2B 3070  14.168   6.488  10.121  0.0334  0.2388  0.0258
  192loPI   C3B 3071  14.135   6.487   9.695 -0.2462 -0.2817  0.0273
  192loPI   C4B 3072  14.087   6.577   9.238 -0.1580  0.2759  0.1825
  193loPI    C1 3073  17.259   4.430  11.461  0.0121 -0.3553 -0.0287
  193loPI    C2 3074  17.586   4.289  11.642  0.0295 -0.2569  0.0170
  193loPI    C3 3075  17.247   4.077  11.648  0.0131 -0.2270  0.2171
  193loPI   PO4 3076  17.389   4.567  11.185 -0.2336 -0.0008  0.0568
  193loPI   GL1 3077  17.371   4.454  10.935  0.0130  0.0614  0.0174
  193loPI   GL2 3078  17.413   4.738  10.649  0.4692  0.3065 -0.2709
  193loPI   C1A 3079  17.254   4.295  10.530  0.1415  0.0560 -0.0154
  193loPI   C2A 3080  17.361   4.335  10.129 -0.0451 -0.0742  0.3121
  193loPI   C3A 3081  17.249   4.356   9.685 -0.0762  0.2268  0.3817
  193loPI   C4A 3082  17.335   4.390   9.228 -0.0502  0.1518 -0.0385
  193loPI   C5A 3083  17.222   4.279   8.839  0.0838  0.0977 -0.0549
  193loPI   C6A 3084  17.036   4.283   8.453 -0.1907  0.0618 -0.0930
  193loPI   C1B 3085  17.435   4.858  10.188  0.1231  0.1386  0.2746
  193loPI   C2B 3086  17.444   4.836   9.781 -0.1599  0.1856  0.1924
  193loPI   C3B 3087  17.338   4.895   9.431 -0.0661 -0.4911 -0.0253
  193loPI   C4B 3088  17.449   4.895   8.970 -0.1278 -0.2067 -0.0706
  194loPI    C1 3089  10.832   2.371  11.178 -0.0860 -0.1902 -0.1664
  194loPI    C2 3090  10.468   2.264  11.051 -0.1871 -0.0889  0.0332
  194loPI    C3 3091  10.585   2.172  11.422  0.0295 -0.2080 -0.0628
  194loPI   PO4 3092  10.983   2.393  10.916  0.1932  0.0182 -0.0162
  194loPI   GL1 3093  11.007   2.575  10.432 -0.0574 -0.2425 -0.1045
  194loPI   GL2 3094  10.666   2.624  10.293 -0.2945  0.0823  0.0850
  194loPI   C1A 3095  11.083   2.740  10.092 -0.2621 -0.0973  0.2053
  194loPI   C2A 3096  11.134   2.604   9.748  0.1308 -0.2540  0.0076
  194loPI   C3A 3097  11.156   2.690   9.341 -0.0535 -0.0350  0.1798
  194loPI   C4A 3098  11.190   2.760   8.894 -0.3044  0.0677  0.0652
  194loPI   C5A 3099  11.232   2.749   8.500  0.1653 -0.1085  0.0922
  194loPI   C6A 3100  11.040   2.790   8.116 -0.1375  0.1202 -0.2244
  194loPI   C1B 3101  10.600   2.635   9.852 -0.0289 -0.4427  0.0480
  194loPI   C2B 3102  10.580   2.759   9.386 -0.2014  0.2138  0.1729
  194loPI   C3B 3103  10.710   2.646   9.018 -0.1359 -0.0929 -0.0819
  194loPI   C4B 3104  10.752   2.544   8.637 -0.0659 -0.0644 -0.1123
  195loPI    C1 3105   4.013  13.181  11.565 -0.0956 -0.2727 -0.1770
  195loPI    C2 3106   3.636  13.188  11.698 -0.1275 -0.2064 -0.2699
  195loPI    C3 3107   3.939  13.169  11.958 -0.1901 -0.1004 -0.1884
  195loPI   PO4 3108   3.905  13.058  11.263 -0.0077 -0.0737  0.0778
  195loPI   GL1 3109   3.663  13.256  10.909  0.3248  0.0379  0.3373
  195loPI   GL2 3110   3.379  13.040  10.876 -0.2926  0.0655  0.4597
  195loPI   C1A 3111   3.753  13.329  10.516 -0.1186  0.0435 -0.3485
  195loPI   C2A 3112   3.725  13.257  10.115  0.2331 -0.0234 -0.1163
  195loPI   C3A 3113   3.883  13.180   9.662  0.1906 -0.0111  0.3067
  195loPI   C4A 3114   3.902  13.273   9.232  0.0066 -0.1714 -0.1613
  195loPI   C5A 3115   3.737  13.392   8.866 -0.3114  0.3056 -0.1870
  195loPI   C6A 3116   3.418  13.241   8.602  0.1166 -0.0059 -0.0691
  195loPI   C1B 3117   3.310  13.088  10.420  0.0663 -0.2411 -0.0215
  195loPI   C2B 3118   3.318  13.002   9.968  0.0743 -0.0433  0.2015
  195loPI   C3B 3119   3.359  13.086   9.612  0.2739 -0.1805  0.2618
  195loPI   C4B 3120   3.381  13.125   9.165  0.2011 -0.1327  0.0790
  196loPI    C1 3121   4.043  14.372  11.332  0.1930  0.0998  0.0632
  196loPI    C2 3122   3.962  14.722  11.507 -0.0577  0.0799 -0.0091
  196loPI    C3 3123   3.663  14.477  11.402  0.0948  0.0268 -0.3309
  196loPI   PO4 3124   4.262  14.480  11.178  0.0068  0.2506 -0.0700
  196loPI   GL1 3125   4.266  14.535  10.708  0.2449  0.1026  0.2523
  196loPI   GL2 3126   4.375  14.174  10.713  0.0766  0.2480 -0.0605
  196loPI   C1A 3127   4.342  14.492  10.264 -0.0565 -0.2634 -0.0356
  196loPI   C2A 3128   4.340  14.475   9.719  0.0923  0.1954  0.1629
  196loPI   C3A 3129   4.358  14.548   9.275 -0.1504  0.2534 -0.1001
  196loPI   C4A 3130   4.434  14.624   8.835 -0.0760 -0.1908  0.0945
  196loPI   C5A 3131   4.367  14.731   8.358 -0.1857  0.0776  0.3280
  196loPI   C6A 3132   4.542  14.972   8.123 -0.0668  0.0537  0.2202
  196loPI   C1B 3133   4.331  13.981  10.308  0.1410 -0.0253  0.1608
  196loPI   C2B 3134   4.268  13.975   9.882  0.1925  0.0113  0.0529
  196loPI   C3B 3135   4.328  14.011   9.443 -0.1850 -0.0726  0.3548
  196loPI   C4B 3136   4.375  14.091   8.993 -0.1004 -0.1666 -0.0009
  197loPI    C1 3137   3.707   2.080  11.402  0.3130  0.0829  0.0929
  197loPI    C2 3138   3.772   1.808  11.688 -0.1456 -0.0103  0.1158
  197loPI    C3 3139   3.687   2.186  11.787  0.3139  0.1064  0.0865
  197loPI   PO4 3140   3.760   1.947  11.175  0.1172 -0.0718  0.1974
  197loPI   GL1 3141   3.863   1.811  10.793  0.0877 -0.0389  0.2307
  197loPI   GL2 3142   3.630   1.600  10.829  0.1560 -0.2104  0.1161
  197loPI   C1A 3143   3.923   2.040  10.450 -0.0400  0.0853  0.1322
  197loPI   C2A 3144   3.892   2.069   9.982 -0.1248 -0.0192  0.0597
  197loPI   C3A 3145   3.912   2.058   9.549  0.2363  0.1621 -0.1314
  197loPI   C4A 3146   3.958   2.055   9.114  0.0192 -0.0352 -0.0644
  197loPI   C5A 3147   3.831   1.825   8.767 -0.0334 -0.0747  0.2741
  197loPI   C6A 3148   3.862   1.547   8.453 -0.2923  0.0475 -0.0962
  197loPI   C1B 3149   3.676   1.416  10.422 -0.1414 -0.1399 -0.2452
  197loPI   C2B 3150   3.826   1.587  10.001  0.1557  0.0122 -0.0008
  197loPI   C3B 3151   3.804   1.514   9.630 -0.0024  0.2987  0.1312
  197loPI   C4B 3152   3.774   1.506   9.176  0.1187  0.0863  0.0374
  198loPI    C1 3153   5.213   5.492  11.437  0.0001 -0.2390  0.0747
  198loPI    C2 3154   4.853   5.444  11.604 -0.0575 -0.0348  0.0121
  198loPI    C3 3155   5.135   5.652  11.795 -0.0096 -0.0973  0.0098
  198loPI   PO4 3156   5.192   5.489  11.170 -0.4471  0.1074 -0.1308
  198loPI   GL1 3157   4.993   5.484  10.854  0.2751 -0.0863 -0.0385
  198loPI   GL2 3158   5.032   5.187  10.695 -0.0018 -0.2515  0.0199
  198loPI   C1A 3159   4.867   5.801  10.608 -0.1891 -0.2924 -0.1071
  198loPI   C2A 3160   4.882   5.976  10.204  0.4688  0.1252  0.0172
  198loPI   C3A 3161   4.879   6.025   9.771  0.1076  0.4515  0.1002
  198loPI   C4A 3162   4.881   5.987   9.395  0.0205  0.1456 -0.0411
  198loPI   C5A 3163   4.917   5.917   8.986 -0.0640 -0.0852  0.0107
  198loPI   C6A 3164   5.211   5.785   8.605  0.0660  0.1305  0.0984
  198loPI   C1B 3165   4.748   5.436  10.272 -0.0503 -0.5104  0.1941
  198loPI   C2B 3166   4.782   5.336   9.748  0.2957 -0.0031  0.1983
  198loPI   C3B 3167   4.854   5.420   9.284 -0.2200 -0.1323  0.0850
  198loPI   C4B 3168   4.875   5.386   8.885 -0.3061 -0.1231  0.0926
  199loPI    C1 3169   8.955   8.156  11.261 -0.2715  0.2226  0.2871
  199loPI    C2 3170   9.355   8.160  11.253 -0.2714 -0.0255 -0.0974
  199loPI    C3 3171   9.162   8.052  11.587 -0.0205  0.0974  0.0909
  199loPI   PO4 3172   8.880   8.289  11.037 -0.1745 -0.2499  0.1971
  199loPI   GL1 3173   9.182   8.440  10.897  0.2350  0.0370  0.2691
  199loPI   GL2 3174   9.365   8.682  10.843 -0.0568 -0.1790 -0.0921
  199loPI   C1A 3175   9.152   8.454  10.429 -0.3144 -0.0368 -0.0588
  199loPI   C2A 3176   9.061   8.549   9.922  0.2805  0.1357 -0.2627
  199loPI   C3A 3177   8.969   8.614   9.462 -0.2479 -0.2818 -0.2739
  199loPI   C4A 3178   8.905   8.468   9.101  0.3335  0.1126 -0.0630
  199loPI   C5A 3179   8.657   8.469   8.721 -0.1790  0.1453 -0.2069
  199loPI   C6A 3180   8.394   8.086   8.650 -0.2540  0.1096  0.0415
  199loPI   C1B 3181   9.538   8.763  10.464  0.0534  0.2322  0.0471
  199loPI   C2B 3182   9.530   8.795  10.028 -0.2636 -0.0074  0.1484
  199loPI   C3B 3183   9.496   8.822   9.608 -0.2703  0.0595  0.0377
  199loPI   C4B 3184   9.381   8.734   9.083 -0.0558  0.1371 -0.1864
  200loPI    C1 3185   6.263   2.734  11.241 -0.1211  0.0195 -0.1080
  200loPI    C2 3186   5.996   2.620  11.516  0.2506 -0.3196  0.1234
  200loPI    C3 3187   6.159   2.985  11.535 -0.3729 -0.0106 -0.1693
  200loPI   PO4 3188   6.199   2.634  10.938 -0.0090  0.1632  0.0629
  200loPI   GL1 3189   5.824   2.781  10.690  0.1329  0.2049 -0.0549
  200loPI   GL2 3190   6.063   2.945  10.544 -0.0194  0.1300  0.1326
  200loPI   C1A 3191   5.555   3.086  10.392  0.1162  0.0342  0.0842
  200loPI   C2A 3192   5.301   3.118  10.010  0.1247  0.1511  0.3181
  200loPI   C3A 3193   5.385   3.143   9.607  0.0497  0.0234  0.1488
  200loPI   C4A 3194   5.413   3.247   9.262 -0.1143  0.2821 -0.0995
  200loPI   C5A 3195   5.286   3.344   8.897  0.0029  0.0157 -0.0626
  200loPI   C6A 3196   5.228   3.649   8.513 -0.2000 -0.0917 -0.2861
  200loPI   C1B 3197   6.016   3.080  10.153  0.1538  0.0161  0.1280
  200loPI   C2B 3198   6.018   3.169   9.707  0.1024  0.0814  0.0847
  200loPI   C3B 3199   5.901   3.351   9.241 -0.2760  0.1846 -0.0101
  200loPI   C4B 3200   5.800   3.446   8.784  0.1343  0.3812  0.0083
  201loPI    C1 3201   8.005   3.355  10.910 -0.0035 -0.0215 -0.0169
  201loPI    C2 3202   7.915   3.744  10.913 -0.0503 -0.0324  0.0003
  201loPI    C3 3203   7.852   3.522  11.240 -0.0390 -0.0579 -0.0148
  201loPI   PO4 3204   7.930   3.285  10.708  0.3202  0.0594 -0.0946
  201loPI   GL1 3205   7.589   2.984  10.469  0.0046 -0.0466  0.2041
  201loPI   GL2 3206   7.914   3.077  10.234 -0.1404 -0.1138 -0.0278
  201loPI   C1A 3207   7.513   2.965  10.020  0.1017 -0.0966 -0.1214
  201loPI   C2A 3208   7.560   3.075   9.535 -0.4184 -0.0119 -0.0244
  201loPI   C3A 3209   7.555   3.113   9.160  0.2219  0.1972 -0.0148
  201loPI   C4A 3210   7.610   3.116   8.702  0.0388  0.1474 -0.0131
  201loPI   C5A 3211   7.460   3.215   8.425 -0.0878  0.3288  0.1425
  201loPI   C6A 3212   7.496   3.547   8.048  0.2656  0.0693 -0.0159
  201loPI   C1B 3213   7.996   3.023   9.780 -0.1488  0.0917 -0.2880
  201loPI   C2B 3214   7.995   3.244   9.457 -0.0598  0.1109 -0.0947
  201loPI   C3B 3215   8.097   3.394   9.111  0.0687 -0.1261 -0.1067
  201loPI   C4B 3216   8.078   3.310   8.759  0.1779  0.0418 -0.0784
  202loPI    C1 3217   6.188  11.485  11.461  0.1822  0.0464 -0.0557
  202loPI    C2 3218   6.483  11.717  11.600  0.2056 -0.0061 -0.0172
  202loPI    C3 3219   6.510  11.319  11.630  0.0668 -0.0063  0.1151
  202loPI   PO4 3220   6.171  11.484  11.189  0.2570  0.0217 -0.1495
  202loPI   GL1 3221   6.424  11.382  10.802  0.0367  0.0881  0.1076
  202loPI   GL2 3222   6.101  11.286  10.732 -0.0124 -0.3911 -0.0409
  202loPI   C1A 3223   6.672  11.622  10.526  0.1039 -0.2332 -0.2730
  202loPI   C2A 3224   6.738  11.613  10.042 -0.3067 -0.2631  0.3878
  202loPI   C3A 3225   6.654  11.596   9.588  0.0603 -0.1100  0.0426
  202loPI   C4A 3226   6.616  11.562   9.124  0.1266 -0.1645 -0.2428
  202loPI   C5A 3227   6.565  11.401   8.835 -0.2147  0.2214  0.0306
  202loPI   C6A 3228   6.432  11.000   8.703  0.0371 -0.1338 -0.0675
  202loPI   C1B 3229   6.181  11.318  10.263 -0.2790  0.1198  0.1148
  202loPI   C2B 3230   6.320  11.453   9.919  0.1088  0.4065  0.0893
  202loPI   C3B 3231   6.207  11.306   9.529  0.0819 -0.0796  0.3473
  202loPI   C4B 3232   6.126  11.267   9.076  0.1429 -0.1910  0.0537
  203loPI    C1 3233   5.106   7.284  11.570  0.2510 -0.0975 -0.1520
  203loPI    C2 3234   5.238   7.165  11.928  0.2846 -0.1673 -0.1873
  203loPI    C3 3235   4.902   7.008  11.776  0.1429  0.0315 -0.0845
  203loPI   PO4 3236   5.297   7.189  11.410 -0.1938 -0.0459  0.1664
  203loPI   GL1 3237   5.313   7.218  11.017  0.0981  0.1498 -0.2520
  203loPI   GL2 3238   4.987   7.373  11.037  0.0468 -0.0015 -0.0465
  203loPI   C1A 3239   5.296   6.960  10.661 -0.0668  0.0684  0.2627
  203loPI   C2A 3240   5.127   6.903  10.218 -0.1097  0.0224 -0.2134
  203loPI   C3A 3241   5.106   7.003   9.741 -0.0050  0.1870  0.1923
  203loPI   C4A 3242   5.017   6.964   9.230 -0.0466 -0.3281 -0.0650
  203loPI   C5A 3243   5.008   6.829   8.828  0.4019 -0.0174 -0.1209
  203loPI   C6A 3244   5.094   7.157   8.508 -0.0472  0.1145 -0.1701
  203loPI   C1B 3245   4.865   7.244  10.551  0.0925  0.1743 -0.2113
  203loPI   C2B 3246   4.807   7.243  10.120 -0.2132 -0.3626  0.0249
  203loPI   C3B 3247   4.647   7.295   9.662 -0.3096 -0.1094  0.2876
  203loPI   C4B 3248   4.589   7.289   9.205  0.1398 -0.0761 -0.2901
  204loPI    C1 3249  11.377   2.723  10.768 -0.2209 -0.1261  0.0971
  204loPI    C2 3250  11.191   3.055  10.644  0.0773  0.0180  0.0264
  204loPI    C3 3251  11.395   3.056  10.989  0.0810 -0.0914  0.0249
  204loPI   PO4 3252  11.513   2.677  10.599 -0.0567 -0.0924  0.0556
  204loPI   GL1 3253  11.695   2.649  10.263  0.0757 -0.1872 -0.2127
  204loPI   GL2 3254  11.512   2.403  10.132 -0.1156  0.2051  0.1710
  204loPI   C1A 3255  11.941   2.666  10.016 -0.0342 -0.0644  0.0577
  204loPI   C2A 3256  12.003   2.651   9.577  0.0545  0.0227  0.3242
  204loPI   C3A 3257  12.153   2.751   9.158 -0.0167  0.0221 -0.0621
  204loPI   C4A 3258  11.915   2.949   8.886 -0.1769  0.0220  0.0028
  204loPI   C5A 3259  11.744   3.075   8.391 -0.1630 -0.0048 -0.3057
  204loPI   C6A 3260  11.498   2.954   8.034 -0.3249 -0.1918 -0.1156
  204loPI   C1B 3261  11.523   2.327   9.861  0.2237  0.2639  0.1954
  204loPI   C2B 3262  11.604   2.367   9.472 -0.2925  0.2444  0.1402
  204loPI   C3B 3263  11.703   2.564   9.138  0.0348  0.0811  0.0086
  204loPI   C4B 3264  11.666   2.542   8.706 -0.0268  0.0431 -0.3469
  205loPI    C1 3265   0.080  16.873  11.288 -0.1534  0.2004  0.3060
  205loPI    C2 3266   0.251  16.649  11.571 -0.0736 -0.0367  0.0732
  205loPI    C3 3267  -0.119  16.564  11.445 -0.1620  0.1526  0.2023
  205loPI   PO4 3268   0.369  16.808  11.075 -0.0253  0.1147  0.5905
  205loPI   GL1 3269   0.440  16.935  10.569 -0.0323 -0.5531  0.1458
  205loPI   GL2 3270   0.092  16.862  10.534 -0.3330 -0.2584 -0.2265
  205loPI   C1A 3271   0.661  16.925  10.223  0.2041  0.0283  0.1860
  205loPI   C2A 3272   0.749  16.961   9.848  0.0844 -0.1712  0.1742
  205loPI   C3A 3273   0.614  16.965   9.503  0.0389 -0.1261  0.0342
  205loPI   C4A 3274   0.777  16.937   9.037 -0.1261 -0.2378  0.1406
  205loPI   C5A 3275   0.611  16.830   8.630 -0.1000 -0.1360  0.0677
  205loPI   C6A 3276   0.443  16.925   8.224  0.1505  0.0244 -0.1726
  205loPI   C1B 3277   0.187  16.780  10.076 -0.1216 -0.0655  0.0711
  205loPI   C2B 3278   0.173  16.687   9.554 -0.3341 -0.1191 -0.2512
  205loPI   C3B 3279   0.205  16.774   9.154 -0.1438  0.0255  0.0269
  205loPI   C4B 3280   0.143  16.795   8.696  0.1767  0.3392  0.0653
  206loPI    C1 3281   5.326  16.986  11.281 -0.1091  0.0648 -0.1999
  206loPI    C2 3282   5.716  17.067  11.320 -0.1087 -0.0802  0.1286
  206loPI    C3 3283   5.450  17.244  11.561 -0.2370 -0.0613 -0.0253
  206loPI   PO4 3284   5.414  16.976  10.959 -0.0499 -0.0185 -0.3494
  206loPI   GL1 3285   5.487  17.171  10.603 -0.1296 -0.3171 -0.2722
  206loPI   GL2 3286   5.656  17.141  10.438  0.1421  0.0101  0.0426
  206loPI   C1A 3287   5.226  17.247  10.188 -0.0671  0.2160  0.2293
  206loPI   C2A 3288   5.220  17.214   9.694  0.1614 -0.1317 -0.1341
  206loPI   C3A 3289   5.176  17.317   9.248  0.1405 -0.1372  0.1016
  206loPI   C4A 3290   5.116  17.354   8.824  0.0489 -0.1071 -0.0555
  206loPI   C5A 3291   5.353  17.598   8.523  0.2211  0.0396  0.3756
  206loPI   C6A 3292   5.287  17.702   8.065 -0.0079  0.2529 -0.1563
  206loPI   C1B 3293   5.630  16.949  10.052  0.5271  0.1533  0.0013
  206loPI   C2B 3294   5.678  16.888   9.597 -0.0560 -0.1421 -0.3419
  206loPI   C3B 3295   5.560  17.022   9.275  0.2170 -0.0094 -0.3715
  206loPI   C4B 3296   5.555  17.098   8.789  0.2933 -0.0129 -0.1096
  207loPI    C1 3297   2.956  10.408  11.580  0.1176 -0.2165 -0.1274
  207loPI    C2 3298   3.196  10.645  11.795 -0.2473  0.0258  0.0241
  207loPI    C3 3299   3.035  10.320  11.962 -0.0097 -0.1505 -0.0849
  207loPI   PO4 3300   2.787  10.640  11.445 -0.1634  0.1369  0.0456
  207loPI   GL1 3301   2.931  10.865  11.119  0.0668  0.1078  0.0614
  207loPI   GL2 3302   2.640  10.883  10.970 -0.0328  0.1183 -0.1352
  207loPI   C1A 3303   3.144  10.963  10.762 -0.0438 -0.2093 -0.0199
  207loPI   C2A 3304   3.037  10.969  10.343  0.2015 -0.1530  0.0439
  207loPI   C3A 3305   3.044  11.021   9.921 -0.1938 -0.3057  0.1331
  207loPI   C4A 3306   2.990  11.078   9.490 -0.1099 -0.1913 -0.0870
  207loPI   C5A 3307   3.062  11.065   9.049  0.0718  0.2728  0.0368
  207loPI   C6A 3308   3.299  10.707   8.799 -0.0039  0.3968  0.0392
  207loPI   C1B 3309   2.639  10.754  10.558 -0.1361  0.1035 -0.4087
  207loPI   C2B 3310   2.549  10.809  10.123 -0.2838 -0.1177  0.3660
  207loPI   C3B 3311   2.526  10.870   9.728  0.1441  0.1568  0.0734
  207loPI   C4B 3312   2.606  10.849   9.241 -0.0909  0.1308 -0.0771
  208loPI    C1 3313   5.486   7.617  11.610  0.0749 -0.1620  0.0150
  208loPI    C2 3314   5.323   7.791  11.932  0.0473 -0.0709 -0.0477
  208loPI    C3 3315   5.717   7.719  11.921  0.0879  0.1485 -0.0923
  208loPI   PO4 3316   5.462   7.795  11.417 -0.0507  0.2300  0.0073
  208loPI   GL1 3317   5.288   7.719  11.139  0.5459  0.0338 -0.0172
  208loPI   GL2 3318   5.265   8.003  10.948  0.1556  0.3591  0.0214
  208loPI   C1A 3319   5.309   7.554  10.735  0.0006 -0.3506  0.1119
  208loPI   C2A 3320   5.354   7.400  10.341 -0.0087  0.0896  0.0182
  208loPI   C3A 3321   5.208   7.456   9.877  0.0665  0.2123  0.1386
  208loPI   C4A 3322   5.155   7.432   9.515 -0.1209 -0.0561  0.3001
  208loPI   C5A 3323   5.017   7.435   9.010  0.1258  0.2195  0.1961
  208loPI   C6A 3324   5.418   7.532   8.762  0.2189  0.2951  0.0260
  208loPI   C1B 3325   5.352   8.062  10.558 -0.1066  0.2007  0.4443
  208loPI   C2B 3326   5.218   7.914  10.110  0.0609 -0.0391 -0.0591
  208loPI   C3B 3327   5.237   7.994   9.729 -0.0131 -0.0030  0.0700
  208loPI   C4B 3328   5.199   7.958   9.328  0.2771  0.1002  0.1345
  209loPI    C1 3329  11.629  10.827  11.219  0.2573  0.0061 -0.1870
  209loPI    C2 3330  11.619  10.431  11.161 -0.3638 -0.0236  0.0425
  209loPI    C3 3331  11.853  10.586  11.446 -0.0863 -0.2163 -0.0760
  209loPI   PO4 3332  11.565  10.904  10.995 -0.1900 -0.2368  0.0585
  209loPI   GL1 3333  11.664  10.648  10.759  0.3439 -0.4199  0.2166
  209loPI   GL2 3334  11.864  10.387  10.656 -0.0779 -0.3904 -0.3793
  209loPI   C1A 3335  11.503  10.661  10.346 -0.1633  0.0324  0.0926
  209loPI   C2A 3336  11.525  10.676   9.965 -0.1200 -0.1118  0.0843
  209loPI   C3A 3337  11.539  10.701   9.519 -0.2781 -0.0383  0.1996
  209loPI   C4A 3338  11.512  10.585   9.045  0.0190 -0.2552  0.1543
  209loPI   C5A 3339  11.432  10.603   8.599  0.1833 -0.0135  0.0283
  209loPI   C6A 3340  11.473  10.480   8.198  0.0542 -0.1138  0.0738
  209loPI   C1B 3341  11.946  10.304  10.223 -0.0525  0.0125  0.3058
  209loPI   C2B 3342  11.817  10.289   9.708 -0.1606  0.1302 -0.0094
  209loPI   C3B 3343  11.842  10.337   9.263 -0.0332  0.2485  0.0867
  209loPI   C4B 3344  11.886  10.214   8.776  0.1605  0.2665 -0.1160
  210loPI    C1 3345  14.477   2.917  10.978  0.2440 -0.1526 -0.0394
  210loPI    C2 3346  14.596   2.730  11.311  0.1130 -0.1055  0.0345
  210loPI    C3 3347  14.357   3.050  11.335  0.4031  0.1257 -0.0863
  210loPI   PO4 3348  14.719   2.793  10.822  0.0499  0.3704  0.0228
  210loPI   GL1 3349  14.730   2.451  10.519 -0.1389 -0.0471 -0.2508
  210loPI   GL2 3350  14.541   2.340  10.413 -0.3103 -0.3461 -0.4273
  210loPI   C1A 3351  14.857   2.579  10.076 -0.3197  0.2019 -0.2881
  210loPI   C2A 3352  15.094   2.646   9.560  0.2905  0.1963  0.3426
  210loPI   C3A 3353  14.977   2.548   9.140  0.0474 -0.1465  0.0544
  210loPI   C4A 3354  15.169   2.536   8.742  0.0711  0.0879  0.1082
  210loPI   C5A 3355  15.612   2.649   8.649 -0.0997 -0.1801 -0.0493
  210loPI   C6A 3356  16.005   2.536   8.606 -0.1337  0.3520 -0.1357
  210loPI   C1B 3357  14.437   2.315  10.044 -0.0266  0.0944  0.1788
  210loPI   C2B 3358  14.472   2.441   9.616 -0.0605  0.0264  0.1105
  210loPI   C3B 3359  14.524   2.467   9.229 -0.2253 -0.0358 -0.0878
  210loPI   C4B 3360  14.670   2.432   8.770 -0.1506  0.0688 -0.0217
  211loPI    C1 3361   4.995  11.888  11.462  0.0528 -0.1625  0.1056
  211loPI    C2 3362   4.765  11.990  11.772  0.0349 -0.2429  0.1192
  211loPI    C3 3363   5.096  11.773  11.831  0.1369 -0.0935  0.1045
  211loPI   PO4 3364   4.809  11.830  11.239 -0.1910  0.2793 -0.0657
  211loPI   GL1 3365   4.983  11.762  10.856  0.1619 -0.0516 -0.0944
  211loPI   GL2 3366   5.311  11.721  10.697  0.0080  0.0277  0.2089
  211loPI   C1A 3367   4.890  11.771  10.383  0.2112 -0.2285 -0.1706
  211loPI   C2A 3368   4.898  11.745   9.931  0.0004  0.1975  0.0222
  211loPI   C3A 3369   4.942  11.730   9.477  0.1002  0.1207 -0.1287
  211loPI   C4A 3370   4.940  11.860   9.028 -0.0948  0.0043 -0.3422
  211loPI   C5A 3371   4.668  11.921   8.667 -0.3037  0.0843 -0.0288
  211loPI   C6A 3372   4.381  12.025   8.338 -0.4563 -0.1661 -0.0037
  211loPI   C1B 3373   5.324  11.491  10.277 -0.1418  0.1131 -0.0605
  211loPI   C2B 3374   5.280  11.414   9.820  0.0553 -0.1027  0.0117
  211loPI   C3B 3375   5.355  11.491   9.367 -0.4361  0.0674  0.1232
  211loPI   C4B 3376   5.296  11.396   8.965  0.0103 -0.2382  0.0908
  212loPI    C1 3377   2.863   4.125  11.443  0.0597 -0.0463 -0.0808
  212loPI    C2 3378   3.019   4.166  11.809  0.0172  0.0560 -0.0739
  212loPI    C3 3379   2.897   3.807  11.684  0.0307  0.0209  0.0127
  212loPI   PO4 3380   2.679   4.357  11.392 -0.1110 -0.1531 -0.1993
  212loPI   GL1 3381   2.520   4.610  10.995  0.0606  0.4056 -0.3087
  212loPI   GL2 3382   2.473   4.871  10.961  0.0131  0.0593 -0.0095
  212loPI   C1A 3383   2.410   4.357  10.564 -0.0536 -0.1388  0.1311
  212loPI   C2A 3384   2.403   4.396  10.040  0.0241  0.2200 -0.1136
  212loPI   C3A 3385   2.411   4.499   9.610 -0.0033 -0.2642  0.1210
  212loPI   C4A 3386   2.485   4.453   9.219  0.2907 -0.1333 -0.0326
  212loPI   C5A 3387   2.399   4.718   8.924  0.0409 -0.0869  0.0807
  212loPI   C6A 3388   2.314   4.772   8.508 -0.0253  0.0118 -0.0926
  212loPI   C1B 3389   2.585   4.929  10.505 -0.0699  0.0170 -0.1284
  212loPI   C2B 3390   2.427   4.946  10.093 -0.4134 -0.0785  0.2157
  212loPI   C3B 3391   2.484   4.959   9.714 -0.0292 -0.1845  0.0114
  212loPI   C4B 3392   2.544   5.075   9.357  0.1329  0.4969 -0.1136
  213loPI    C1 3393  11.291   0.175  10.475 -0.2540  0.1220  0.2696
  213loPI    C2 3394  11.340   0.317  10.845  0.0634  0.0538  0.2568
  213loPI    C3 3395  11.464  -0.053  10.755  0.1863  0.1488  0.0290
  213loPI   PO4 3396  11.045   0.250  10.435  0.0933 -0.0451  0.1115
  213loPI   GL1 3397  10.922   0.571  10.167  0.0022 -0.0219  0.0954
  213loPI   GL2 3398  10.588   0.471  10.114  0.0878  0.0753 -0.0387
  213loPI   C1A 3399  11.061   0.552   9.763 -0.2654  0.0501  0.3033
  213loPI   C2A 3400  11.080   0.609   9.301  0.0161  0.0160 -0.0845
  213loPI   C3A 3401  11.144   0.640   8.851  0.0550 -0.1857  0.1547
  213loPI   C4A 3402  11.051   0.773   8.462  0.3051  0.1669 -0.0474
  213loPI   C5A 3403  10.878   0.608   8.150  0.1388  0.0429 -0.0854
  213loPI   C6A 3404  10.723   0.300   7.955 -0.0391  0.0045 -0.1413
  213loPI   C1B 3405  10.565   0.737   9.742  0.0400 -0.2215  0.2667
  213loPI   C2B 3406  10.523   0.823   9.318 -0.0412 -0.2616 -0.1403
  213loPI   C3B 3407  10.644   0.901   8.877  0.1786 -0.1113  0.0030
  213loPI   C4B 3408  10.646   1.049   8.445  0.0584  0.1344 -0.0092
  214loPI    C1 3409  13.674  13.396  11.232 -0.5907 -0.1035 -0.1216
  214loPI    C2 3410  13.511  13.702  11.430  0.0576  0.1388  0.0616
  214loPI    C3 3411  13.612  13.368  11.626 -0.3203 -0.0609 -0.0742
  214loPI   PO4 3412  13.698  13.573  10.947 -0.1117 -0.0266  0.0440
  214loPI   GL1 3413  13.630  13.796  10.536 -0.2432  0.4103 -0.3619
  214loPI   GL2 3414  13.700  14.095  10.574  0.1302 -0.1713  0.1972
  214loPI   C1A 3415  13.719  13.537  10.160  0.0756 -0.2588  0.1718
  214loPI   C2A 3416  13.727  13.589   9.697  0.1424  0.0963 -0.0582
  214loPI   C3A 3417  13.752  13.611   9.262 -0.2029  0.2709 -0.1781
  214loPI   C4A 3418  13.761  13.453   8.829  0.3766  0.1546  0.0068
  214loPI   C5A 3419  13.751  13.739   8.456  0.0305 -0.0545  0.0344
  214loPI   C6A 3420  13.710  14.200   8.378  0.2763  0.0876  0.0262
  214loPI   C1B 3421  13.732  14.098  10.167  0.0465 -0.0286 -0.1959
  214loPI   C2B 3422  13.782  14.076   9.682  0.1237  0.0723  0.2199
  214loPI   C3B 3423  13.748  14.114   9.160  0.0917 -0.2197 -0.0650
  214loPI   C4B 3424  13.617  13.988   8.890 -0.1190 -0.3143 -0.1653
  215loPI    C1 3425   6.424  15.286  10.914  0.0981  0.0296  0.1193
  215loPI    C2 3426   6.738  15.279  11.161  0.0702 -0.1613  0.1505
  215loPI    C3 3427   6.394  15.447  11.279  0.1229 -0.0600  0.1612
  215loPI   PO4 3428   6.568  15.384  10.708 -0.2680 -0.2484  0.1787
  215loPI   GL1 3429   6.732  15.216  10.318  0.0634 -0.2198 -0.4620
  215loPI   GL2 3430   6.852  14.938  10.025  0.0040 -0.1965 -0.1686
  215loPI   C1A 3431   6.380  15.168   9.958 -0.1086 -0.1130  0.1142
  215loPI   C2A 3432   6.287  15.220   9.508  0.0224  0.0803  0.1305
  215loPI   C3A 3433   6.234  15.281   9.054 -0.0832 -0.1094  0.1488
  215loPI   C4A 3434   6.224  15.313   8.627  0.0499  0.1955 -0.2100
  215loPI   C5A 3435   5.941  15.214   8.338 -0.1022 -0.1585 -0.0412
  215loPI   C6A 3436   5.960  15.007   8.003  0.0166  0.0942 -0.0669
  215loPI   C1B 3437   6.693  14.912   9.617 -0.1929  0.0531 -0.0049
  215loPI   C2B 3438   6.703  15.026   9.230  0.1720  0.2125 -0.0155
  215loPI   C3B 3439   6.694  15.073   8.817  0.2043 -0.0637 -0.0625
  215loPI   C4B 3440   6.631  15.001   8.492  0.1037  0.1517  0.1556
  216loPI    C1 3441   2.437  12.618  11.501 -0.2336 -0.2667  0.0255
  216loPI    C2 3442   2.221  12.940  11.599 -0.0539 -0.1486  0.0353
  216loPI    C3 3443   2.591  12.984  11.451  0.0012 -0.3523  0.1103
  216loPI   PO4 3444   2.313  12.455  11.360  0.1014 -0.4229  0.1687
  216loPI   GL1 3445   2.434  12.365  10.937  0.0294 -0.0647  0.0796
  216loPI   GL2 3446   2.533  12.681  10.874  0.0526  0.0038 -0.1090
  216loPI   C1A 3447   2.309  12.159  10.454  0.1832 -0.0561 -0.0121
  216loPI   C2A 3448   2.321  12.210  10.040  0.1464  0.2219  0.0440
  216loPI   C3A 3449   2.302  12.275   9.605 -0.0671  0.1634  0.2588
  216loPI   C4A 3450   2.339  12.315   9.150 -0.1751 -0.0684  0.3049
  216loPI   C5A 3451   2.484  12.246   8.690 -0.2421 -0.1151 -0.2507
  216loPI   C6A 3452   2.497  12.364   8.276 -0.0630  0.1312  0.3701
  216loPI   C1B 3453   2.455  12.638  10.349 -0.2143  0.1637 -0.3416
  216loPI   C2B 3454   2.364  12.713   9.947  0.1081 -0.1106 -0.1840
  216loPI   C3B 3455   2.469  12.709   9.422  0.0337  0.1988 -0.2293
  216loPI   C4B 3456   2.558  12.729   8.972  0.1504 -0.2234 -0.0309
  217loPI    C1 3457   8.810   9.837  11.160  0.0423 -0.4449 -0.0200
  217loPI    C2 3458   8.628  10.119  11.377  0.0508 -0.1274 -0.4135
  217loPI    C3 3459   8.821   9.820  11.560  0.0445  0.1198  0.0116
  217loPI   PO4 3460   8.664   9.746  10.992  0.1776  0.2980 -0.1140
  217loPI   GL1 3461   8.317   9.611  10.712 -0.0390 -0.0111  0.3417
  217loPI   GL2 3462   8.111   9.368  10.837  0.0694 -0.0169  0.1759
  217loPI   C1A 3463   8.234   9.763  10.316 -0.0289  0.0586 -0.1470
  217loPI   C2A 3464   8.238   9.782   9.944 -0.0887 -0.0628  0.3417
  217loPI   C3A 3465   8.267   9.706   9.521  0.2074  0.0913  0.0468
  217loPI   C4A 3466   8.243   9.630   9.028 -0.1070  0.0669 -0.0201
  217loPI   C5A 3467   8.037   9.431   8.602  0.1666 -0.0017  0.1865
  217loPI   C6A 3468   7.700   9.646   8.511 -0.3426  0.0885  0.0001
  217loPI   C1B 3469   8.218   9.243  10.433 -0.2446 -0.2657 -0.1128
  217loPI   C2B 3470   8.253   9.244   9.928 -0.2205 -0.1341  0.2526
  217loPI   C3B 3471   8.100   9.168   9.515 -0.0237 -0.1468 -0.1317
  217loPI   C4B 3472   8.095   9.161   9.055  0.0541  0.0676  0.1444
  218loPI    C1 3473   2.486   0.490  11.352 -0.0696  0.2258  0.0932
  218loPI    C2 3474   2.577   0.814  11.568  0.0579  0.0372  0.3274
  218loPI    C3 3475   2.196   0.696  11.535 -0.0075  0.2977  0.1110
  218loPI   PO4 3476   2.614   0.499  11.071  0.0733 -0.2185 -0.2366
  218loPI   GL1 3477   2.458   0.352  10.701  0.2623  0.2993 -0.1146
  218loPI   GL2 3478   2.126   0.392  10.503  0.0042  0.0188  0.1707
  218loPI   C1A 3479   2.636   0.587  10.369  0.1099  0.0818  0.2096
  218loPI   C2A 3480   2.682   0.682   9.990  0.3665 -0.1470 -0.2213
  218loPI   C3A 3481   2.674   0.672   9.509 -0.1026 -0.1413 -0.2078
  218loPI   C4A 3482   2.718   0.715   9.057  0.0321 -0.1815  0.4216
  218loPI   C5A 3483   2.966   0.605   8.635 -0.3052 -0.0209  0.2200
  218loPI   C6A 3484   2.950   0.720   8.194  0.0068  0.1256  0.0299
  218loPI   C1B 3485   2.251   0.448  10.076 -0.0074  0.1641 -0.0004
  218loPI   C2B 3486   2.239   0.473   9.604 -0.0595 -0.2439  0.0960
  218loPI   C3B 3487   2.255   0.462   9.160 -0.1343 -0.3796 -0.1521
  218loPI   C4B 3488   2.017   0.368   8.729  0.2225  0.1289  0.2427
  219loPI    C1 3489   3.974   5.865  11.620  0.0929  0.1373 -0.2451
  219loPI    C2 3490   3.656   6.072  11.748 -0.0420 -0.1227 -0.1506
  219loPI    C3 3491   3.985   6.049  11.975 -0.1069 -0.1915 -0.0629
  219loPI   PO4 3492   3.941   5.872  11.371 -0.0003 -0.2259 -0.0952
  219loPI   GL1 3493   3.707   6.029  11.156 -0.0625  0.1050 -0.0792
  219loPI   GL2 3494   3.606   5.780  10.967 -0.2062 -0.1686  0.2762
  219loPI   C1A 3495   3.651   6.284  10.828  0.2095 -0.0841 -0.0526
  219loPI   C2A 3496   3.719   6.394  10.436  0.1481  0.2350 -0.2117
  219loPI   C3A 3497   3.620   6.326   9.995 -0.0031  0.1726  0.1175
  219loPI   C4A 3498   3.717   6.406   9.544 -0.0022 -0.1645 -0.0620
  219loPI   C5A 3499   3.776   6.584   9.094 -0.0892  0.0922 -0.0122
  219loPI   C6A 3500   4.019   6.787   8.741  0.1539 -0.1762  0.0114
  219loPI   C1B 3501   3.599   5.778  10.542  0.0954 -0.0942  0.2665
  219loPI   C2B 3502   3.512   5.783  10.086 -0.4561 -0.0469  0.0034
  219loPI   C3B 3503   3.504   5.897   9.749 -0.2131  0.1106 -0.1299
  219loPI   C4B 3504   3.510   5.955   9.313 -0.1206 -0.1280 -0.0321
  220loPI    C1 3505   6.538  17.477  10.774 -0.1552  0.0387 -0.1998
  220loPI    C2 3506   6.661  17.115  10.659 -0.1421 -0.0091 -0.0377
  220loPI    C3 3507   6.564  17.181  11.042 -0.2603  0.1272 -0.0904
  220loPI   PO4 3508   6.606  17.642  10.648 -0.1433 -0.0944 -0.6195
  220loPI   GL1 3509   6.614  17.703  10.257  0.0893  0.0939 -0.0293
  220loPI   GL2 3510   6.647  17.394  10.137  0.0689 -0.0715 -0.0862
  220loPI   C1A 3511   6.306  17.734  10.025 -0.1529 -0.0535 -0.0591
  220loPI   C2A 3512   6.253  17.715   9.591 -0.1091 -0.0453  0.1143
  220loPI   C3A 3513   6.220  17.815   9.096 -0.0164  0.0675 -0.0605
  220loPI   C4A 3514   6.202  17.813   8.612 -0.1656 -0.0140 -0.2356
  220loPI   C5A 3515   6.089  17.716   8.175  0.0178  0.0945 -0.0827
  220loPI   C6A 3516   6.248  17.705   7.818 -0.2002 -0.0227 -0.2053
  220loPI   C1B 3517   6.640  17.484   9.699 -0.2389  0.0365  0.3201
  220loPI   C2B 3518   6.617  17.426   9.147  0.2240  0.0051  0.1887
  220loPI   C3B 3519   6.560  17.470   8.738 -0.0820 -0.1718  0.1389
  220loPI   C4B 3520   6.597  17.573   8.318 -0.1140 -0.1179 -0.0586
  221loPI    C1 3521  13.135   8.444  11.670  0.1993  0.1553 -0.0266
  221loPI    C2 3522  13.438   8.382  11.923 -0.0811  0.0794  0.2962
  221loPI    C3 3523  13.155   8.103  11.877 -0.1977  0.2231  0.1324
  221loPI   PO4 3524  13.239   8.503  11.482  0.2832 -0.0015 -0.0823
  221loPI   GL1 3525  13.302   8.340  11.009 -0.3580 -0.0364  0.2831
  221loPI   GL2 3526  13.449   8.511  10.901 -0.0079 -0.0500 -0.2344
  221loPI   C1A 3527  13.417   8.071  10.692 -0.1175  0.2049 -0.2166
  221loPI   C2A 3528  13.431   8.081  10.269 -0.1106 -0.0337 -0.0615
  221loPI   C3A 3529  13.365   8.023   9.762  0.1512  0.2148  0.1170
  221loPI   C4A 3530  13.314   8.089   9.393 -0.2349  0.3532  0.1854
  221loPI   C5A 3531  13.368   8.158   9.006  0.2871  0.1583 -0.1541
  221loPI   C6A 3532  13.464   7.953   8.623  0.0073  0.0163 -0.0776
  221loPI   C1B 3533  13.448   8.607  10.535 -0.2928 -0.0132  0.0654
  221loPI   C2B 3534  13.528   8.593  10.070  0.0293 -0.1409  0.0998
  221loPI   C3B 3535  13.459   8.524   9.648  0.3643  0.0735  0.0984
  221loPI   C4B 3536  13.433   8.571   9.275 -0.0864  0.0742  0.0487
  222loPI    C1 3537  16.083  11.478  11.452 -0.2325  0.2988 -0.1844
  222loPI    C2 3538  16.252  11.489  11.815  0.1142 -0.2732 -0.3165
  222loPI    C3 3539  16.016  11.789  11.695  0.0402 -0.0476  0.3536
  222loPI   PO4 3540  16.325  11.381  11.260  0.1269 -0.0979 -0.1506
  222loPI   GL1 3541  16.377  11.046  10.986  0.1208 -0.1036 -0.3741
  222loPI   GL2 3542  16.135  11.065  10.729  0.0407 -0.0855  0.1478
  222loPI   C1A 3543  16.417  10.734  10.594 -0.0637 -0.1170  0.3684
  222loPI   C2A 3544  16.569  10.735  10.156 -0.0994 -0.1556 -0.1523
  222loPI   C3A 3545  16.479  10.754   9.744  0.0490  0.2720 -0.0467
  222loPI   C4A 3546  16.524  10.868   9.325 -0.0764 -0.3716  0.1825
  222loPI   C5A 3547  16.551  10.723   8.812 -0.1661 -0.2881 -0.0144
  222loPI   C6A 3548  16.436  10.865   8.445 -0.3820  0.0672  0.2987
  222loPI   C1B 3549  16.047  11.037  10.219 -0.3126 -0.2078  0.0897
  222loPI   C2B 3550  16.046  11.105   9.723  0.3533 -0.0692  0.0669
  222loPI   C3B 3551  16.015  11.028   9.419 -0.1158  0.0100 -0.3352
  222loPI   C4B 3552  16.182  11.124   9.010  0.2599 -0.1344 -0.2161
  223loPI    C1 3553   4.928   9.857  11.355 -0.1104  0.0822  0.2457
  223loPI    C2 3554   4.986   9.510  11.165  0.0470  0.1204  0.2231
  223loPI    C3 3555   4.706   9.538  11.449 -0.0142 -0.0060  0.1759
  223loPI   PO4 3556   4.869  10.024  11.154 -0.0623  0.0949 -0.2889
  223loPI   GL1 3557   4.921   9.902  10.750  0.3374  0.1642 -0.0974
  223loPI   GL2 3558   5.229   9.890  10.612 -0.1271 -0.2857 -0.0194
  223loPI   C1A 3559   4.742   9.608  10.414  0.1639 -0.1873 -0.0546
  223loPI   C2A 3560   4.594   9.795  10.056  0.1407  0.3727  0.0091
  223loPI   C3A 3561   4.557   9.765   9.632 -0.0128 -0.1140  0.0313
  223loPI   C4A 3562   4.527   9.825   9.170  0.2497  0.0579 -0.2764
  223loPI   C5A 3563   4.423   9.844   8.789  0.0423  0.1407 -0.0374
  223loPI   C6A 3564   4.017   9.745   8.588 -0.0360  0.3343 -0.0887
  223loPI   C1B 3565   5.116   9.854  10.157 -0.0049 -0.0951 -0.0505
  223loPI   C2B 3566   5.068   9.921   9.736 -0.0548 -0.1116 -0.0862
  223loPI   C3B 3567   5.064   9.892   9.293  0.0462  0.3622  0.1066
  223loPI   C4B 3568   5.022   9.826   8.870 -0.0333 -0.0027  0.0119
  224loPI    C1 3569  13.823   5.619  11.656 -0.0638 -0.0168  0.0155
  224loPI    C2 3570  14.150   5.817  11.776 -0.1385  0.1374 -0.0332
  224loPI    C3 3571  13.892   5.673  12.047  0.0323 -0.0933  0.0095
  224loPI   PO4 3572  13.769   5.674  11.366 -0.0313  0.1107 -0.1700
  224loPI   GL1 3573  13.542   5.780  11.000  0.1398  0.0254 -0.1362
  224loPI   GL2 3574  13.573   5.424  10.952 -0.1260 -0.0508 -0.0333
  224loPI   C1A 3575  13.586   5.748  10.583  0.0696 -0.0425  0.1706
  224loPI   C2A 3576  13.245   5.725  10.180 -0.0355  0.1812 -0.1091
  224loPI   C3A 3577  13.178   5.859   9.763 -0.2946 -0.1194  0.1493
  224loPI   C4A 3578  13.206   5.994   9.337  0.1509 -0.0135 -0.0978
  224loPI   C5A 3579  13.154   5.985   8.869 -0.0888 -0.0333 -0.1607
  224loPI   C6A 3580  13.549   5.889   8.583  0.2336  0.2681  0.0746
  224loPI   C1B 3581  13.370   5.284  10.558 -0.2351  0.0839 -0.0209
  224loPI   C2B 3582  13.135   5.268  10.150  0.2986  0.2565 -0.0642
  224loPI   C3B 3583  13.069   5.330   9.766  0.1545  0.1899 -0.0146
  224loPI   C4B 3584  13.161   5.414   9.385  0.0441  0.2366 -0.1319
  225loPI    C1 3585   0.394   0.548  11.192  0.0012 -0.1852 -0.0774
  225loPI    C2 3586   0.356   0.186  11.357  0.2081 -0.2190 -0.1008
  225loPI    C3 3587   0.588   0.461  11.531  0.2775 -0.1925 -0.2342
  225loPI   PO4 3588   0.278   0.527  11.017  0.1788 -0.0279  0.0796
  225loPI   GL1 3589   0.033   0.436  10.541  0.1065 -0.2338  0.0746
  225loPI   GL2 3590  -0.232   0.656  10.412 -0.1990 -0.0136  0.1766
  225loPI   C1A 3591  -0.169   0.162  10.198  0.0270 -0.1258  0.1057
  225loPI   C2A 3592  -0.196   0.125   9.719  0.0138  0.1736 -0.1820
  225loPI   C3A 3593  -0.174  -0.102   9.302  0.0864  0.4217 -0.0196
  225loPI   C4A 3594  -0.074  -0.006   8.864  0.0501 -0.2535 -0.0488
  225loPI   C5A 3595   0.263   0.213   8.615  0.3475  0.2148 -0.2099
  225loPI   C6A 3596   0.192   0.574   8.434  0.1933 -0.1475 -0.0958
  225loPI   C1B 3597  -0.138   0.669   9.935 -0.1516  0.0257  0.0849
  225loPI   C2B 3598  -0.008   0.523   9.467  0.2683  0.0757  0.1349
  225loPI   C3B 3599  -0.153   0.678   9.108  0.1360 -0.0224 -0.2435
  225loPI   C4B 3600  -0.265   0.531   8.682  0.1618 -0.0562  0.1152
  226loPI    C1 3601   6.117   7.075  11.434  0.0377  0.0579 -0.1239
  226loPI    C2 3602   6.456   7.124  11.640 -0.0824 -0.0231  0.0963
  226loPI    C3 3603   6.119   7.301  11.764 -0.2069 -0.2617  0.1031
  226loPI   PO4 3604   6.143   7.120  11.146 -0.1548  0.0788 -0.0306
  226loPI   GL1 3605   5.823   7.039  10.810  0.1213 -0.0580 -0.1989
  226loPI   GL2 3606   5.738   7.255  10.743 -0.1742  0.0448  0.0172
  226loPI   C1A 3607   6.087   6.782  10.518 -0.2632 -0.1579 -0.0818
  226loPI   C2A 3608   6.109   6.772  10.092  0.3968  0.2112  0.0028
  226loPI   C3A 3609   5.979   6.877   9.750 -0.3115  0.1731 -0.0775
  226loPI   C4A 3610   5.959   6.781   9.240  0.0047 -0.0196 -0.1010
  226loPI   C5A 3611   5.875   6.783   8.805 -0.1611 -0.1715  0.1490
  226loPI   C6A 3612   5.697   7.081   8.581 -0.0768 -0.0357  0.1531
  226loPI   C1B 3613   5.648   6.992  10.334  0.2533  0.2374 -0.0577
  226loPI   C2B 3614   5.596   7.095   9.990 -0.1692 -0.2681 -0.1442
  226loPI   C3B 3615   5.606   7.165   9.614  0.0405  0.0239 -0.2071
  226loPI   C4B 3616   5.562   7.083   9.136 -0.1784  0.2408  0.3741
  227loPI    C1 3617   5.255  10.241  11.458  0.0978 -0.2158 -0.2013
  227loPI    C2 3618   4.914  10.204  11.664  0.0438  0.1993 -0.2068
  227loPI    C3 3619   5.227  10.393  11.827  0.2722 -0.1681 -0.2070
  227loPI   PO4 3620   5.143  10.445  11.229  0.0558  0.0485 -0.1799
  227loPI   GL1 3621   4.870  10.392  10.812  0.1157 -0.2038  0.1598
  227loPI   GL2 3622   5.199  10.349  10.725  0.1494  0.2126 -0.2179
  227loPI   C1A 3623   4.667  10.313  10.455 -0.0508  0.4082  0.0888
  227loPI   C2A 3624   4.635  10.268   9.993 -0.3336 -0.0752  0.3877
  227loPI   C3A 3625   4.687  10.239   9.563  0.1017 -0.0279 -0.3511
  227loPI   C4A 3626   4.525  10.284   9.101  0.2363  0.0712 -0.0805
  227loPI   C5A 3627   4.436  10.321   8.695  0.2566 -0.0094  0.1978
  227loPI   C6A 3628   4.387  10.209   8.293 -0.3944  0.1984  0.1635
  227loPI   C1B 3629   5.115  10.404  10.296  0.4408  0.0173  0.1401
  227loPI   C2B 3630   5.187  10.351   9.903  0.5950  0.2528  0.2783
  227loPI   C3B 3631   5.140  10.396   9.414  0.0547  0.1194 -0.0349
  227loPI   C4B 3632   5.039  10.309   9.001  0.0754  0.0967  0.1344
  228loPI    C1 3633   1.681   9.769  11.768  0.3161 -0.1427  0.0963
  228loPI    C2 3634   2.026   9.930  11.891  0.2705  0.0750 -0.0553
  228loPI    C3 3635   1.679  10.067  12.034  0.2278  0.1654 -0.2420
  228loPI   PO4 3636   1.734   9.692  11.520  0.2438 -0.1355  0.1918
  228loPI   GL1 3637   1.839   9.904  11.081 -0.2591 -0.2007  0.0604
  228loPI   GL2 3638   1.625   9.914  10.786  0.1771 -0.4492 -0.1254
  228loPI   C1A 3639   1.924   9.528  10.758  0.0892  0.0295  0.1760
  228loPI   C2A 3640   1.925   9.521  10.312  0.2852 -0.2044  0.0763
  228loPI   C3A 3641   1.897   9.664   9.902  0.1814  0.0260  0.0278
  228loPI   C4A 3642   1.886   9.647   9.395 -0.3423 -0.1700  0.0430
  228loPI   C5A 3643   1.918   9.630   9.001 -0.0454  0.1592  0.0959
  228loPI   C6A 3644   1.770   9.902   8.685 -0.1090  0.2526  0.1950
  228loPI   C1B 3645   1.519   9.916  10.422 -0.3201  0.2344 -0.0822
  228loPI   C2B 3646   1.508   9.953  10.023  0.0236 -0.2681 -0.0900
  228loPI   C3B 3647   1.531   9.982   9.626  0.1179 -0.0570  0.0358
  228loPI   C4B 3648   1.528   9.951   9.216 -0.0780 -0.0857  0.1641
  229loPI    C1 3649   5.864   6.503  11.491  0.0771 -0.2461 -0.0517
  229loPI    C2 3650   5.682   6.357  11.816  0.1057  0.1737  0.1604
  229loPI    C3 3651   6.081   6.342  11.785  0.1038  0.1442  0.1498
  229loPI   PO4 3652   5.762   6.362  11.295  0.1138 -0.0621 -0.0864
  229loPI   GL1 3653   5.672   6.273  10.882  0.0399 -0.4985 -0.0765
  229loPI   GL2 3654   5.622   6.575  10.666  0.1032  0.0835  0.0455
  229loPI   C1A 3655   5.547   6.101  10.527 -0.0658  0.1714  0.1228
  229loPI   C2A 3656   5.346   6.150  10.089 -0.1086 -0.0050 -0.0663
  229loPI   C3A 3657   5.380   6.190   9.593 -0.1114  0.3191  0.1211
  229loPI   C4A 3658   5.326   6.128   9.249 -0.2170  0.0683  0.0500
  229loPI   C5A 3659   5.529   6.004   8.901 -0.0739 -0.1185  0.1567
  229loPI   C6A 3660   5.675   5.634   8.723 -0.0342 -0.1263 -0.1390
  229loPI   C1B 3661   5.576   6.563  10.184  0.2155  0.2123 -0.0731
  229loPI   C2B 3662   5.425   6.595   9.846 -0.2686 -0.1328  0.0414
  229loPI   C3B 3663   5.408   6.644   9.346 -0.1719 -0.2903  0.0638
  229loPI   C4B 3664   5.528   6.491   8.997 -0.0416 -0.1083 -0.0754
  230loPI    C1 3665  15.943  10.670  11.381 -0.2700 -0.0392  0.0157
  230loPI    C2 3666  16.088  11.014  11.526 -0.3433 -0.0079  0.0153
  230loPI    C3 3667  16.193  10.666  11.693 -0.0282 -0.0081 -0.1744
  230loPI   PO4 3668  15.982  10.644  11.104  0.4081 -0.0211  0.1998
  230loPI   GL1 3669  15.936  10.384  10.700 -0.0565  0.0017  0.1775
  230loPI   GL2 3670  15.941  10.078  10.726 -0.0080  0.1580  0.0006
  230loPI   C1A 3671  15.989  10.529  10.332  0.2396  0.1112  0.1056
  230loPI   C2A 3672  15.989  10.649   9.922 -0.0790  0.0692 -0.0233
  230loPI   C3A 3673  15.990  10.588   9.515  0.1688 -0.0398 -0.0140
  230loPI   C4A 3674  16.095  10.634   9.102  0.1588  0.1532  0.1887
  230loPI   C5A 3675  16.016  10.667   8.764 -0.1448 -0.0206  0.1730
  230loPI   C6A 3676  15.629  10.660   8.510 -0.0199 -0.2619 -0.0342
  230loPI   C1B 3677  15.918   9.994  10.313 -0.0273  0.2574 -0.0034
  230loPI   C2B 3678  15.921  10.058   9.849 -0.0810 -0.1367  0.0705
  230loPI   C3B 3679  16.042  10.029   9.436  0.2979  0.1999  0.1444
  230loPI   C4B 3680  16.004  10.171   9.085  0.2184 -0.2005 -0.1238
  231loPI    C1 3681   1.928   8.106  11.710  0.4599 -0.1557 -0.0917
  231loPI    C2 3682   2.022   7.771  11.908 -0.0516 -0.1947  0.1000
  231loPI    C3 3683   1.910   8.098  12.109 -0.3135 -0.1502 -0.1120
  231loPI   PO4 3684   1.909   8.001  11.437 -0.3450 -0.2295 -0.3306
  231loPI   GL1 3685   1.875   8.174  11.030 -0.0846 -0.0632  0.1822
  231loPI   GL2 3686   1.610   8.035  10.884  0.1328 -0.2395  0.0037
  231loPI   C1A 3687   2.075   8.159  10.624 -0.3017  0.0923  0.3422
  231loPI   C2A 3688   2.242   8.175  10.214  0.0560  0.1347  0.2823
  231loPI   C3A 3689   2.096   8.267   9.753 -0.1393 -0.1102  0.0288
  231loPI   C4A 3690   2.079   8.328   9.345 -0.1715 -0.1097 -0.0497
  231loPI   C5A 3691   2.206   8.255   8.999 -0.0800  0.0782 -0.3175
  231loPI   C6A 3692   1.998   8.068   8.715  0.1617 -0.2000  0.1808
  231loPI   C1B 3693   1.379   8.160  10.575  0.3973  0.2364 -0.2974
  231loPI   C2B 3694   1.207   8.292  10.177  0.0534  0.0980  0.1853
  231loPI   C3B 3695   1.176   8.394   9.867 -0.0272  0.1607  0.1958
  231loPI   C4B 3696   1.244   8.425   9.462 -0.3136  0.3134 -0.0399
  232loPI    C1 3697   0.245  12.943  11.663 -0.0195 -0.0318  0.0324
  232loPI    C2 3698   0.501  12.637  11.641  0.0545  0.0358 -0.0518
  232loPI    C3 3699   0.297  12.702  11.979  0.1415 -0.0237  0.0128
  232loPI   PO4 3700   0.092  12.965  11.396 -0.1128  0.3317  0.1055
  232loPI   GL1 3701   0.007  12.780  10.916 -0.6867  0.0334 -0.3960
  232loPI   GL2 3702   0.134  13.105  10.835  0.2354 -0.0722  0.2040
  232loPI   C1A 3703   0.087  12.689  10.475  0.0783  0.0096  0.0160
  232loPI   C2A 3704   0.113  12.649  10.057  0.0439  0.0519  0.2712
  232loPI   C3A 3705   0.046  12.609   9.644 -0.0772 -0.0963  0.1064
  232loPI   C4A 3706   0.115  12.744   9.235 -0.1238 -0.0044  0.1921
  232loPI   C5A 3707   0.080  12.693   8.742 -0.1417  0.0548 -0.2451
  232loPI   C6A 3708  -0.137  12.541   8.498 -0.3196  0.2573 -0.1536
  232loPI   C1B 3709   0.174  13.208  10.448  0.3816 -0.0365 -0.0460
  232loPI   C2B 3710   0.216  13.124  10.032  0.3602 -0.1622  0.2351
  232loPI   C3B 3711   0.099  13.151   9.668 -0.1274  0.2713  0.1268
  232loPI   C4B 3712   0.188  13.291   9.461  0.0207  0.1421  0.0931
  233loPI    C1 3713  17.102   8.477  11.410 -0.1745  0.2616 -0.2047
  233loPI    C2 3714  17.410   8.730  11.370 -0.0625  0.1769  0.0953
  233loPI    C3 3715  17.142   8.784  11.663 -0.0319 -0.0561  0.1684
  233loPI   PO4 3716  16.977   8.490  11.128  0.3186  0.0193  0.2423
  233loPI   GL1 3717  17.136   8.528  10.791  0.0052  0.1447  0.0266
  233loPI   GL2 3718  17.468   8.376  10.889 -0.1903  0.1296 -0.3303
  233loPI   C1A 3719  17.034   8.619  10.341 -0.1031  0.0418  0.0699
  233loPI   C2A 3720  17.160   8.555   9.951 -0.1532 -0.4086  0.0390
  233loPI   C3A 3721  17.031   8.573   9.525 -0.0764  0.0368 -0.3501
  233loPI   C4A 3722  17.047   8.447   9.025 -0.0400 -0.1432 -0.2649
  233loPI   C5A 3723  17.383   8.115   8.842  0.0788  0.0052 -0.1599
  233loPI   C6A 3724  17.610   8.130   8.516 -0.0397  0.2713 -0.1325
  233loPI   C1B 3725  17.418   8.247  10.395  0.0092  0.1730 -0.1736
  233loPI   C2B 3726  17.561   8.254  10.003  0.1861  0.1604  0.2234
  233loPI   C3B 3727  17.582   8.211   9.641  0.1149 -0.0635  0.0843
  233loPI   C4B 3728  17.398   8.269   9.334 -0.1311  0.2108  0.1335
  234loPI    C1 3729   9.362   6.734  11.522  0.1320  0.0612 -0.0594
  234loPI    C2 3730   9.041   6.504  11.457  0.1380 -0.0087  0.1514
  234loPI    C3 3731   9.382   6.341  11.590  0.2088  0.0903  0.0929
  234loPI   PO4 3732   9.361   6.925  11.212  0.1120 -0.2483  0.1522
  234loPI   GL1 3733   9.233   6.827  10.774 -0.0407  0.1366  0.1955
  234loPI   GL2 3734   9.354   7.159  10.612 -0.0053 -0.3780  0.0065
  234loPI   C1A 3735   8.906   6.933  10.417  0.0433  0.0968 -0.1635
  234loPI   C2A 3736   8.738   7.046  10.061  0.2042  0.4219  0.0543
  234loPI   C3A 3737   8.776   6.940   9.661 -0.2723 -0.1570 -0.0871
  234loPI   C4A 3738   8.759   6.951   9.177  0.2652  0.3849 -0.1885
  234loPI   C5A 3739   8.873   7.032   8.733 -0.3221  0.1788  0.2017
  234loPI   C6A 3740   8.693   7.024   8.281  0.0983  0.0025  0.0209
  234loPI   C1B 3741   9.278   7.259  10.163  0.1551 -0.0175  0.2003
  234loPI   C2B 3742   9.239   7.167   9.757 -0.0789  0.1599 -0.0770
  234loPI   C3B 3743   9.323   7.231   9.267 -0.4046  0.0241  0.0953
  234loPI   C4B 3744   9.278   7.194   8.941 -0.0008 -0.2572  0.0910
  235loPI    C1 3745   8.661   8.530  11.393 -0.1905  0.1569 -0.0263
  235loPI    C2 3746   8.376   8.425  11.654 -0.0248 -0.0547  0.0732
  235loPI    C3 3747   8.761   8.406  11.760  0.0318  0.1519 -0.0872
  235loPI   PO4 3748   8.511   8.685  11.220  0.2160  0.1580 -0.1816
  235loPI   GL1 3749   8.530   8.620  10.868  0.4440  0.0604  0.1729
  235loPI   GL2 3750   8.719   8.639  10.693 -0.2543 -0.1465  0.1075
  235loPI   C1A 3751   8.259   8.727  10.580 -0.1689  0.0234  0.1425
  235loPI   C2A 3752   8.104   8.701  10.197  0.1073  0.0096  0.1539
  235loPI   C3A 3753   8.111   8.736   9.790  0.1268  0.3102  0.0746
  235loPI   C4A 3754   8.034   8.649   9.453  0.2286  0.0143 -0.0129
  235loPI   C5A 3755   7.962   8.610   9.079 -0.1801 -0.3012 -0.1584
  235loPI   C6A 3756   7.999   8.425   8.688 -0.1161  0.0149  0.3445
  235loPI   C1B 3757   8.652   8.370  10.347  0.0004  0.1182 -0.3622
  235loPI   C2B 3758   8.511   8.432   9.924 -0.2432  0.2795  0.0761
  235loPI   C3B 3759   8.464   8.300   9.537  0.0988 -0.0961 -0.1303
  235loPI   C4B 3760   8.412   8.356   9.131  0.0429  0.1492 -0.3232
  236loPI    C1 3761   3.595   3.439  11.459 -0.2483 -0.1215  0.0559
  236loPI    C2 3762   3.414   3.598  11.778  0.0376 -0.0214  0.1708
  236loPI    C3 3763   3.608   3.250  11.811  0.1061  0.0116  0.1185
  236loPI   PO4 3764   3.410   3.472  11.225  0.0400 -0.2247  0.0836
  236loPI   GL1 3765   3.527   3.419  10.694 -0.0440 -0.2141 -0.0483
  236loPI   GL2 3766   3.155   3.537  10.766 -0.0338 -0.0127  0.1637
  236loPI   C1A 3767   3.690   3.372  10.263  0.0246  0.1582 -0.0295
  236loPI   C2A 3768   3.589   3.365   9.862 -0.2437 -0.2000 -0.2848
  236loPI   C3A 3769   3.575   3.415   9.409  0.0681 -0.1128  0.0072
  236loPI   C4A 3770   3.720   3.504   8.956 -0.3316 -0.0556 -0.1900
  236loPI   C5A 3771   4.144   3.566   8.692 -0.0654  0.0267  0.2056
  236loPI   C6A 3772   4.420   3.977   8.439  0.1105  0.0996  0.0845
  236loPI   C1B 3773   3.252   3.709  10.402 -0.1896  0.1289  0.0534
  236loPI   C2B 3774   3.248   3.751   9.953  0.1508 -0.1738 -0.1287
  236loPI   C3B 3775   3.138   3.719   9.511  0.0463 -0.2692 -0.0332
  236loPI   C4B 3776   3.297   3.692   9.075 -0.1136 -0.4172 -0.0193
  237loPI    C1 3777   7.467   8.389  11.416  0.1203  0.0145  0.4486
  237loPI    C2 3778   7.205   8.674  11.516 -0.1123 -0.1166  0.2244
  237loPI    C3 3779   7.170   8.308  11.673 -0.1772 -0.1851  0.0531
  237loPI   PO4 3780   7.509   8.425  11.140  0.0118  0.0986 -0.0858
  237loPI   GL1 3781   7.824   8.456  10.773 -0.2199 -0.0136  0.1339
  237loPI   GL2 3782   7.623   8.693  10.755  0.1164 -0.0575  0.3472
  237loPI   C1A 3783   7.677   8.460  10.336 -0.0621 -0.3499  0.1937
  237loPI   C2A 3784   7.600   8.503   9.893 -0.1389 -0.3361 -0.1617
  237loPI   C3A 3785   7.575   8.471   9.517  0.0559 -0.0760 -0.0162
  237loPI   C4A 3786   7.472   8.380   9.033  0.0895  0.1260  0.1053
  237loPI   C5A 3787   7.526   8.402   8.676 -0.1036 -0.3719 -0.0241
  237loPI   C6A 3788   7.701   8.550   8.297  0.0376  0.1139 -0.0280
  237loPI   C1B 3789   7.744   9.026  10.367  0.3629  0.2267  0.0658
  237loPI   C2B 3790   7.706   9.011   9.933 -0.2923  0.0443 -0.2124
  237loPI   C3B 3791   7.645   8.996   9.591  0.2783  0.2294  0.1339
  237loPI   C4B 3792   7.494   8.953   9.241  0.0867 -0.1319  0.2073
  238loPI    C1 3793   3.126   1.398  11.332 -0.0187  0.0008 -0.2903
  238loPI    C2 3794   2.728   1.376  11.363 -0.0057  0.2721  0.1396
  238loPI    C3 3795   2.960   1.202  11.638  0.1754  0.1352 -0.0963
  238loPI   PO4 3796   3.252   1.603  11.192 -0.1753  0.0866 -0.1978
  238loPI   GL1 3797   2.924   1.783  10.896  0.0298 -0.0562  0.1792
  238loPI   GL2 3798   2.956   1.402  10.874  0.0132  0.5129 -0.1746
  238loPI   C1A 3799   2.972   2.031  10.561 -0.2667  0.0052 -0.0120
  238loPI   C2A 3800   2.986   2.205  10.195  0.5059  0.3721  0.0414
  238loPI   C3A 3801   2.940   2.281   9.698 -0.1039  0.3856 -0.1511
  238loPI   C4A 3802   3.076   2.318   9.276  0.1998  0.1604 -0.0046
  238loPI   C5A 3803   2.968   2.183   8.893 -0.2201 -0.0968 -0.0635
  238loPI   C6A 3804   2.998   1.723   8.785 -0.3082 -0.1607  0.3067
  238loPI   C1B 3805   2.971   1.570  10.449 -0.3751  0.0185 -0.0211
  238loPI   C2B 3806   2.867   1.726  10.052  0.1427  0.3257 -0.1926
  238loPI   C3B 3807   2.828   1.744   9.664 -0.1383 -0.0643 -0.0881
  238loPI   C4B 3808   2.798   1.829   9.234 -0.1938  0.0486 -0.2149
  239loPI    C1 3809  15.370  10.009  11.433  0.2488 -0.2423  0.1531
  239loPI    C2 3810  15.065   9.894  11.665  0.1941 -0.2181  0.0930
  239loPI    C3 3811  15.010   9.946  11.272  0.1860  0.1328  0.1375
  239loPI   PO4 3812  15.593   9.840  11.497  0.0705 -0.0362 -0.1304
  239loPI   GL1 3813  15.692   9.688  11.068  0.0780 -0.1860  0.1242
  239loPI   GL2 3814  15.393   9.845  10.953 -0.0226 -0.0911 -0.2416
  239loPI   C1A 3815  15.902   9.598  10.704  0.1382  0.0870 -0.3557
  239loPI   C2A 3816  15.885   9.527  10.218  0.1264 -0.1758  0.2227
  239loPI   C3A 3817  15.952   9.518   9.693 -0.1549 -0.0837 -0.0020
  239loPI   C4A 3818  15.962   9.588   9.270  0.0405 -0.1130  0.0758
  239loPI   C5A 3819  16.026   9.248   9.021 -0.0779 -0.1142  0.0446
  239loPI   C6A 3820  16.003   9.281   8.550  0.2420  0.1708 -0.3018
  239loPI   C1B 3821  15.477   9.850  10.535 -0.0419  0.0997  0.1432
  239loPI   C2B 3822  15.426   9.853  10.053 -0.0859  0.3969 -0.1844
  239loPI   C3B 3823  15.540   9.823   9.664  0.1515 -0.0523  0.3075
  239loPI   C4B 3824  15.621   9.881   9.282  0.0727 -0.2414 -0.3324
  240loPI    C1 3825   4.910  13.151  11.365 -0.0181  0.2370 -0.0660
  240loPI    C2 3826   5.183  13.372  11.556 -0.0474  0.1382  0.0922
  240loPI    C3 3827   4.829  13.300  11.727 -0.0234 -0.0629  0.0589
  240loPI   PO4 3828   4.928  13.287  11.078  0.0079  0.1661 -0.0827
  240loPI   GL1 3829   4.649  13.197  10.671  0.1942  0.0369  0.0679
  240loPI   GL2 3830   4.947  13.408  10.508 -0.0439  0.0350 -0.0345
  240loPI   C1A 3831   4.620  13.142  10.268 -0.2090 -0.1893 -0.1939
  240loPI   C2A 3832   4.705  13.128   9.879  0.1621  0.2333  0.3476
  240loPI   C3A 3833   4.688  13.179   9.509  0.0458 -0.2293 -0.1856
  240loPI   C4A 3834   4.723  13.156   9.080  0.0318  0.1154  0.0006
  240loPI   C5A 3835   4.625  13.240   8.672  0.0470 -0.1719  0.2220
  240loPI   C6A 3836   4.862  13.472   8.410 -0.0235  0.1908  0.0697
  240loPI   C1B 3837   5.214  13.333  10.084  0.0107  0.3075 -0.0868
  240loPI   C2B 3838   5.177  13.206   9.746 -0.2340 -0.1527 -0.2819
  240loPI   C3B 3839   5.136  13.350   9.388 -0.1407  0.2348  0.0620
  240loPI   C4B 3840   5.114  13.445   8.910  0.5476 -0.1766  0.0783
  241loPI    C1 3841  17.301   6.058  11.668  0.0019 -0.0963  0.0633
  241loPI    C2 3842  16.967   5.997  11.456  0.0218 -0.1570  0.0497
  241loPI    C3 3843  17.108   5.708  11.694  0.1037 -0.1573  0.0014
  241loPI   PO4 3844  17.500   6.084  11.554 -0.2198 -0.0130  0.1116
  241loPI   GL1 3845  17.850   5.948  11.389 -0.0693 -0.1524  0.0466
  241loPI   GL2 3846  17.868   5.662  11.227  0.0067 -0.1182 -0.1741
  241loPI   C1A 3847  18.002   6.081  10.923 -0.0582  0.1304  0.3136
  241loPI   C2A 3848  18.013   5.978  10.528 -0.1323 -0.0796 -0.0445
  241loPI   C3A 3849  18.048   6.017  10.172  0.2655 -0.0830  0.2673
  241loPI   C4A 3850  18.082   6.056   9.694  0.0727  0.4289  0.2431
  241loPI   C5A 3851  18.121   6.128   9.216 -0.1129 -0.0295 -0.3605
  241loPI   C6A 3852  18.474   6.151   8.931 -0.3374  0.3057 -0.1942
  241loPI   C1B 3853  17.648   5.775  10.885 -0.0866 -0.1590  0.0618
  241loPI   C2B 3854  17.543   5.798  10.390 -0.0435 -0.1172 -0.1006
  241loPI   C3B 3855  17.595   5.900   9.892  0.5214 -0.0246 -0.1518
  241loPI   C4B 3856  17.631   5.825   9.503 -0.0334 -0.0858 -0.0199
  242loPI    C1 3857   5.925  15.370  10.893  0.0932  0.1171  0.0628
  242loPI    C2 3858   5.932  15.161  11.233  0.3194 -0.1627 -0.1093
  242loPI    C3 3859   5.919  15.560  11.245  0.0253 -0.1764  0.2234
  242loPI   PO4 3860   5.781  15.255  10.739  0.0623  0.3265 -0.2314
  242loPI   GL1 3861   5.497  15.475  10.533 -0.2106  0.0478 -0.1699
  242loPI   GL2 3862   5.287  15.503  10.731 -0.1384 -0.0336  0.0865
  242loPI   C1A 3863   5.557  15.308  10.177 -0.1332 -0.0905  0.4513
  242loPI   C2A 3864   5.508  15.326   9.687  0.0333  0.0767 -0.0703
  242loPI   C3A 3865   5.306  15.339   9.273 -0.2089  0.3494 -0.2669
  242loPI   C4A 3866   5.350  15.522   8.805 -0.0271  0.2528  0.0249
  242loPI   C5A 3867   5.440  15.277   8.436  0.2921  0.0306 -0.2773
  242loPI   C6A 3868   5.208  14.930   8.280  0.0212 -0.4817  0.1374
  242loPI   C1B 3869   5.002  15.236  10.422  0.1557  0.0740  0.0143
  242loPI   C2B 3870   4.902  15.217  10.043  0.1371  0.3003  0.1754
  242loPI   C3B 3871   4.858  15.244   9.545  0.0697 -0.3255 -0.0693
  242loPI   C4B 3872   4.901  15.291   9.061 -0.3614 -0.1565 -0.0399
  243loPI    C1 3873   7.800   7.981  11.322  0.1733 -0.0671 -0.0743
  243loPI    C2 3874   7.438   7.897  11.469  0.0722  0.1948 -0.1668
  243loPI    C3 3875   7.765   7.753  11.648 -0.0665  0.1627  0.0646
  243loPI   PO4 3876   7.783   8.005  10.979  0.0467 -0.0257 -0.1761
  243loPI   GL1 3877   7.835   7.748  10.624 -0.3957 -0.3230 -0.1412
  243loPI   GL2 3878   7.693   7.995  10.501  0.0298  0.0659 -0.2965
  243loPI   C1A 3879   8.034   7.797  10.166 -0.0869 -0.1093  0.1308
  243loPI   C2A 3880   7.928   7.667   9.728 -0.2409 -0.0304 -0.1290
  243loPI   C3A 3881   7.812   7.653   9.340 -0.0077 -0.0047  0.2647
  243loPI   C4A 3882   7.648   7.600   8.858  0.1187  0.0572  0.2658
  243loPI   C5A 3883   7.745   7.438   8.369 -0.0710  0.0600  0.0879
  243loPI   C6A 3884   7.985   7.184   8.171 -0.0529  0.0564  0.1136
  243loPI   C1B 3885   7.559   8.044  10.071 -0.0000 -0.0598 -0.1053
  243loPI   C2B 3886   7.469   7.907   9.666  0.0858  0.2473 -0.1522
  243loPI   C3B 3887   7.364   7.855   9.156  0.0431 -0.0963 -0.1851
  243loPI   C4B 3888   7.254   7.919   8.693  0.1265 -0.2643  0.0053
  244loPI    C1 3889   1.858   0.740  10.791 -0.1679  0.0661  0.1678
  244loPI    C2 3890   2.099   0.550  11.047  0.0675  0.0769 -0.0422
  244loPI    C3 3891   2.000   0.932  11.112  0.1433  0.0861  0.0216
  244loPI   PO4 3892   1.745   0.606  10.692  0.0250  0.2402  0.0929
  244loPI   GL1 3893   1.286   0.706  10.559 -0.1194 -0.2940  0.1475
  244loPI   GL2 3894   1.080   0.854  10.721  0.2744  0.0157  0.0858
  244loPI   C1A 3895   1.309   0.542  10.155  0.1615  0.1099  0.0350
  244loPI   C2A 3896   1.230   0.597   9.702 -0.3238  0.1923 -0.0006
  244loPI   C3A 3897   1.211   0.551   9.201  0.1207 -0.0432 -0.0600
  244loPI   C4A 3898   1.220   0.694   8.739 -0.3861 -0.0288 -0.0630
  244loPI   C5A 3899   0.993   1.067   8.593  0.0172  0.1146 -0.0160
  244loPI   C6A 3900   1.067   1.298   8.209  0.2203 -0.0211 -0.1087
  244loPI   C1B 3901   0.874   0.951  10.317  0.0841 -0.0062 -0.0781
  244loPI   C2B 3902   0.843   0.967   9.820 -0.0226 -0.3281 -0.3622
  244loPI   C3B 3903   0.925   0.897   9.422  0.1580  0.0280 -0.0478
  244loPI   C4B 3904   0.823   0.872   9.038  0.2095  0.0677 -0.5790
  245loPI    C1 3905   4.174  12.549  11.545 -0.1287 -0.1828  0.2395
  245loPI    C2 3906   3.826  12.722  11.639 -0.0215  0.1017  0.1238
  245loPI    C3 3907   4.124  12.715  11.906 -0.0645 -0.0092  0.1696
  245loPI   PO4 3908   4.232  12.616  11.318 -0.0338 -0.1364  0.0252
  245loPI   GL1 3909   4.286  12.611  10.881 -0.1288 -0.2031  0.1320
  245loPI   GL2 3910   4.449  12.279  10.881  0.0181 -0.0102  0.3506
  245loPI   C1A 3911   4.350  12.750  10.475  0.1791 -0.3176  0.0017
  245loPI   C2A 3912   4.172  12.972  10.150  0.0072  0.0859  0.0507
  245loPI   C3A 3913   4.282  12.876   9.722 -0.0026 -0.1892 -0.0045
  245loPI   C4A 3914   4.229  12.925   9.302 -0.2165  0.0860  0.0598
  245loPI   C5A 3915   4.174  13.071   8.861 -0.0626  0.0523 -0.0131
  245loPI   C6A 3916   4.151  13.312   8.436  0.0268  0.2980 -0.0332
  245loPI   C1B 3917   4.475  12.242  10.442 -0.0204 -0.0666  0.2699
  245loPI   C2B 3918   4.513  12.057  10.095  0.3447  0.2641 -0.0768
  245loPI   C3B 3919   4.514  12.017   9.630 -0.0821  0.0639 -0.1386
  245loPI   C4B 3920   4.504  12.146   9.141 -0.0930 -0.0482  0.0523
  246loPI    C1 3921   1.209  15.072  10.985 -0.1188  0.1035 -0.0260
  246loPI    C2 3922   1.315  15.410  11.170 -0.2527 -0.0820  0.4032
  246loPI    C3 3923   1.510  15.070  11.248 -0.2263 -0.1398  0.0984
  246loPI   PO4 3924   1.250  15.214  10.729  0.0647 -0.1293 -0.1224
  246loPI   GL1 3925   1.419  15.219  10.356  0.3326 -0.1753  0.0979
  246loPI   GL2 3926   1.696  15.327  10.436 -0.0198  0.2733 -0.0981
  246loPI   C1A 3927   1.353  15.131   9.959 -0.3132 -0.3380  0.1786
  246loPI   C2A 3928   1.374  15.162   9.508 -0.1086 -0.0439 -0.0468
  246loPI   C3A 3929   1.256  15.249   9.067  0.1914  0.1808  0.0835
  246loPI   C4A 3930   1.217  15.427   8.662  0.1017  0.1519 -0.1567
  246loPI   C5A 3931   1.677  15.336   8.417 -0.3278 -0.2545  0.3037
  246loPI   C6A 3932   2.112  15.613   8.247  0.2928  0.0261  0.1014
  246loPI   C1B 3933   1.766  15.374  10.038  0.2731 -0.0766  0.0888
  246loPI   C2B 3934   1.804  15.382   9.631  0.0611  0.0432 -0.0082
  246loPI   C3B 3935   1.755  15.382   9.206 -0.1465 -0.0723  0.0789
  246loPI   C4B 3936   1.630  15.551   8.894 -0.2561 -0.3553 -0.2336
  247loPI    C1 3937  10.097  15.966  10.283  0.2230  0.1879  0.0104
  247loPI    C2 3938   9.891  15.978  10.627  0.0265  0.1054 -0.1029
  247loPI    C3 3939  10.238  15.779  10.607 -0.1465 -0.2078 -0.0488
  247loPI   PO4 3940   9.926  16.181  10.152  0.1230  0.1351  0.0987
  247loPI   GL1 3941  10.141  16.169   9.734  0.0300  0.0980 -0.3320
  247loPI   GL2 3942  10.459  16.074   9.898  0.0317  0.3537 -0.1080
  247loPI   C1A 3943  10.268  16.085   9.219 -0.0111  0.0861 -0.2050
  247loPI   C2A 3944  10.404  16.083   8.866  0.3353  0.1517  0.0133
  247loPI   C3A 3945  10.217  15.846   8.536 -0.1881  0.1804 -0.0148
  247loPI   C4A 3946  10.130  15.763   8.018  0.2630 -0.1145  0.1922
  247loPI   C5A 3947  10.346  15.414   7.856  0.1445  0.3001 -0.0780
  247loPI   C6A 3948  10.745  15.250   7.940  0.1013 -0.0106  0.2228
  247loPI   C1B 3949  10.613  15.905   9.607  0.0611  0.3492  0.2177
  247loPI   C2B 3950  10.664  15.770   9.143  0.1506  0.1042 -0.0504
  247loPI   C3B 3951  10.636  15.616   8.776 -0.1225  0.1024 -0.0096
  247loPI   C4B 3952  10.535  15.456   8.360 -0.2524 -0.1231  0.0715
  248loPI    C1 3953   6.574   4.624  11.350 -0.0917 -0.1319  0.0854
  248loPI    C2 3954   6.735   4.613  11.716  0.0617  0.0582  0.0257
  248loPI    C3 3955   6.404   4.828  11.649 -0.0282 -0.0633  0.0750
  248loPI   PO4 3956   6.625   4.557  11.166  0.0436  0.1954  0.0992
  248loPI   GL1 3957   6.518   4.529  10.824 -0.2447  0.0392 -0.2029
  248loPI   GL2 3958   6.435   4.772  10.735 -0.0438  0.0147 -0.0367
  248loPI   C1A 3959   6.479   4.389  10.413  0.1372 -0.1278 -0.2327
  248loPI   C2A 3960   6.542   4.508   9.989  0.0591  0.3515  0.0205
  248loPI   C3A 3961   6.552   4.559   9.602 -0.1238  0.0721 -0.1774
  248loPI   C4A 3962   6.567   4.547   9.195  0.1344 -0.3235  0.3999
  248loPI   C5A 3963   6.439   4.692   8.726 -0.2268 -0.0433 -0.2093
  248loPI   C6A 3964   6.240   5.097   8.716  0.0432 -0.0886 -0.0115
  248loPI   C1B 3965   6.285   4.859  10.368 -0.0958  0.4583 -0.1338
  248loPI   C2B 3966   6.198   4.964   9.987 -0.0347  0.1606  0.3925
  248loPI   C3B 3967   6.145   4.967   9.544  0.0794  0.3416  0.1516
  248loPI   C4B 3968   6.110   4.861   9.198 -0.2389  0.0330 -0.1816
  249loPI    C1 3969   9.007   5.962  11.446  0.0956 -0.0482  0.1013
  249loPI    C2 3970   9.193   5.720  11.705  0.0315 -0.0265  0.1680
  249loPI    C3 3971   8.796   5.766  11.724 -0.0108 -0.2479 -0.1167
  249loPI   PO4 3972   9.242   6.004  11.273 -0.1399 -0.0382  0.0502
  249loPI   GL1 3973   9.449   5.903  10.901  0.1657  0.0440 -0.1852
  249loPI   GL2 3974   9.736   6.039  10.819 -0.2148  0.3180  0.0915
  249loPI   C1A 3975   9.326   6.006  10.550 -0.0457  0.1949  0.2509
  249loPI   C2A 3976   9.202   6.110  10.141  0.1258 -0.1829  0.1263
  249loPI   C3A 3977   9.116   6.181   9.702 -0.0845  0.0506 -0.1613
  249loPI   C4A 3978   9.050   6.224   9.243 -0.2860  0.1656 -0.1963
  249loPI   C5A 3979   9.024   5.955   8.905 -0.0549 -0.1374 -0.0109
  249loPI   C6A 3980   9.168   5.700   8.660 -0.4664 -0.0227 -0.2705
  249loPI   C1B 3981   9.711   6.270  10.376 -0.0716 -0.1867  0.3549
  249loPI   C2B 3982   9.681   6.417   9.934 -0.1375  0.0023 -0.0966
  249loPI   C3B 3983   9.507   6.316   9.465 -0.2765  0.0936 -0.0067
  249loPI   C4B 3984   9.579   6.373   8.960  0.1500  0.3326 -0.1079
  250loPI    C1 3985   6.252  15.919  11.108  0.1905 -0.1057  0.0299
  250loPI    C2 3986   5.893  16.060  11.215  0.2286  0.2580 -0.2989
  250loPI    C3 3987   6.166  15.975  11.495 -0.1483 -0.1377 -0.0372
  250loPI   PO4 3988   6.192  15.810  10.885 -0.1325 -0.4399  0.1270
  250loPI   GL1 3989   6.202  15.712  10.527  0.0885 -0.1430  0.0332
  250loPI   GL2 3990   5.918  15.740  10.354  0.0373 -0.1830 -0.1591
  250loPI   C1A 3991   6.325  15.789  10.148 -0.4928  0.2086 -0.0391
  250loPI   C2A 3992   6.442  15.684   9.744 -0.0244 -0.0433  0.1900
  250loPI   C3A 3993   6.387  15.785   9.323  0.4835  0.1633 -0.1688
  250loPI   C4A 3994   6.280  15.760   8.958  0.0492  0.3516 -0.0232
  250loPI   C5A 3995   6.355  15.883   8.555  0.0253  0.2046 -0.1847
  250loPI   C6A 3996   6.681  16.005   8.231 -0.1260  0.0776 -0.1062
  250loPI   C1B 3997   5.956  15.541   9.858 -0.2663  0.1788  0.1587
  250loPI   C2B 3998   5.955  15.599   9.430  0.0770  0.1611 -0.3870
  250loPI   C3B 3999   5.803  15.554   9.043 -0.2412 -0.0451  0.1949
  250loPI   C4B 4000   5.877  15.713   8.661  0.1010  0.2269 -0.2158
  251loPI    C1 4001   9.640   1.444  10.540  0.0151 -0.1701 -0.0105
  251loPI    C2 4002   9.402   1.528  10.850 -0.0586 -0.1205 -0.0801
  251loPI    C3 4003   9.799   1.546  10.892 -0.0701  0.0197 -0.0256
  251loPI   PO4 4004   9.600   1.192  10.463 -0.2919  0.0932 -0.2096
  251loPI   GL1 4005   9.777   1.094  10.073 -0.0195 -0.0683  0.0154
  251loPI   GL2 4006   9.581   0.914   9.895 -0.1721 -0.0353  0.1638
  251loPI   C1A 4007  10.111   0.968   9.765  0.0496 -0.0558 -0.0094
  251loPI   C2A 4008  10.085   1.055   9.308  0.1408 -0.2836  0.0500
  251loPI   C3A 4009  10.100   1.117   8.929 -0.3229  0.1182  0.2929
  251loPI   C4A 4010  10.140   1.075   8.463  0.1154 -0.2331 -0.0478
  251loPI   C5A 4011  10.308   1.179   8.108 -0.1264 -0.0113  0.1696
  251loPI   C6A 4012  10.429   1.271   7.719 -0.1371 -0.5857 -0.0550
  251loPI   C1B 4013   9.659   0.906   9.512  0.1597 -0.1623 -0.1685
  251loPI   C2B 4014   9.555   0.875   9.153  0.0355 -0.1194  0.0574
  251loPI   C3B 4015   9.704   0.906   8.807 -0.1920 -0.2539  0.2813
  251loPI   C4B 4016   9.781   0.652   8.455  0.1259  0.0801 -0.0099
  252loPI    C1 4017  15.538   3.265  11.292 -0.1038  0.1754 -0.1459
  252loPI    C2 4018  15.404   3.102  11.632 -0.0880  0.0323 -0.2073
  252loPI    C3 4019  15.697   3.374  11.643  0.1819 -0.2554 -0.1330
  252loPI   PO4 4020  15.338   3.279  11.155  0.1882  0.0679 -0.0667
  252loPI   GL1 4021  15.239   3.184  10.777 -0.2756 -0.2282 -0.0166
  252loPI   GL2 4022  14.986   3.241  10.673  0.1025  0.1090 -0.0743
  252loPI   C1A 4023  15.454   3.324  10.462 -0.0593 -0.0425 -0.1107
  252loPI   C2A 4024  15.647   3.296  10.129  0.0233  0.2677  0.0995
  252loPI   C3A 4025  15.689   3.318   9.634  0.0772 -0.2891  0.0227
  252loPI   C4A 4026  15.707   3.333   9.218  0.1034  0.2820 -0.2870
  252loPI   C5A 4027  15.664   3.237   8.735  0.0045 -0.1203  0.0059
  252loPI   C6A 4028  15.700   3.425   8.357  0.0406  0.1771 -0.1460
  252loPI   C1B 4029  14.814   3.514  10.367 -0.0822  0.0677  0.2658
  252loPI   C2B 4030  14.802   3.562   9.899 -0.1204  0.0072 -0.0167
  252loPI   C3B 4031  14.899   3.529   9.424 -0.3087  0.0829 -0.1440
  252loPI   C4B 4032  14.719   3.417   9.037 -0.3442 -0.1353  0.2905
  253loPI    C1 4033  15.049  10.429  11.683  0.4957  0.1479  0.2760
  253loPI    C2 4034  15.162  10.802  11.773  0.1505  0.3260 -0.0035
  253loPI    C3 4035  14.894  10.614  12.002  0.0738  0.3762 -0.0519
  253loPI   PO4 4036  14.987  10.399  11.484 -0.2656  0.0266 -0.0113
  253loPI   GL1 4037  14.871  10.442  11.089  0.1286  0.0977  0.0842
  253loPI   GL2 4038  15.014  10.753  10.966 -0.0051 -0.0739  0.2653
  253loPI   C1A 4039  14.936  10.233  10.724 -0.4733 -0.0694  0.4526
  253loPI   C2A 4040  15.087  10.163  10.207 -0.1424  0.1061 -0.1243
  253loPI   C3A 4041  15.089  10.124   9.732 -0.2224 -0.1885 -0.4987
  253loPI   C4A 4042  15.035  10.292   9.324  0.1426  0.0224  0.2483
  253loPI   C5A 4043  14.751  10.382   8.962  0.1962  0.0532  0.0322
  253loPI   C6A 4044  14.628  10.453   8.444 -0.0135 -0.2692  0.1339
  253loPI   C1B 4045  15.141  10.690  10.504  0.1433 -0.3298 -0.3450
  253loPI   C2B 4046  15.121  10.653  10.033 -0.0428  0.0119 -0.0967
  253loPI   C3B 4047  15.091  10.709   9.640 -0.2427  0.2285 -0.1920
  253loPI   C4B 4048  15.066  10.764   9.168 -0.0601  0.0873  0.1378
  254loPI    C1 4049  16.775   3.241  11.547  0.0707  0.0448 -0.0521
  254loPI    C2 4050  16.614   3.003  11.825 -0.0999  0.1874 -0.0273
  254loPI    C3 4051  16.960   3.190  11.898  0.0545 -0.0803 -0.0613
  254loPI   PO4 4052  16.636   3.161  11.366  0.1249  0.1442  0.0015
  254loPI   GL1 4053  16.637   3.126  10.913  0.2258  0.0207  0.0691
  254loPI   GL2 4054  16.863   2.956  10.867 -0.1531 -0.2934  0.0762
  254loPI   C1A 4055  16.481   3.114  10.435  0.1491 -0.0530 -0.2164
  254loPI   C2A 4056  16.630   3.092   9.941  0.2672 -0.1841  0.1447
  254loPI   C3A 4057  16.687   3.207   9.461  0.0367 -0.1261  0.3963
  254loPI   C4A 4058  16.615   3.083   9.043 -0.1006  0.0616 -0.1140
  254loPI   C5A 4059  16.298   3.117   8.688 -0.4113  0.3163 -0.0831
  254loPI   C6A 4060  15.958   2.964   8.398 -0.0615 -0.0716 -0.1587
  254loPI   C1B 4061  17.027   3.190  10.511 -0.0125 -0.0689  0.2213
  254loPI   C2B 4062  17.047   3.340  10.045  0.1842  0.2439  0.0125
  254loPI   C3B 4063  17.149   3.340   9.586  0.0744 -0.1945 -0.5035
  254loPI   C4B 4064  17.175   3.362   9.151 -0.1613  0.2508  0.0430
  255loPI    C1 4065   3.227   2.480  11.695 -0.3715  0.2510 -0.2436
  255loPI    C2 4066   3.254   2.846  11.856  0.1443  0.1327 -0.0438
  255loPI    C3 4067   3.327   2.522  12.080 -0.1957 -0.0918 -0.2483
  255loPI   PO4 4068   3.353   2.479  11.500 -0.2469 -0.0896 -0.0396
  255loPI   GL1 4069   3.353   2.634  11.072  0.3061 -0.3586 -0.0243
  255loPI   GL2 4070   3.234   3.073  10.950 -0.0368  0.0352  0.0117
  255loPI   C1A 4071   3.141   2.628  10.659 -0.0800 -0.0782 -0.3149
  255loPI   C2A 4072   3.085   2.679  10.216 -0.1494 -0.0203  0.0311
  255loPI   C3A 4073   3.120   2.731   9.791  0.0957  0.0861 -0.0178
  255loPI   C4A 4074   3.027   2.803   9.317  0.1402 -0.0783 -0.0775
  255loPI   C5A 4075   3.173   2.714   8.851 -0.3087  0.0439  0.2075
  255loPI   C6A 4076   2.853   2.813   8.638  0.1746 -0.0226  0.0630
  255loPI   C1B 4077   3.158   3.119  10.462  0.0214 -0.2721  0.0189
  255loPI   C2B 4078   3.212   3.134  10.080 -0.1292  0.2227  0.0279
  255loPI   C3B 4079   3.126   3.259   9.684 -0.1864  0.1302 -0.3256
  255loPI   C4B 4080   3.052   3.296   9.210  0.0326 -0.2887 -0.0567
  256loPI    C1 4081  15.964  10.132  11.762  0.1981  0.1501  0.0345
  256loPI    C2 4082  16.222   9.841  11.854 -0.3235 -0.2417  0.3071
  256loPI    C3 4083  16.108  10.103  12.134  0.0201  0.1367  0.1032
  256loPI   PO4 4084  16.143  10.207  11.451  0.0384  0.2381 -0.0910
  256loPI   GL1 4085  16.340  10.138  11.076 -0.0932 -0.0986  0.0226
  256loPI   GL2 4086  16.294   9.750  10.936 -0.2205 -0.0599 -0.0169
  256loPI   C1A 4087  16.482  10.198  10.763 -0.1585  0.0400 -0.1002
  256loPI   C2A 4088  16.468  10.164  10.307 -0.1015 -0.0230  0.0289
  256loPI   C3A 4089  16.419  10.269   9.951 -0.2091 -0.1983  0.2587
  256loPI   C4A 4090  16.407  10.363   9.465  0.3738 -0.5470  0.0026
  256loPI   C5A 4091  16.458  10.220   9.097 -0.2430 -0.0415 -0.1695
  256loPI   C6A 4092  16.451  10.248   8.621  0.1836 -0.0359 -0.0395
  256loPI   C1B 4093  16.403   9.725  10.468  0.0589  0.0440 -0.0251
  256loPI   C2B 4094  16.354   9.749  10.006 -0.0580  0.0836 -0.0664
  256loPI   C3B 4095  16.424   9.726   9.608 -0.0291 -0.4174 -0.2003
  256loPI   C4B 4096  16.413   9.725   9.163  0.0957  0.1489 -0.2316
  257loPI    C1 4097   9.710   5.052  11.463 -0.1098  0.0268 -0.0235
  257loPI    C2 4098   9.653   5.358  11.714  0.0686  0.0802 -0.0464
  257loPI    C3 4099   9.346   5.122  11.613 -0.0467  0.1839  0.0583
  257loPI   PO4 4100   9.852   5.108  11.271  0.0630  0.3681 -0.0125
  257loPI   GL1 4101   9.928   5.062  10.897  0.2723 -0.0611 -0.2191
  257loPI   GL2 4102   9.699   5.130  10.730  0.2250  0.0676 -0.0681
  257loPI   C1A 4103  10.039   4.979  10.389  0.0655 -0.0059 -0.1008
  257loPI   C2A 4104   9.978   4.950   9.950  0.2300  0.1536 -0.0985
  257loPI   C3A 4105   9.968   5.073   9.556  0.0120  0.2412  0.2894
  257loPI   C4A 4106   9.878   5.018   9.174  0.3717 -0.0965 -0.1772
  257loPI   C5A 4107   9.671   4.771   8.881 -0.0934 -0.2304  0.0436
  257loPI   C6A 4108   9.690   4.642   8.401  0.1010  0.2059 -0.0968
  257loPI   C1B 4109   9.531   5.216  10.272  0.1303  0.1659 -0.2501
  257loPI   C2B 4110   9.625   5.358   9.895 -0.2833 -0.1826 -0.0527
  257loPI   C3B 4111   9.549   5.414   9.459  0.1435  0.1140  0.0856
  257loPI   C4B 4112   9.432   5.325   8.992  0.0088  0.2268  0.0187
  258loPI    C1 4113  14.921   2.252  11.278 -0.1528  0.0728 -0.0648
  258loPI    C2 4114  14.607   2.006  11.240 -0.1538  0.0803 -0.1047
  258loPI    C3 4115  14.870   1.951  11.537 -0.1738  0.0528 -0.0922
  258loPI   PO4 4116  14.937   2.335  11.004  0.2222 -0.1510 -0.2146
  258loPI   GL1 4117  15.225   2.541  10.684 -0.1399 -0.1798  0.0523
  258loPI   GL2 4118  15.176   2.748  10.485  0.1352  0.0860 -0.0151
  258loPI   C1A 4119  15.381   2.332  10.236 -0.3878  0.0191 -0.1071
  258loPI   C2A 4120  15.302   2.332   9.861  0.0889  0.2735 -0.0017
  258loPI   C3A 4121  15.435   2.182   9.525 -0.0302  0.1657  0.0568
  258loPI   C4A 4122  15.596   2.231   9.061 -0.1250  0.1187 -0.2391
  258loPI   C5A 4123  15.582   2.131   8.584  0.0102 -0.3492 -0.0394
  258loPI   C6A 4124  15.361   2.407   8.246 -0.3334  0.1265 -0.2089
  258loPI   C1B 4125  15.450   2.857  10.223 -0.2071  0.1976 -0.0832
  258loPI   C2B 4126  15.598   2.801   9.833 -0.0529  0.2108  0.0315
  258loPI   C3B 4127  15.649   2.823   9.470 -0.0182 -0.0329 -0.2856
  258loPI   C4B 4128  15.455   2.659   9.141 -0.0368  0.0866  0.2437
  259loPI    C1 4129   3.034  14.433  11.445 -0.1849  0.0036  0.1313
  259loPI    C2 4130   3.164  14.139  11.683 -0.0759 -0.0802 -0.0303
  259loPI    C3 4131   2.776  14.165  11.590 -0.0958 -0.1343  0.0368
  259loPI   PO4 4132   3.208  14.429  11.275 -0.0795  0.0064 -0.1380
  259loPI   GL1 4133   3.380  14.311  10.899  0.1546 -0.2116 -0.2330
  259loPI   GL2 4134   3.392  14.616  10.832 -0.0648  0.0701 -0.0043
  259loPI   C1A 4135   3.394  14.075  10.549  0.3531 -0.1192  0.0458
  259loPI   C2A 4136   3.385  14.028  10.138  0.3664 -0.2178 -0.0732
  259loPI   C3A 4137   3.430  14.041   9.669  0.0074  0.1093 -0.0696
  259loPI   C4A 4138   3.473  14.205   9.310 -0.0899  0.1469 -0.3187
  259loPI   C5A 4139   3.468  14.226   8.829 -0.1644  0.0574 -0.5482
  259loPI   C6A 4140   3.607  14.209   8.451  0.0232 -0.0626 -0.0663
  259loPI   C1B 4141   3.500  14.616  10.459  0.0541 -0.0495 -0.2173
  259loPI   C2B 4142   3.521  14.532  10.095  0.0553  0.0513  0.0842
  259loPI   C3B 4143   3.565  14.594   9.693 -0.1358  0.0400  0.2247
  259loPI   C4B 4144   3.493  14.701   9.237 -0.0545  0.3216 -0.3110
  260loPI    C1 4145   0.123   9.038  11.568  0.0167  0.0970  0.1532
  260loPI    C2 4146   0.061   9.144  11.949  0.0884  0.2747  0.1166
  260loPI    C3 4147   0.428   9.041  11.827  0.0683  0.2319  0.0919
  260loPI   PO4 4148  -0.081   9.245  11.419  0.1015 -0.1632  0.1717
  260loPI   GL1 4149  -0.253   9.334  10.979  0.0376  0.0169 -0.1923
  260loPI   GL2 4150  -0.454   9.559  10.911  0.2609 -0.1541 -0.1879
  260loPI   C1A 4151  -0.464   9.038  10.632  0.2675  0.2271 -0.3307
  260loPI   C2A 4152  -0.391   9.094  10.096  0.0187 -0.0422  0.0691
  260loPI   C3A 4153  -0.433   9.057   9.660  0.1049 -0.0401  0.0403
  260loPI   C4A 4154  -0.515   9.086   9.317  0.1327  0.0818  0.1470
  260loPI   C5A 4155  -0.682   8.941   8.963  0.1985 -0.3449 -0.1031
  260loPI   C6A 4156  -0.957   8.664   8.813  0.1446 -0.3260 -0.1004
  260loPI   C1B 4157  -0.423   9.601  10.429 -0.0931  0.1667  0.2371
  260loPI   C2B 4158  -0.320   9.626  10.023  0.3277  0.0274 -0.0992
  260loPI   C3B 4159  -0.397   9.603   9.542  0.0375  0.1850 -0.3295
  260loPI   C4B 4160  -0.303   9.575   9.001 -0.0184  0.3635  0.0680
  261loPI    C1 4161   7.771   7.508  11.119  0.1657  0.1174  0.2401
  261loPI    C2 4162   7.737   7.242  11.416 -0.1225 -0.0214  0.0876
  261loPI    C3 4163   7.927   7.141  11.079 -0.1385  0.0029  0.0714
  261loPI   PO4 4164   7.517   7.606  11.064  0.0555 -0.0597  0.0460
  261loPI   GL1 4165   7.370   7.462  10.697 -0.1471 -0.3591  0.1786
  261loPI   GL2 4166   7.541   7.257  10.626 -0.0155  0.1895 -0.0850
  261loPI   C1A 4167   7.522   7.592  10.266  0.0120 -0.3281 -0.4591
  261loPI   C2A 4168   7.545   7.421   9.888  0.2175  0.2233 -0.1782
  261loPI   C3A 4169   7.330   7.397   9.402 -0.1283 -0.1163 -0.2732
  261loPI   C4A 4170   7.292   7.278   8.976 -0.4018 -0.1654 -0.1214
  261loPI   C5A 4171   7.247   7.412   8.563 -0.1097 -0.0511 -0.0916
  261loPI   C6A 4172   7.224   7.646   8.239 -0.1140 -0.0575 -0.1749
  261loPI   C1B 4173   7.504   7.069  10.241 -0.1458  0.1875 -0.0931
  261loPI   C2B 4174   7.465   6.916   9.779  0.0034 -0.0794  0.2155
  261loPI   C3B 4175   7.307   6.888   9.403 -0.2056 -0.2828  0.2514
  261loPI   C4B 4176   7.255   6.711   8.954  0.0775 -0.3578  0.0871
  262loPI    C1 4177  11.005   3.454  11.117  0.1772 -0.1560 -0.0724
  262loPI    C2 4178  10.729   3.551  11.390  0.0488 -0.1674 -0.1968
  262loPI    C3 4179  11.114   3.636  11.456 -0.0231  0.1463 -0.1660
  262loPI   PO4 4180  10.873   3.532  10.875  0.1866  0.0576  0.0751
  262loPI   GL1 4181  11.130   3.853  10.609 -0.3429  0.0919  0.2199
  262loPI   GL2 4182  11.048   4.060  10.455 -0.0326  0.0011 -0.1619
  262loPI   C1A 4183  11.290   3.596  10.198 -0.1301 -0.2096  0.4177
  262loPI   C2A 4184  11.261   3.645   9.764 -0.2706  0.1827 -0.0527
  262loPI   C3A 4185  11.066   3.508   9.394  0.2673  0.0008 -0.0259
  262loPI   C4A 4186  10.966   3.553   8.956 -0.0121 -0.1406 -0.0198
  262loPI   C5A 4187  10.835   3.584   8.589 -0.4024 -0.3201  0.3229
  262loPI   C6A 4188  10.505   3.802   8.449  0.0853 -0.2849 -0.0892
  262loPI   C1B 4189  11.112   4.050  10.051  0.0358  0.2083  0.0157
  262loPI   C2B 4190  11.193   4.119   9.572 -0.0293  0.1387  0.0992
  262loPI   C3B 4191  11.158   4.012   9.180 -0.0804  0.0713  0.1152
  262loPI   C4B 4192  10.888   4.025   8.762 -0.0015 -0.0318  0.0220
  263loPI    C1 4193   5.481   5.937  11.509 -0.0212  0.1046  0.1034
  263loPI    C2 4194   5.873   5.958  11.584  0.0563 -0.1754 -0.2002
  263loPI    C3 4195   5.667   5.631  11.687 -0.0633 -0.0991 -0.1954
  263loPI   PO4 4196   5.465   5.961  11.248 -0.0507  0.0117  0.4440
  263loPI   GL1 4197   5.238   5.929  10.848  0.1439 -0.3979  0.0387
  263loPI   GL2 4198   5.499   5.693  10.782 -0.0340 -0.2436 -0.1412
  263loPI   C1A 4199   5.150   6.275  10.787 -0.3269 -0.0196  0.1879
  263loPI   C2A 4200   5.073   6.406  10.447  0.2084 -0.2717  0.0646
  263loPI   C3A 4201   4.961   6.429  10.018  0.1561 -0.0323  0.3749
  263loPI   C4A 4202   4.982   6.529   9.601  0.4093 -0.2903  0.1852
  263loPI   C5A 4203   4.950   6.452   9.165  0.0389  0.0459 -0.1616
  263loPI   C6A 4204   5.103   6.324   8.718  0.0594 -0.3608  0.1158
  263loPI   C1B 4205   5.269   5.669  10.380 -0.2596  0.1419 -0.0140
  263loPI   C2B 4206   5.300   5.664   9.933  0.2069  0.0288 -0.2339
  263loPI   C3B 4207   5.282   5.658   9.488 -0.1374  0.0530 -0.1129
  263loPI   C4B 4208   5.317   5.576   9.056 -0.1957  0.2047  0.0160
  264loPI    C1 4209  12.813   9.992  11.562 -0.1039 -0.2606  0.1313
  264loPI    C2 4210  12.488  10.052  11.788 -0.0708  0.1612  0.0749
  264loPI    C3 4211  12.852  10.117  11.940 -0.0240 -0.0420  0.0524
  264loPI   PO4 4212  12.751  10.085  11.325 -0.1400  0.0568  0.2931
  264loPI   GL1 4213  12.470  10.144  11.010  0.1124  0.1672 -0.0843
  264loPI   GL2 4214  12.769  10.407  10.889 -0.1373 -0.1313 -0.1544
  264loPI   C1A 4215  12.323  10.076  10.597  0.1129 -0.1407  0.3235
  264loPI   C2A 4216  12.414  10.039  10.220  0.0668 -0.0936 -0.0330
  264loPI   C3A 4217  12.214   9.938   9.777 -0.0817  0.2261 -0.3943
  264loPI   C4A 4218  12.222   9.894   9.324  0.1196  0.2257  0.0196
  264loPI   C5A 4219  12.200   9.858   8.884  0.0325 -0.1333 -0.2993
  264loPI   C6A 4220  11.938   9.775   8.570  0.0169 -0.2806 -0.1916
  264loPI   C1B 4221  12.865  10.322  10.539  0.3327 -0.2051 -0.3082
  264loPI   C2B 4222  12.874  10.276  10.125 -0.0541 -0.4210  0.1193
  264loPI   C3B 4223  12.687  10.190   9.747  0.2137 -0.1968 -0.1232
  264loPI   C4B 4224  12.697  10.210   9.261 -0.2670  0.3401 -0.0773
  265loPI    C1 4225   8.388   4.338  10.910 -0.0504 -0.0992 -0.1654
  265loPI    C2 4226   8.015   4.205  10.854 -0.0810 -0.0572 -0.0630
  265loPI    C3 4227   8.227   4.081  11.170 -0.0720  0.0547 -0.0245
  265loPI   PO4 4228   8.579   4.322  10.704  0.0866  0.0273 -0.0129
  265loPI   GL1 4229   8.699   4.288  10.279 -0.1564 -0.2677 -0.1575
  265loPI   GL2 4230   8.478   4.614  10.149  0.0070  0.0159  0.2273
  265loPI   C1A 4231   8.623   4.060   9.928  0.0790 -0.1501  0.0934
  265loPI   C2A 4232   8.665   4.099   9.551 -0.0285  0.2045 -0.0280
  265loPI   C3A 4233   8.734   4.043   9.138 -0.5946 -0.0394 -0.0392
  265loPI   C4A 4234   8.719   4.006   8.677  0.1346  0.1125  0.0600
  265loPI   C5A 4235   8.536   3.878   8.323  0.1900 -0.0778 -0.0940
  265loPI   C6A 4236   8.131   3.966   8.127 -0.0379  0.1788  0.2292
  265loPI   C1B 4237   8.430   4.501   9.684  0.2121  0.2495  0.3200
  265loPI   C2B 4238   8.280   4.357   9.299 -0.1610 -0.0684  0.2356
  265loPI   C3B 4239   8.319   4.264   8.874  0.0381 -0.0062  0.0952
  265loPI   C4B 4240   8.236   4.268   8.516  0.1427  0.2197 -0.0275
  266loPI    C1 4241  14.269  11.872  11.564 -0.1594  0.1476 -0.0774
  266loPI    C2 4242  14.182  12.012  11.929  0.1416  0.1309  0.0029
  266loPI    C3 4243  14.202  11.618  11.865 -0.2154  0.1273 -0.1068
  266loPI   PO4 4244  14.060  11.917  11.397 -0.2716  0.3055 -0.0758
  266loPI   GL1 4245  14.061  12.054  10.951 -0.0758 -0.0466  0.3283
  266loPI   GL2 4246  14.280  11.849  10.955  0.2980  0.0716 -0.0491
  266loPI   C1A 4247  13.989  12.306  10.597 -0.0757  0.0523 -0.0251
  266loPI   C2A 4248  13.998  12.337  10.197 -0.0910  0.0037  0.1278
  266loPI   C3A 4249  14.071  12.208   9.780  0.2358 -0.1390 -0.0065
  266loPI   C4A 4250  13.969  12.184   9.369 -0.0452  0.0972 -0.1753
  266loPI   C5A 4251  13.823  12.200   8.911 -0.0683 -0.2476 -0.2976
  266loPI   C6A 4252  13.690  11.874   8.597  0.0761  0.1532  0.2812
  266loPI   C1B 4253  14.356  11.960  10.491  0.0337  0.1333  0.1067
  266loPI   C2B 4254  14.423  11.923  10.089 -0.0195 -0.1277 -0.1881
  266loPI   C3B 4255  14.391  11.866   9.574  0.1627  0.1858  0.1106
  266loPI   C4B 4256  14.316  11.826   9.160  0.0367  0.3279  0.0960
  267loPI    C1 4257   2.259   0.103  11.220 -0.1318 -0.0176 -0.0024
  267loPI    C2 4258   2.253  -0.062  11.584 -0.1450  0.1008  0.0517
  267loPI    C3 4259   1.952   0.174  11.466  0.0298  0.3523  0.1005
  267loPI   PO4 4260   2.265  -0.141  10.980  0.2279  0.1465 -0.1540
  267loPI   GL1 4261   2.530  -0.401  10.753 -0.2407 -0.1279 -0.1522
  267loPI   GL2 4262   2.580  -0.110  10.571  0.3268 -0.0044 -0.0901
  267loPI   C1A 4263   2.475  -0.567  10.338  0.0415  0.0423 -0.2807
  267loPI   C2A 4264   2.583  -0.639   9.938  0.0093 -0.1170  0.1288
  267loPI   C3A 4265   2.687  -0.562   9.565  0.0790 -0.0309 -0.0698
  267loPI   C4A 4266   2.698  -0.320   9.162  0.2038  0.2179 -0.0835
  267loPI   C5A 4267   2.463  -0.411   8.769 -0.2874  0.2619 -0.0096
  267loPI   C6A 4268   2.191  -0.257   8.481  0.0995 -0.3880  0.0185
  267loPI   C1B 4269   2.662   0.085  10.179  0.0430 -0.0400  0.2595
  267loPI   C2B 4270   2.691   0.239   9.733  0.1224 -0.2882 -0.0293
  267loPI   C3B 4271   2.644   0.219   9.360  0.0685 -0.0508 -0.0406
  267loPI   C4B 4272   2.719   0.124   9.006  0.0872 -0.2020 -0.3265
  268loPI    C1 4273   0.371  13.403  11.248 -0.1433 -0.1995  0.2148
  268loPI    C2 4274   0.681  13.609  11.395 -0.1802  0.1193 -0.1389
  268loPI    C3 4275   0.341  13.584  11.604 -0.0231  0.0320  0.1099
  268loPI   PO4 4276   0.450  13.571  10.902  0.1618  0.2280 -0.1214
  268loPI   GL1 4277   0.677  13.404  10.566 -0.0803 -0.2961 -0.0172
  268loPI   GL2 4278   0.619  13.080  10.581  0.1072  0.0300  0.1286
  268loPI   C1A 4279   0.664  13.340  10.118 -0.1421  0.1059  0.1885
  268loPI   C2A 4280   0.642  13.356   9.702 -0.2407 -0.1920 -0.3842
  268loPI   C3A 4281   0.616  13.467   9.243 -0.0636  0.1627  0.2087
  268loPI   C4A 4282   0.673  13.472   8.731  0.3242 -0.1873 -0.1254
  268loPI   C5A 4283   0.961  13.223   8.470  0.0917 -0.1041 -0.2026
  268loPI   C6A 4284   1.325  13.163   8.294  0.0531 -0.2993  0.1808
  268loPI   C1B 4285   0.539  12.818  10.274 -0.0499  0.1506 -0.1205
  268loPI   C2B 4286   0.548  12.798   9.773  0.0173  0.1480  0.0768
  268loPI   C3B 4287   0.558  12.854   9.332  0.0486  0.0588 -0.0205
  268loPI   C4B 4288   0.451  12.903   8.914  0.0446 -0.3384 -0.2708
  269loPI    C1 4289  14.509   9.507  11.737 -0.2587  0.0651 -0.0035
  269loPI    C2 4290  14.800   9.630  11.983 -0.0767 -0.1912 -0.0864
  269loPI    C3 4291  14.493   9.419  12.127 -0.2734  0.1578  0.0170
  269loPI   PO4 4292  14.769   9.514  11.454 -0.0830  0.1336 -0.0708
  269loPI   GL1 4293  14.903   9.443  11.076  0.1372  0.1121 -0.2139
  269loPI   GL2 4294  14.735   9.295  10.951 -0.2537 -0.0476 -0.2391
  269loPI   C1A 4295  14.896   9.702  10.706 -0.0197  0.2231 -0.2757
  269loPI   C2A 4296  15.033   9.682  10.288 -0.0948 -0.2656 -0.0329
  269loPI   C3A 4297  14.897   9.663   9.844 -0.1932 -0.1283 -0.3563
  269loPI   C4A 4298  15.054   9.626   9.505 -0.0993  0.0020  0.1397
  269loPI   C5A 4299  15.040   9.825   9.090  0.0141 -0.1589  0.2323
  269loPI   C6A 4300  15.357  10.050   8.777  0.3116 -0.2949 -0.0512
  269loPI   C1B 4301  14.514   9.081  10.705  0.3285  0.2819 -0.1170
  269loPI   C2B 4302  14.436   8.946  10.232 -0.0046  0.1348  0.0415
  269loPI   C3B 4303  14.372   8.984   9.838 -0.3017 -0.1854  0.0209
  269loPI   C4B 4304  14.434   9.010   9.418 -0.3367  0.1640 -0.0081
  270loPI    C1 4305   7.697  14.698  10.096 -0.3280  0.3759 -0.0470
  270loPI    C2 4306   7.834  14.919  10.400 -0.0887  0.1515  0.0116
  270loPI    C3 4307   7.520  14.677  10.454  0.0226  0.0284  0.1129
  270loPI   PO4 4308   7.995  14.600  10.041 -0.0158  0.0036  0.0962
  270loPI   GL1 4309   8.243  14.624   9.801 -0.0950  0.1998  0.2749
  270loPI   GL2 4310   8.529  14.783   9.897  0.1195 -0.2931 -0.3068
  270loPI   C1A 4311   8.201  14.575   9.386  0.1806  0.0458 -0.1160
  270loPI   C2A 4312   8.123  14.547   9.012  0.0416 -0.0767 -0.3131
  270loPI   C3A 4313   8.024  14.547   8.616 -0.1333  0.1248 -0.2981
  270loPI   C4A 4314   7.926  14.643   8.296  0.0900  0.1331 -0.1605
  270loPI   C5A 4315   7.692  14.616   7.915  0.0181  0.0701 -0.1206
  270loPI   C6A 4316   7.685  14.552   7.379 -0.2663 -0.0794 -0.3328
  270loPI   C1B 4317   8.732  14.780   9.419 -0.1082 -0.0440  0.2566
  270loPI   C2B 4318   8.610  14.784   9.016  0.0827 -0.2714 -0.0276
  270loPI   C3B 4319   8.516  14.707   8.622  0.1523  0.2547  0.2536
  270loPI   C4B 4320   8.625  14.634   8.175  0.1428  0.0926 -0.1830
  271loPI    C1 4321   2.187   7.060  11.547 -0.0617 -0.1474  0.1036
  271loPI    C2 4322   1.809   7.067  11.417 -0.0465  0.0690  0.0684
  271loPI    C3 4323   1.916   7.288  11.734  0.1295  0.2981 -0.1464
  271loPI   PO4 4324   2.374   7.150  11.330  0.1493 -0.0500  0.1727
  271loPI   GL1 4325   2.475   7.088  10.983  0.1646  0.2144 -0.1213
  271loPI   GL2 4326   2.467   7.418  10.947 -0.1978 -0.1895 -0.0465
  271loPI   C1A 4327   2.408   6.833  10.733  0.3731  0.3437 -0.0464
  271loPI   C2A 4328   2.366   6.823  10.351  0.0666 -0.0106 -0.0356
  271loPI   C3A 4329   2.269   6.770   9.915  0.0777 -0.2253  0.0012
  271loPI   C4A 4330   2.359   6.996   9.691  0.0738  0.0385  0.0562
  271loPI   C5A 4331   2.197   7.002   9.208  0.1329  0.0109  0.3764
  271loPI   C6A 4332   1.973   7.286   8.983  0.1974 -0.1016 -0.2072
  271loPI   C1B 4333   2.574   7.319  10.498  0.0488  0.0584 -0.0281
  271loPI   C2B 4334   2.516   7.315  10.020  0.0406  0.1733 -0.0026
  271loPI   C3B 4335   2.517   7.481   9.713 -0.1288  0.1951  0.0648
  271loPI   C4B 4336   2.406   7.411   9.312 -0.0340 -0.2887 -0.0948
  272loPI    C1 4337   5.171  15.028  10.997 -0.1906 -0.0563 -0.0211
  272loPI    C2 4338   5.123  15.116  11.384  0.1472 -0.3340  0.0894
  272loPI    C3 4339   5.415  15.291  11.174 -0.0018 -0.2240 -0.0283
  272loPI   PO4 4340   4.884  14.979  10.914 -0.3022  0.1498  0.0607
  272loPI   GL1 4341   4.582  15.228  10.663  0.3465 -0.2823  0.1792
  272loPI   GL2 4342   4.318  15.474  10.563  0.0354 -0.2266  0.0428
  272loPI   C1A 4343   4.393  15.034  10.239 -0.3155  0.0505  0.2464
  272loPI   C2A 4344   4.401  15.076   9.785  0.1214  0.0297 -0.1938
  272loPI   C3A 4345   4.426  15.056   9.325  0.3192 -0.0213 -0.1162
  272loPI   C4A 4346   4.311  15.092   8.899  0.1685 -0.0825 -0.1763
  272loPI   C5A 4347   4.407  15.315   8.476 -0.0521 -0.2082 -0.0471
  272loPI   C6A 4348   4.451  15.703   8.363  0.0844 -0.2099  0.1557
  272loPI   C1B 4349   4.515  15.575  10.229 -0.1798  0.2787  0.2720
  272loPI   C2B 4350   4.572  15.590   9.778  0.0228 -0.0157  0.4113
  272loPI   C3B 4351   4.486  15.572   9.326  0.1568 -0.1368 -0.4649
  272loPI   C4B 4352   4.573  15.629   8.921  0.1459  0.1009 -0.0309
  273loPI    C1 4353   9.605   2.042  10.664 -0.0405 -0.0302 -0.2196
  273loPI    C2 4354   9.362   2.322  10.816 -0.1471 -0.1877 -0.0969
  273loPI    C3 4355   9.479   2.014  11.043  0.3564  0.0059 -0.0795
  273loPI   PO4 4356   9.514   1.946  10.505 -0.1200  0.0922  0.0192
  273loPI   GL1 4357   9.246   2.204  10.232 -0.2103 -0.1480  0.1840
  273loPI   GL2 4358   9.027   2.010  10.150 -0.1140 -0.2671 -0.0522
  273loPI   C1A 4359   9.432   2.296   9.860  0.2473  0.1247 -0.0398
  273loPI   C2A 4360   9.411   2.382   9.450  0.1511  0.2214 -0.3179
  273loPI   C3A 4361   9.368   2.332   8.981  0.0350 -0.0523 -0.2022
  273loPI   C4A 4362   9.400   2.395   8.681 -0.1870 -0.1246 -0.1404
  273loPI   C5A 4363   9.309   2.328   8.373  0.1905 -0.2106 -0.0194
  273loPI   C6A 4364   9.269   2.035   8.042  0.0202 -0.0246 -0.1682
  273loPI   C1B 4365   8.952   2.117   9.702  0.0631  0.1199 -0.0358
  273loPI   C2B 4366   8.910   2.219   9.240 -0.0509 -0.2046 -0.0826
  273loPI   C3B 4367   8.947   2.174   8.771 -0.0814 -0.2670 -0.3485
  273loPI   C4B 4368   8.792   2.151   8.325 -0.2052  0.2306 -0.2948
  274loPI    C1 4369   0.983  12.000  11.048 -0.1167 -0.2675  0.0112
  274loPI    C2 4370   1.333  11.817  10.984 -0.0588 -0.1846  0.0885
  274loPI    C3 4371   1.000  11.600  11.033  0.0667 -0.2857  0.5318
  274loPI   PO4 4372   0.872  12.098  10.810 -0.1222 -0.2609 -0.2936
  274loPI   GL1 4373   1.139  12.123  10.560 -0.0412 -0.1016 -0.0428
  274loPI   GL2 4374   1.311  11.875  10.481 -0.1054 -0.3057 -0.2533
  274loPI   C1A 4375   0.960  12.115  10.118  0.0685 -0.3471 -0.0587
  274loPI   C2A 4376   0.873  12.050   9.806  0.0357  0.0048  0.1654
  274loPI   C3A 4377   0.982  12.134   9.363  0.1379  0.0009 -0.0141
  274loPI   C4A 4378   0.877  11.982   8.978  0.4641 -0.0864 -0.2793
  274loPI   C5A 4379   0.811  11.939   8.448 -0.0213  0.1372  0.2836
  274loPI   C6A 4380   0.420  11.849   8.258  0.1102  0.1406 -0.1521
  274loPI   C1B 4381   1.285  11.801   9.991 -0.0174  0.2687  0.0159
  274loPI   C2B 4382   1.257  11.743   9.642  0.1256 -0.1472 -0.2126
  274loPI   C3B 4383   1.240  11.727   9.196 -0.0986  0.0830 -0.0390
  274loPI   C4B 4384   1.178  11.635   8.773 -0.2047 -0.0934  0.2172
  275loPI    C1 4385   1.658   4.321  11.632 -0.0619  0.0688  0.1548
  275loPI    C2 4386   1.400   4.015  11.641  0.0286 -0.0155 -0.0570
  275loPI    C3 4387   1.748   3.990  11.837 -0.1100  0.0881  0.2075
  275loPI   PO4 4388   1.709   4.415  11.332  0.2889 -0.0471 -0.1926
  275loPI   GL1 4389   1.480   4.524  10.976 -0.1006 -0.6521 -0.2180
  275loPI   GL2 4390   1.252   4.851  10.977  0.0439  0.1093 -0.2286
  275loPI   C1A 4391   1.571   4.584  10.580  0.0402  0.0272 -0.3521
  275loPI   C2A 4392   1.521   4.593  10.176 -0.1070  0.0323 -0.1934
  275loPI   C3A 4393   1.539   4.493   9.771  0.2675 -0.2524  0.1027
  275loPI   C4A 4394   1.501   4.653   9.411 -0.0091 -0.2344 -0.0363
  275loPI   C5A 4395   1.563   4.633   8.908 -0.0054  0.3525 -0.0846
  275loPI   C6A 4396   1.860   4.451   8.679 -0.0520  0.0827 -0.2334
  275loPI   C1B 4397   1.153   4.902  10.550  0.3694 -0.1082  0.2353
  275loPI   C2B 4398   1.146   4.916  10.096  0.0925 -0.0723 -0.2723
  275loPI   C3B 4399   1.077   4.859   9.694  0.0072  0.2781 -0.2558
  275loPI   C4B 4400   1.082   4.896   9.242  0.0191  0.1289 -0.1157
  276loPI    C1 4401   5.906   9.154  11.533  0.0264  0.1810 -0.0168
  276loPI    C2 4402   6.141   8.934  11.771 -0.1370  0.0583  0.0327
  276loPI    C3 4403   5.845   9.152  11.928 -0.0780  0.1869 -0.0329
  276loPI   PO4 4404   5.835   9.046  11.328 -0.2321 -0.2202 -0.1799
  276loPI   GL1 4405   5.734   9.183  10.903  0.2197 -0.0334 -0.0000
  276loPI   GL2 4406   5.522   9.433  10.867 -0.0526  0.0752 -0.2590
  276loPI   C1A 4407   5.548   9.007  10.487  0.0232  0.2281  0.0070
  276loPI   C2A 4408   5.510   8.993  10.036  0.1107  0.2860 -0.2875
  276loPI   C3A 4409   5.496   9.044   9.552  0.1221 -0.0548 -0.0155
  276loPI   C4A 4410   5.407   9.001   9.117 -0.0879 -0.2449 -0.2056
  276loPI   C5A 4411   5.137   9.138   8.769 -0.3189  0.0596  0.3156
  276loPI   C6A 4412   4.925   8.933   8.386 -0.0746 -0.0835  0.1075
  276loPI   C1B 4413   5.183   9.399  10.637  0.0477 -0.0523 -0.3220
  276loPI   C2B 4414   5.165   9.343  10.203  0.2357  0.3402  0.0300
  276loPI   C3B 4415   5.127   9.318   9.816 -0.0836 -0.2948  0.0180
  276loPI   C4B 4416   4.973   9.474   9.479 -0.0717  0.2178  0.0903
  277loPI    C1 4417  15.409   7.414  11.531  0.0654  0.0539 -0.0677
  277loPI    C2 4418  15.345   7.700  11.803 -0.1102  0.2189 -0.2787
  277loPI    C3 4419  15.073   7.413  11.747 -0.0801  0.1921 -0.2890
  277loPI   PO4 4420  15.527   7.536  11.374  0.1572  0.0575 -0.2599
  277loPI   GL1 4421  15.694   7.433  11.044 -0.1835  0.0384 -0.1210
  277loPI   GL2 4422  15.889   7.298  10.921  0.1940  0.1915 -0.0156
  277loPI   C1A 4423  15.518   7.560  10.670  0.1249 -0.1649 -0.0429
  277loPI   C2A 4424  15.647   7.518  10.252  0.0831 -0.2902 -0.0176
  277loPI   C3A 4425  15.658   7.564   9.778  0.2093  0.0267 -0.0752
  277loPI   C4A 4426  15.515   7.528   9.364  0.0920 -0.1152 -0.1880
  277loPI   C5A 4427  15.629   7.516   8.883  0.1046  0.1727  0.0736
  277loPI   C6A 4428  15.936   7.352   8.699  0.0750  0.1235  0.0027
  277loPI   C1B 4429  15.954   7.180  10.547  0.3374 -0.4309 -0.2834
  277loPI   C2B 4430  15.986   7.218  10.067  0.0622 -0.2071 -0.2188
  277loPI   C3B 4431  15.925   7.167   9.621  0.1214 -0.1443  0.1588
  277loPI   C4B 4432  15.962   7.349   9.244  0.3754  0.0816 -0.1315
  278loPI    C1 4433   0.937  16.616  11.039 -0.1278 -0.0748 -0.2158
  278loPI    C2 4434   1.084  16.405  11.345  0.0127 -0.1232 -0.3157
  278loPI    C3 4435   0.691  16.480  11.324  0.0297  0.0681 -0.0093
  278loPI   PO4 4436   1.015  16.616  10.785 -0.2599  0.0127 -0.3055
  278loPI   GL1 4437   0.927  16.534  10.484 -0.0680  0.1753 -0.2036
  278loPI   GL2 4438   0.920  16.189  10.540 -0.1945 -0.3045 -0.0547
  278loPI   C1A 4439   1.037  16.519  10.035 -0.2169 -0.0707 -0.1562
  278loPI   C2A 4440   1.153  16.646   9.714 -0.1081 -0.0059 -0.1521
  278loPI   C3A 4441   1.150  16.619   9.351  0.2407  0.4128 -0.0492
  278loPI   C4A 4442   1.121  16.623   8.925  0.0137 -0.2110  0.0376
  278loPI   C5A 4443   1.129  16.912   8.622  0.1433 -0.2114  0.3075
  278loPI   C6A 4444   1.296  17.292   8.637  0.1441 -0.0458 -0.1254
  278loPI   C1B 4445   0.890  15.964  10.173 -0.1990 -0.0601  0.1470
  278loPI   C2B 4446   0.952  16.033   9.688 -0.0007  0.0083 -0.0521
  278loPI   C3B 4447   0.815  16.058   9.232 -0.0891 -0.0976  0.0607
  278loPI   C4B 4448   0.950  16.144   8.928  0.2781  0.1010 -0.1199
  279loPI    C1 4449   1.654   2.678  11.763 -0.0896 -0.0802  0.0928
  279loPI    C2 4450   1.859   2.345  11.679  0.1030  0.0556  0.0170
  279loPI    C3 4451   2.054   2.686  11.754 -0.0958  0.1824 -0.0355
  279loPI   PO4 4452   1.496   2.743  11.434 -0.1021  0.2747 -0.3375
  279loPI   GL1 4453   1.618   2.920  11.122  0.2750  0.1485  0.1722
  279loPI   GL2 4454   1.340   2.887  10.878  0.0402  0.0248  0.2575
  279loPI   C1A 4455   1.764   3.193  10.730  0.1504 -0.2054 -0.2165
  279loPI   C2A 4456   1.814   3.169  10.335 -0.0500 -0.0538  0.0719
  279loPI   C3A 4457   1.727   3.205   9.876 -0.1558 -0.1215 -0.0636
  279loPI   C4A 4458   1.723   3.208   9.457 -0.0652  0.0670  0.0562
  279loPI   C5A 4459   1.662   3.172   9.005  0.3291 -0.2449  0.0829
  279loPI   C6A 4460   1.351   3.179   8.666 -0.0934 -0.0443 -0.1686
  279loPI   C1B 4461   1.344   3.015  10.396  0.0877  0.0804  0.1219
  279loPI   C2B 4462   1.212   3.002   9.976  0.0782 -0.1173  0.0204
  279loPI   C3B 4463   1.263   3.006   9.517  0.1105 -0.1828  0.1185
  279loPI   C4B 4464   1.281   2.871   9.050 -0.2802  0.0194 -0.0066
  280loPI    C1 4465   8.797   2.228  10.502  0.2854  0.1260 -0.1367
  280loPI    C2 4466   8.799   2.199  10.901 -0.1272 -0.0220 -0.1407
  280loPI    C3 4467   9.050   1.976  10.684  0.0028 -0.0434  0.0294
  280loPI   PO4 4468   8.695   2.467  10.426  0.1908  0.0741 -0.1532
  280loPI   GL1 4469   8.587   2.553   9.969 -0.0607  0.3504  0.2287
  280loPI   GL2 4470   8.918   2.569  10.026 -0.1316  0.0904 -0.1793
  280loPI   C1A 4471   8.635   2.494   9.558 -0.0908 -0.2956 -0.1246
  280loPI   C2A 4472   8.534   2.533   9.102 -0.0745  0.1293  0.0009
  280loPI   C3A 4473   8.473   2.407   8.613  0.0820 -0.1738 -0.1231
  280loPI   C4A 4474   8.278   2.237   8.250  0.1434  0.1145 -0.3192
  280loPI   C5A 4475   7.936   2.072   8.022 -0.2030  0.2029 -0.1348
  280loPI   C6A 4476   7.681   1.929   7.853  0.0776  0.1039 -0.0599
  280loPI   C1B 4477   9.029   2.778   9.704 -0.0474 -0.0684  0.2965
  280loPI   C2B 4478   9.057   2.674   9.272 -0.0698  0.0472  0.0638
  280loPI   C3B 4479   8.941   2.648   8.849  0.4743 -0.2476 -0.2457
  280loPI   C4B 4480   8.922   2.687   8.474  0.0879 -0.0994  0.2041
  281loPI    C1 4481   0.462  11.637  11.175  0.0600  0.0310 -0.0534
  281loPI    C2 4482   0.740  11.518  11.436  0.0177  0.1859  0.0640
  281loPI    C3 4483   0.641  11.904  11.412 -0.1148  0.1457 -0.0487
  281loPI   PO4 4484   0.469  11.523  10.961  0.0122 -0.0730 -0.4853
  281loPI   GL1 4485   0.715  11.630  10.660 -0.3043 -0.1980 -0.1462
  281loPI   GL2 4486   0.573  11.863  10.537  0.1101 -0.0536 -0.1100
  281loPI   C1A 4487   0.892  11.607  10.239 -0.0557 -0.2232 -0.2048
  281loPI   C2A 4488   0.838  11.567   9.832 -0.1437  0.0433 -0.0630
  281loPI   C3A 4489   0.782  11.581   9.438 -0.4582 -0.0294 -0.0682
  281loPI   C4A 4490   0.758  11.470   9.008  0.2735  0.1969 -0.0793
  281loPI   C5A 4491   0.616  11.471   8.612 -0.3581 -0.0159  0.2534
  281loPI   C6A 4492   0.132  11.495   8.471 -0.2028 -0.1717 -0.2646
  281loPI   C1B 4493   0.461  11.826  10.127 -0.0119  0.1243  0.2600
  281loPI   C2B 4494   0.429  11.875   9.651 -0.2727 -0.2513 -0.2107
  281loPI   C3B 4495   0.408  11.859   9.182  0.0770  0.2373 -0.2141
  281loPI   C4B 4496   0.368  11.903   8.747  0.0927  0.2546 -0.0057
  282loPI    C1 4497  13.859  14.658  10.844  0.0159 -0.1563  0.1436
  282loPI    C2 4498  14.038  14.993  10.719 -0.0422 -0.2452 -0.1886
  282loPI    C3 4499  13.919  14.960  11.100  0.2054  0.0040 -0.0856
  282loPI   PO4 4500  13.969  14.438  10.813 -0.0221  0.0202 -0.0243
  282loPI   GL1 4501  14.028  14.385  10.408 -0.0851  0.1999  0.0617
  282loPI   GL2 4502  13.948  14.699  10.273  0.1334  0.3982 -0.0118
  282loPI   C1A 4503  14.211  14.302   9.984  0.0258 -0.0249 -0.2781
  282loPI   C2A 4504  14.300  14.249   9.489 -0.2308 -0.2101 -0.0230
  282loPI   C3A 4505  14.311  14.293   9.053  0.0975 -0.0378  0.1379
  282loPI   C4A 4506  14.337  14.352   8.577 -0.0380 -0.2699  0.3656
  282loPI   C5A 4507  14.604  14.188   8.152 -0.2044  0.1467 -0.2081
  282loPI   C6A 4508  14.623  14.128   7.689  0.0054  0.2916 -0.1931
  282loPI   C1B 4509  13.855  14.636   9.895 -0.0630 -0.4947 -0.3920
  282loPI   C2B 4510  13.837  14.517   9.544 -0.0626  0.0123 -0.3255
  282loPI   C3B 4511  13.720  14.588   9.143  0.2088 -0.4018  0.0749
  282loPI   C4B 4512  13.864  14.453   8.819 -0.0510 -0.0790 -0.0790
  283loPI    C1 4513  14.032   4.665  11.607  0.0651  0.0697  0.0287
  283loPI    C2 4514  13.850   4.937  11.837  0.0114 -0.0174  0.0896
  283loPI    C3 4515  14.083   4.658  12.003  0.1236  0.0344  0.0205
  283loPI   PO4 4516  14.022   4.788  11.334  0.0986 -0.2700 -0.1168
  283loPI   GL1 4517  14.196   4.753  10.839 -0.0463 -0.1522  0.0972
  283loPI   GL2 4518  14.373   4.499  10.932 -0.2583 -0.1023  0.3650
  283loPI   C1A 4519  14.022   4.582  10.488 -0.1478 -0.3588  0.0559
  283loPI   C2A 4520  14.088   4.625  10.015  0.0344  0.0720  0.4725
  283loPI   C3A 4521  14.019   4.700   9.647  0.0782 -0.4378 -0.0133
  283loPI   C4A 4522  14.079   4.746   9.192 -0.3720 -0.2944 -0.0004
  283loPI   C5A 4523  14.323   4.646   8.931 -0.0220  0.1261  0.3191
  283loPI   C6A 4524  14.473   4.214   8.777  0.1609  0.0104  0.0953
  283loPI   C1B 4525  14.382   4.285  10.588 -0.1197  0.3336  0.0539
  283loPI   C2B 4526  14.484   4.310  10.183 -0.2599  0.0540 -0.1676
  283loPI   C3B 4527  14.419   4.294   9.728 -0.0965 -0.0418 -0.1729
  283loPI   C4B 4528  14.478   4.394   9.355 -0.2183  0.1004 -0.2211
  284loPI    C1 4529  13.310   7.542  11.569  0.2009 -0.2793 -0.0816
  284loPI    C2 4530  12.946   7.378  11.549  0.0641 -0.0078  0.1155
  284loPI    C3 4531  13.046   7.604  11.863  0.3003  0.1634 -0.0785
  284loPI   PO4 4532  13.472   7.409  11.395 -0.2587  0.1296  0.1535
  284loPI   GL1 4533  13.612   7.283  11.002 -0.1914  0.1671  0.0997
  284loPI   GL2 4534  13.713   7.011  10.990  0.1699 -0.1278  0.2554
  284loPI   C1A 4535  13.321   7.520  10.746  0.0884  0.0836  0.1052
  284loPI   C2A 4536  13.327   7.550  10.268  0.1446 -0.2462 -0.1635
  284loPI   C3A 4537  13.309   7.491   9.870 -0.3134 -0.1469  0.1197
  284loPI   C4A 4538  13.233   7.581   9.444 -0.0956 -0.0935 -0.0987
  284loPI   C5A 4539  13.323   7.603   9.064  0.0721 -0.1318 -0.1537
  284loPI   C6A 4540  13.464   7.442   8.669 -0.0640  0.0542  0.0423
  284loPI   C1B 4541  13.735   7.207  10.520  0.0191  0.0689  0.2275
  284loPI   C2B 4542  13.637   7.166  10.086  0.0891  0.2436 -0.2947
  284loPI   C3B 4543  13.723   7.248   9.683  0.3556 -0.0584  0.0718
  284loPI   C4B 4544  13.507   7.199   9.263 -0.1211  0.1420 -0.1057
  285loPI    C1 4545   0.979  15.724  10.926 -0.1395 -0.2406  0.1169
  285loPI    C2 4546   0.843  16.029  11.145 -0.4562 -0.3464  0.0737
  285loPI    C3 4547   1.222  15.907  11.185 -0.3064  0.0909  0.0445
  285loPI   PO4 4548   0.783  15.738  10.750  0.0164  0.0067 -0.1969
  285loPI   GL1 4549   0.990  15.525  10.427  0.0282  0.0860  0.3080
  285loPI   GL2 4550   1.318  15.712  10.257  0.0122 -0.1411 -0.1222
  285loPI   C1A 4551   0.873  15.488   9.987 -0.0635 -0.2264  0.1375
  285loPI   C2A 4552   0.816  15.596   9.513 -0.0910 -0.0228 -0.2610
  285loPI   C3A 4553   0.943  15.625   9.014 -0.0635  0.2310 -0.0211
  285loPI   C4A 4554   0.818  15.688   8.678 -0.2344  0.3189  0.1103
  285loPI   C5A 4555   0.660  16.138   8.526  0.1963  0.2400  0.0073
  285loPI   C6A 4556   0.305  16.427   8.342  0.1006 -0.0122 -0.0397
  285loPI   C1B 4557   1.379  15.614   9.754  0.1518  0.0396  0.3964
  285loPI   C2B 4558   1.321  15.764   9.286 -0.0010 -0.2833 -0.1008
  285loPI   C3B 4559   1.310  15.907   8.796  0.0126 -0.1701 -0.0514
  285loPI   C4B 4560   1.144  16.160   8.459  0.0396 -0.1597  0.0579
  286loPI    C1 4561   5.610   5.128  11.556  0.1253  0.3174 -0.0054
  286loPI    C2 4562   5.347   5.218  11.844 -0.0497 -0.2072  0.0084
  286loPI    C3 4563   5.700   5.055  11.939  0.1876  0.2666 -0.0296
  286loPI   PO4 4564   5.441   5.038  11.358  0.1265 -0.2671 -0.0737
  286loPI   GL1 4565   5.500   5.203  10.924  0.0072  0.4606  0.3001
  286loPI   GL2 4566   5.671   4.841  10.843 -0.2998 -0.2385  0.1179
  286loPI   C1A 4567   5.554   5.277  10.541  0.1398 -0.0787 -0.0478
  286loPI   C2A 4568   5.287   5.239  10.133  0.1626  0.2456 -0.2356
  286loPI   C3A 4569   5.191   5.091   9.691  0.1308  0.0151  0.0810
  286loPI   C4A 4570   5.249   5.123   9.245 -0.2946 -0.1605 -0.1924
  286loPI   C5A 4571   5.190   5.014   8.942  0.0495  0.1265  0.1368
  286loPI   C6A 4572   5.233   4.710   8.589 -0.1705  0.0549 -0.1477
  286loPI   C1B 4573   5.802   4.834  10.302 -0.0675  0.2766  0.1682
  286loPI   C2B 4574   5.664   4.846   9.986  0.1405 -0.0139  0.2177
  286loPI   C3B 4575   5.678   4.796   9.547 -0.1633  0.2687  0.3436
  286loPI   C4B 4576   5.635   4.749   9.164  0.0350 -0.0159  0.2440
  287loPI    C1 4577  12.865   7.940  11.546 -0.1681 -0.0593 -0.0217
  287loPI    C2 4578  12.569   7.681  11.620 -0.1905 -0.0033  0.0859
  287loPI    C3 4579  12.515   8.072  11.686 -0.0490 -0.0071  0.2327
  287loPI   PO4 4580  13.012   7.929  11.323 -0.0505 -0.2704  0.0796
  287loPI   GL1 4581  12.996   7.943  10.951  0.1629 -0.2528 -0.0342
  287loPI   GL2 4582  12.830   8.186  10.948  0.0438 -0.2167  0.2025
  287loPI   C1A 4583  12.984   7.882  10.514  0.2665  0.0412  0.1175
  287loPI   C2A 4584  12.958   7.897  10.131 -0.2774 -0.2334  0.0407
  287loPI   C3A 4585  12.885   7.881   9.689  0.1839 -0.2789  0.2689
  287loPI   C4A 4586  12.899   7.868   9.204 -0.0533 -0.0721  0.0465
  287loPI   C5A 4587  12.778   7.911   8.769  0.2317 -0.0558  0.2389
  287loPI   C6A 4588  12.469   8.012   8.423  0.0821 -0.3599 -0.1808
  287loPI   C1B 4589  12.940   8.378  10.538 -0.0102 -0.0085  0.1314
  287loPI   C2B 4590  13.044   8.385  10.064 -0.0135  0.0938  0.0790
  287loPI   C3B 4591  12.947   8.392   9.598 -0.2476  0.0464  0.0439
  287loPI   C4B 4592  12.920   8.404   9.160 -0.1687  0.0649 -0.1566
  288loPI    C1 4593   7.574   9.884  11.507 -0.0223 -0.0351  0.1061
  288loPI    C2 4594   7.613   9.486  11.499 -0.0278 -0.0348  0.0574
  288loPI    C3 4595   7.927   9.717  11.592 -0.0724 -0.0581  0.2716
  288loPI   PO4 4596   7.477   9.951  11.271 -0.0701 -0.3510 -0.0314
  288loPI   GL1 4597   7.598   9.891  10.752  0.2521 -0.1071 -0.3856
  288loPI   GL2 4598   7.483  10.144  10.750 -0.0043 -0.1339 -0.0996
  288loPI   C1A 4599   7.758   9.604  10.502  0.0236 -0.0239 -0.0183
  288loPI   C2A 4600   7.834   9.539  10.153 -0.0354 -0.0496 -0.2005
  288loPI   C3A 4601   7.719   9.502   9.670  0.0918  0.1457 -0.1259
  288loPI   C4A 4602   7.695   9.459   9.200  0.1457 -0.0952 -0.1949
  288loPI   C5A 4603   7.561   9.243   8.783 -0.1689 -0.1240 -0.0399
  288loPI   C6A 4604   7.738   8.889   8.648  0.0606 -0.1598 -0.1709
  288loPI   C1B 4605   7.399  10.002  10.308  0.1925  0.0844  0.0862
  288loPI   C2B 4606   7.408   9.878   9.853 -0.0407 -0.0972 -0.0125
  288loPI   C3B 4607   7.320   9.837   9.406  0.0303  0.0707 -0.1225
  288loPI   C4B 4608   7.237   9.701   9.004  0.1420  0.0987  0.4120
  289loPI    C1 4609  12.787   3.530  10.909  0.2400  0.2286  0.1785
  289loPI    C2 4610  12.728   3.595  11.300 -0.3217  0.1907  0.1091
  289loPI    C3 4611  12.427   3.464  11.072 -0.0436  0.3603 -0.3713
  289loPI   PO4 4612  12.974   3.345  10.882 -0.2557 -0.1660 -0.0308
  289loPI   GL1 4613  13.121   3.097  10.468 -0.3303 -0.2153  0.0309
  289loPI   GL2 4614  12.912   3.070  10.271  0.2926  0.1179  0.2838
  289loPI   C1A 4615  13.319   2.839  10.117 -0.1086 -0.1107  0.1295
  289loPI   C2A 4616  13.435   2.834   9.708 -0.3933  0.1112  0.0486
  289loPI   C3A 4617  13.397   2.819   9.264  0.1481  0.2247  0.2928
  289loPI   C4A 4618  13.275   2.648   8.775 -0.2340  0.2884 -0.0637
  289loPI   C5A 4619  13.265   2.595   8.306  0.2131 -0.1079  0.1062
  289loPI   C6A 4620  13.271   2.697   7.869  0.0591  0.0086 -0.1930
  289loPI   C1B 4621  13.020   3.121   9.842 -0.3509 -0.0350  0.0862
  289loPI   C2B 4622  12.874   3.243   9.459  0.0089  0.3393 -0.0582
  289loPI   C3B 4623  12.885   3.417   9.090  0.2643  0.0495  0.3006
  289loPI   C4B 4624  13.118   3.111   8.928 -0.2258  0.1971 -0.0503
  290loPI    C1 4625  12.208   4.218  11.260  0.2327 -0.0535  0.1578
  290loPI    C2 4626  12.223   3.824  11.327  0.0034 -0.0475  0.2537
  290loPI    C3 4627  12.078   4.069  11.608 -0.1128  0.0755  0.0878
  290loPI   PO4 4628  12.137   4.205  10.942 -0.0923 -0.2291  0.3900
  290loPI   GL1 4629  12.443   4.172  10.597  0.1669  0.1145  0.3190
  290loPI   GL2 4630  12.714   3.914  10.565 -0.1582  0.1678  0.1723
  290loPI   C1A 4631  12.251   4.436  10.286  0.1539 -0.1738 -0.0185
  290loPI   C2A 4632  12.057   4.443   9.931 -0.2520  0.0355 -0.3141
  290loPI   C3A 4633  12.206   4.390   9.475  0.1255 -0.1919 -0.0297
  290loPI   C4A 4634  12.039   4.479   9.098  0.0804 -0.0933  0.1769
  290loPI   C5A 4635  11.718   4.415   8.823  0.2502 -0.0291 -0.0489
  290loPI   C6A 4636  11.338   4.228   8.776 -0.0014 -0.2131  0.0710
  290loPI   C1B 4637  12.661   4.032  10.130  0.0414 -0.0490  0.2195
  290loPI   C2B 4638  12.641   4.099   9.708 -0.0691  0.0195 -0.0604
  290loPI   C3B 4639  12.566   4.139   9.242  0.2337  0.1891 -0.2768
  290loPI   C4B 4640  12.460   4.216   8.889  0.1129  0.2081 -0.2587
  291loPI    C1 4641  10.677  11.819  11.327  0.0638 -0.0801 -0.1441
  291loPI    C2 4642  10.296  11.869  11.437  0.0322 -0.1951 -0.2004
  291loPI    C3 4643  10.590  11.933  11.700 -0.0083  0.2237 -0.2506
  291loPI   PO4 4644  10.626  11.746  11.048 -0.0523 -0.1041  0.0194
  291loPI   GL1 4645  10.770  11.530  10.697  0.0236  0.1647  0.1614
  291loPI   GL2 4646  10.818  11.899  10.558 -0.3087 -0.0583 -0.3145
  291loPI   C1A 4647  10.809  11.357  10.358 -0.2511 -0.1082 -0.2007
  291loPI   C2A 4648  10.728  11.309   9.913 -0.0349  0.1792  0.0760
  291loPI   C3A 4649  10.763  11.273   9.405 -0.1655 -0.0648 -0.1169
  291loPI   C4A 4650  10.680  11.124   9.022  0.1051  0.0558 -0.2801
  291loPI   C5A 4651  10.440  11.027   8.636  0.2670 -0.2012  0.2515
  291loPI   C6A 4652  10.194  10.691   8.343 -0.1390 -0.1466 -0.2223
  291loPI   C1B 4653  10.772  11.829  10.106 -0.1919 -0.4107 -0.0398
  291loPI   C2B 4654  10.771  11.785   9.670  0.3390  0.0642 -0.0562
  291loPI   C3B 4655  10.801  11.736   9.175 -0.3605 -0.0783  0.0870
  291loPI   C4B 4656  10.582  11.619   8.822 -0.1503 -0.0771  0.1623
  292loPI    C1 4657   1.314   9.931  11.457 -0.2010 -0.0188  0.0131
  292loPI    C2 4658   1.234   9.605  11.675 -0.1484  0.0138  0.0817
  292loPI    C3 4659   1.128   9.967  11.810  0.0092  0.0466  0.1191
  292loPI   PO4 4660   1.323   9.801  11.199 -0.2251  0.0153 -0.1201
  292loPI   GL1 4661   1.212   9.651  10.886 -0.0026  0.1658  0.0235
  292loPI   GL2 4662   0.994   9.798  10.828  0.2291 -0.1996 -0.2414
  292loPI   C1A 4663   1.388   9.489  10.646 -0.2294 -0.0780 -0.1744
  292loPI   C2A 4664   1.464   9.448  10.162 -0.0338 -0.0231 -0.0266
  292loPI   C3A 4665   1.274   9.355   9.765 -0.2572 -0.2341  0.0314
  292loPI   C4A 4666   1.356   9.433   9.305  0.0249 -0.0150 -0.0294
  292loPI   C5A 4667   1.372   9.219   9.001  0.0136  0.0724 -0.2104
  292loPI   C6A 4668   1.580   8.866   8.929  0.0268 -0.1291 -0.2726
  292loPI   C1B 4669   0.993   9.682  10.405  0.2130 -0.3501  0.0600
  292loPI   C2B 4670   0.942   9.724   9.933 -0.1841  0.0971 -0.0278
  292loPI   C3B 4671   0.957   9.775   9.372 -0.1480 -0.1685 -0.2052
  292loPI   C4B 4672   1.088   9.714   8.994 -0.0036 -0.0894  0.0749
  293loPI    C1 4673  12.171   7.458  11.283 -0.1149  0.3824  0.0414
  293loPI    C2 4674  12.412   7.213  11.488 -0.0721 -0.0020 -0.4514
  293loPI    C3 4675  12.015   7.169  11.512 -0.0891  0.3205 -0.0191
  293loPI   PO4 4676  12.241   7.474  11.075  0.3263 -0.1660  0.1474
  293loPI   GL1 4677  12.486   7.627  10.673  0.0750 -0.0039 -0.0229
  293loPI   GL2 4678  12.105   7.753  10.624  0.3718 -0.0389 -0.1495
  293loPI   C1A 4679  12.544   7.592  10.324  0.1242 -0.0029  0.1292
  293loPI   C2A 4680  12.581   7.644   9.981  0.1782  0.1142  0.1275
  293loPI   C3A 4681  12.423   7.734   9.546  0.3655  0.2607  0.0673
  293loPI   C4A 4682  12.371   7.714   9.127 -0.2312  0.0655  0.3000
  293loPI   C5A 4683  12.277   7.617   8.683  0.0101 -0.1670  0.0168
  293loPI   C6A 4684  12.004   7.356   8.502 -0.2057  0.0033  0.1786
  293loPI   C1B 4685  12.100   7.824  10.246  0.0218 -0.3640  0.1552
  293loPI   C2B 4686  12.049   7.923   9.828 -0.2440  0.0576 -0.1280
  293loPI   C3B 4687  11.997   7.991   9.379 -0.2723 -0.0592  0.2139
  293loPI   C4B 4688  11.941   7.932   8.930  0.3326 -0.0058  0.0489
  294loPI    C1 4689   9.482  15.114  10.519 -0.2338  0.1655 -0.1795
  294loPI    C2 4690   9.121  14.996  10.644  0.0052 -0.1563  0.2369
  294loPI    C3 4691   9.377  15.161  10.902  0.1251  0.1635 -0.0775
  294loPI   PO4 4692   9.396  15.159  10.209  0.0319 -0.0804  0.0062
  294loPI   GL1 4693   9.739  15.214   9.964 -0.1068 -0.2229 -0.0466
  294loPI   GL2 4694  10.002  15.090   9.900  0.0120 -0.4594 -0.0284
  294loPI   C1A 4695   9.623  15.332   9.591 -0.0056  0.0062  0.0225
  294loPI   C2A 4696   9.654  15.287   9.224  0.0307 -0.1632 -0.1975
  294loPI   C3A 4697   9.642  15.247   8.834 -0.3928 -0.0066  0.2620
  294loPI   C4A 4698   9.543  15.111   8.390  0.1672  0.0346 -0.0774
  294loPI   C5A 4699   9.550  14.846   8.047  0.2108 -0.0533 -0.0039
  294loPI   C6A 4700   9.597  14.519   7.891 -0.1682  0.0020 -0.1649
  294loPI   C1B 4701   9.779  14.837   9.563  0.0896  0.1221 -0.0448
  294loPI   C2B 4702   9.858  14.869   9.110  0.1264  0.0238 -0.1648
  294loPI   C3B 4703   9.740  14.752   8.799 -0.0821 -0.1705 -0.2231
  294loPI   C4B 4704   9.475  14.535   8.500 -0.1707  0.0263  0.2895
  295loPI    C1 4705   2.298  11.695  11.589  0.0017  0.2024 -0.0436
  295loPI    C2 4706   2.247  12.078  11.693 -0.1227  0.1166  0.2218
  295loPI    C3 4707   2.575  11.880  11.810 -0.1047  0.1143  0.1673
  295loPI   PO4 4708   2.268  11.702  11.359  0.1613 -0.1529 -0.1683
  295loPI   GL1 4709   2.401  11.878  11.029 -0.1656  0.2185  0.0377
  295loPI   GL2 4710   2.688  11.868  10.997 -0.1165  0.2965  0.2177
  295loPI   C1A 4711   2.238  11.597  10.706 -0.1567 -0.2652  0.0773
  295loPI   C2A 4712   2.260  11.593  10.277 -0.1485  0.4562  0.0387
  295loPI   C3A 4713   2.258  11.683   9.849 -0.1575 -0.2690 -0.0598
  295loPI   C4A 4714   2.166  11.695   9.344  0.1678 -0.0744 -0.2274
  295loPI   C5A 4715   2.239  11.770   8.835 -0.2869  0.2206  0.1647
  295loPI   C6A 4716   2.501  11.765   8.483  0.1799  0.1573 -0.2037
  295loPI   C1B 4717   2.688  11.812  10.524 -0.0258 -0.2106  0.0782
  295loPI   C2B 4718   2.709  11.812  10.090  0.0217  0.1009  0.1751
  295loPI   C3B 4719   2.727  11.904   9.675 -0.1968  0.0448  0.0716
  295loPI   C4B 4720   2.624  11.914   9.168 -0.1962 -0.0713 -0.1834
  296loPI    C1 4721   8.517  16.197  10.333 -0.0783  0.0121  0.0128
  296loPI    C2 4722   8.559  16.580  10.224 -0.1226  0.0051 -0.0299
  296loPI    C3 4723   8.410  16.489  10.585 -0.0952  0.0282 -0.0128
  296loPI   PO4 4724   8.386  16.125  10.148 -0.1432  0.1334  0.0898
  296loPI   GL1 4725   8.546  16.085   9.735 -0.1079 -0.2827 -0.0276
  296loPI   GL2 4726   8.516  16.420   9.765  0.2184  0.1791  0.0624
  296loPI   C1A 4727   8.447  16.100   9.319  0.0325 -0.0966 -0.1012
  296loPI   C2A 4728   8.334  16.185   8.826  0.0446  0.1991 -0.0586
  296loPI   C3A 4729   8.224  16.127   8.446 -0.1349 -0.4188  0.1371
  296loPI   C4A 4730   8.115  16.285   8.125  0.0765  0.0539 -0.1367
  296loPI   C5A 4731   7.661  16.281   7.926 -0.1250  0.3057  0.0980
  296loPI   C6A 4732   7.436  15.924   7.959  0.0586 -0.2224  0.0044
  296loPI   C1B 4733   8.820  16.387   9.476  0.0247  0.0992 -0.0269
  296loPI   C2B 4734   8.817  16.297   9.100  0.2564 -0.2963 -0.2431
  296loPI   C3B 4735   8.779  16.445   8.719 -0.2142  0.0064 -0.0142
  296loPI   C4B 4736   8.720  16.322   8.260 -0.1373  0.0369  0.2196
  297loPI    C1 4737   4.126   8.599  11.705  0.0579 -0.0018  0.0528
  297loPI    C2 4738   4.521   8.610  11.769  0.1020 -0.1851 -0.1732
  297loPI    C3 4739   4.304   8.306  11.911  0.0633 -0.1529 -0.1633
  297loPI   PO4 4740   4.149   8.681  11.431 -0.3046 -0.2177  0.0321
  297loPI   GL1 4741   3.865   8.827  11.112 -0.1350  0.0307  0.1361
  297loPI   GL2 4742   4.218   8.894  10.965  0.2811 -0.2252 -0.1288
  297loPI   C1A 4743   3.733   8.774  10.779 -0.2700  0.0302  0.1073
  297loPI   C2A 4744   3.646   8.785  10.339 -0.0146  0.3389  0.1703
  297loPI   C3A 4745   3.604   8.886   9.932  0.1869 -0.0185 -0.0110
  297loPI   C4A 4746   3.605   8.865   9.547 -0.0498  0.2584  0.1608
  297loPI   C5A 4747   3.589   8.907   9.087  0.1115 -0.1381  0.0582
  297loPI   C6A 4748   3.183   8.620   9.078 -0.0014  0.1110 -0.1595
  297loPI   C1B 4749   4.129   8.875  10.546 -0.2109 -0.1044  0.0281
  297loPI   C2B 4750   4.185   9.028  10.076  0.2742  0.0527  0.1235
  297loPI   C3B 4751   4.047   9.066   9.667  0.1536  0.1974 -0.1823
  297loPI   C4B 4752   4.067   9.102   9.237 -0.0928  0.1556  0.0017
  298loPI    C1 4753   6.385   1.471  11.031 -0.0797 -0.1111 -0.0069
  298loPI    C2 4754   6.577   1.411  11.376 -0.0323 -0.0329 -0.0194
  298loPI    C3 4755   6.300   1.698  11.349  0.0035 -0.0024 -0.0619
  298loPI   PO4 4756   6.303   1.289  10.936 -0.3175  0.2192 -0.0733
  298loPI   GL1 4757   5.943   1.183  10.711  0.2190 -0.0259  0.2470
  298loPI   GL2 4758   5.808   0.911  10.483 -0.0502  0.1770  0.0816
  298loPI   C1A 4759   5.922   1.368  10.289 -0.0044 -0.0352 -0.0950
  298loPI   C2A 4760   6.038   1.510   9.818  0.1906 -0.1110  0.0555
  298loPI   C3A 4761   5.963   1.520   9.419  0.1200 -0.1451  0.1301
  298loPI   C4A 4762   6.111   1.668   9.056 -0.0359  0.1032 -0.0510
  298loPI   C5A 4763   6.174   1.979   8.799 -0.1073 -0.0117  0.1155
  298loPI   C6A 4764   6.033   2.252   8.530 -0.1856  0.2391 -0.1374
  298loPI   C1B 4765   5.531   0.784  10.154  0.2325 -0.1910 -0.0047
  298loPI   C2B 4766   5.500   0.858   9.700  0.0276  0.0030 -0.0135
  298loPI   C3B 4767   5.446   0.931   9.284 -0.1175  0.2221  0.0535
  298loPI   C4B 4768   5.474   0.960   8.850 -0.0414 -0.0599 -0.0618
  299loPI    C1 4769   2.597  14.515  11.275 -0.1231 -0.2504  0.0111
  299loPI    C2 4770   2.344  14.324  11.519 -0.1181 -0.1449  0.0999
  299loPI    C3 4771   2.603  14.590  11.668  0.0648 -0.2721  0.0135
  299loPI   PO4 4772   2.716  14.315  11.066 -0.3263 -0.0498 -0.6853
  299loPI   GL1 4773   2.896  14.310  10.764 -0.1501  0.0814  0.1315
  299loPI   GL2 4774   2.805  13.945  10.729 -0.2530 -0.0815  0.1463
  299loPI   C1A 4775   3.018  14.359  10.351 -0.0691 -0.1476  0.0784
  299loPI   C2A 4776   3.099  14.416   9.866 -0.1920 -0.2704 -0.3054
  299loPI   C3A 4777   3.050  14.489   9.417 -0.0462  0.0002  0.2884
  299loPI   C4A 4778   3.058  14.602   9.001  0.1244  0.1512 -0.1472
  299loPI   C5A 4779   2.824  14.735   8.557 -0.0477 -0.2536 -0.0157
  299loPI   C6A 4780   2.883  14.809   8.138  0.4890 -0.0783 -0.5359
  299loPI   C1B 4781   2.844  13.842  10.225 -0.0884  0.0312  0.2824
  299loPI   C2B 4782   2.958  13.892   9.816 -0.2092  0.0958 -0.0299
  299loPI   C3B 4783   3.063  13.928   9.366 -0.0681 -0.0111 -0.0106
  299loPI   C4B 4784   2.944  13.956   8.928  0.1884 -0.1816 -0.0935
  300loPI    C1 4785   4.241   7.724  11.414 -0.1002 -0.0890 -0.0990
  300loPI    C2 4786   4.545   7.836  11.650  0.1502 -0.1292 -0.3955
  300loPI    C3 4787   4.171   7.831  11.793  0.2977 -0.1635  0.0004
  300loPI   PO4 4788   4.182   7.782  11.219 -0.1031 -0.2458 -0.0096
  300loPI   GL1 4789   3.951   7.551  10.927  0.1546  0.4714 -0.3245
  300loPI   GL2 4790   3.921   7.807  10.773  0.2251  0.0793 -0.0624
  300loPI   C1A 4791   3.885   7.409  10.526 -0.0842  0.0319  0.1834
  300loPI   C2A 4792   3.904   7.420  10.029  0.1486 -0.1707 -0.1394
  300loPI   C3A 4793   3.811   7.381   9.751  0.1409 -0.0242 -0.2340
  300loPI   C4A 4794   3.765   7.551   9.293 -0.0093 -0.2714 -0.1494
  300loPI   C5A 4795   3.858   7.664   8.925  0.0372 -0.0022 -0.0264
  300loPI   C6A 4796   4.182   7.902   8.587 -0.3085 -0.1896  0.0721
  300loPI   C1B 4797   3.944   7.881  10.360  0.0565 -0.0036  0.1741
  300loPI   C2B 4798   3.959   7.997   9.921  0.1441 -0.2222  0.0661
  300loPI   C3B 4799   3.981   8.047   9.464 -0.4236  0.1890 -0.0014
  300loPI   C4B 4800   3.942   8.094   9.136  0.1821  0.2813  0.0373
  301loPI    C1 4801   0.597   2.093  11.427  0.1787 -0.2032  0.0224
  301loPI    C2 4802   0.903   1.855  11.526  0.2087 -0.1599  0.0343
  301loPI    C3 4803   0.533   1.705  11.497  0.2351 -0.2176 -0.0054
  301loPI   PO4 4804   0.771   2.254  11.232  0.0146 -0.1360  0.0428
  301loPI   GL1 4805   1.093   2.145  10.953 -0.2327  0.0189 -0.1773
  301loPI   GL2 4806   1.029   2.020  10.720 -0.2302 -0.0329 -0.2437
  301loPI   C1A 4807   1.196   2.459  10.601  0.0634  0.2823  0.2761
  301loPI   C2A 4808   1.219   2.495  10.224 -0.2360 -0.1071 -0.2912
  301loPI   C3A 4809   1.155   2.491   9.778  0.0038  0.1715 -0.1018
  301loPI   C4A 4810   1.154   2.415   9.338 -0.1124  0.0299 -0.1014
  301loPI   C5A 4811   1.015   2.422   8.920  0.0520  0.1265 -0.1376
  301loPI   C6A 4812   0.553   2.400   8.707 -0.0240  0.0100 -0.0573
  301loPI   C1B 4813   1.157   1.946  10.336 -0.0697 -0.0777  0.1097
  301loPI   C2B 4814   1.186   1.990   9.908  0.3569  0.3392 -0.0473
  301loPI   C3B 4815   0.950   1.963   9.539 -0.2136 -0.0238 -0.1043
  301loPI   C4B 4816   1.082   1.918   9.133 -0.1666 -0.0682 -0.2037
  302loPI    C1 4817  12.006   1.762  10.678  0.1018  0.0520  0.0580
  302loPI    C2 4818  12.102   1.497  10.962  0.2096  0.3171  0.2728
  302loPI    C3 4819  11.763   1.707  10.991  0.1677  0.2677  0.1484
  302loPI   PO4 4820  12.084   1.691  10.468  0.0932 -0.2108  0.1955
  302loPI   GL1 4821  12.305   1.694  10.175 -0.0076 -0.3451  0.0579
  302loPI   GL2 4822  12.545   1.965  10.150 -0.0115  0.1666 -0.0934
  302loPI   C1A 4823  12.291   1.405   9.815  0.2661  0.3542 -0.1125
  302loPI   C2A 4824  12.461   1.372   9.311  0.0127 -0.2216  0.0164
  302loPI   C3A 4825  12.672   1.394   8.851 -0.0760  0.0439 -0.1029
  302loPI   C4A 4826  12.775   1.287   8.412 -0.1655 -0.2371  0.2309
  302loPI   C5A 4827  12.868   0.846   8.233  0.0834 -0.3205  0.0908
  302loPI   C6A 4828  13.198   0.590   8.116  0.0097 -0.3964 -0.0372
  302loPI   C1B 4829  12.403   1.939   9.756  0.1694  0.4188 -0.0080
  302loPI   C2B 4830  12.518   1.902   9.315 -0.0386  0.0512 -0.1173
  302loPI   C3B 4831  12.621   1.918   8.909 -0.1891  0.2192  0.2906
  302loPI   C4B 4832  12.754   1.955   8.614  0.0743  0.1435  0.2912
  303loPI    C1 4833  13.432  15.024  11.098  0.0075  0.0022  0.0893
  303loPI    C2 4834  13.143  15.275  10.984 -0.0027 -0.0952 -0.1033
  303loPI    C3 4835  13.156  15.144  11.361  0.1333  0.3681  0.0599
  303loPI   PO4 4836  13.472  14.978  10.871 -0.2567 -0.0316 -0.0041
  303loPI   GL1 4837  13.562  15.099  10.491 -0.0191 -0.1234 -0.4202
  303loPI   GL2 4838  13.385  15.341  10.413 -0.2538  0.1243 -0.1763
  303loPI   C1A 4839  13.477  14.957  10.130  0.1312 -0.1478  0.0493
  303loPI   C2A 4840  13.450  14.921   9.685 -0.3488  0.1625  0.3254
  303loPI   C3A 4841  13.313  14.896   9.296  0.0520 -0.0349  0.1869
  303loPI   C4A 4842  13.409  14.998   8.936 -0.2755  0.2208  0.0796
  303loPI   C5A 4843  13.629  14.811   8.572 -0.0754  0.0677  0.0384
  303loPI   C6A 4844  13.696  14.986   8.215  0.0219 -0.0909 -0.2347
  303loPI   C1B 4845  13.443  15.428   9.880  0.0237  0.1923  0.2644
  303loPI   C2B 4846  13.400  15.377   9.425 -0.1401 -0.0132  0.0801
  303loPI   C3B 4847  13.464  15.448   9.153 -0.0016 -0.1127 -0.0158
  303loPI   C4B 4848  13.602  15.386   8.695  0.0927  0.0548 -0.0043
  304loPI    C1 4849   1.386   5.131  11.814  0.0241  0.1185 -0.0174
  304loPI    C2 4850   1.170   5.214  12.140  0.0296  0.0114  0.0140
  304loPI    C3 4851   1.520   5.024  12.175  0.0097 -0.0392 -0.0579
  304loPI   PO4 4852   1.294   5.333  11.684 -0.0354 -0.2151 -0.2587
  304loPI   GL1 4853   1.455   5.344  11.189 -0.2478 -0.2107 -0.4517
  304loPI   GL2 4854   1.173   5.413  11.164 -0.2547  0.3184 -0.0161
  304loPI   C1A 4855   1.641   5.124  10.846  0.1193 -0.0250 -0.2713
  304loPI   C2A 4856   1.644   5.042  10.509  0.0352  0.0146  0.2563
  304loPI   C3A 4857   1.564   5.157  10.045  0.1646 -0.2075 -0.2117
  304loPI   C4A 4858   1.513   5.086   9.643 -0.1409  0.3522 -0.0978
  304loPI   C5A 4859   1.668   5.143   9.210 -0.1077 -0.0469 -0.1232
  304loPI   C6A 4860   1.938   5.076   8.839 -0.1938  0.0421  0.2616
  304loPI   C1B 4861   1.168   5.359  10.771  0.2120 -0.1228  0.1661
  304loPI   C2B 4862   1.201   5.397  10.252 -0.1517 -0.1046 -0.0762
  304loPI   C3B 4863   1.155   5.445   9.854 -0.0392 -0.2198  0.1420
  304loPI   C4B 4864   1.240   5.398   9.386 -0.1813  0.0630  0.1130
  305loPI    C1 4865  14.057   8.745  11.715  0.0228 -0.0276 -0.0695
  305loPI    C2 4866  14.291   8.528  11.956  0.1092  0.1518  0.0105
  305loPI    C3 4867  13.893   8.492  11.977  0.1227  0.0079  0.0282
  305loPI   PO4 4868  14.165   8.749  11.329  0.1851  0.2319 -0.2264
  305loPI   GL1 4869  14.104   9.001  10.982  0.3715  0.0373 -0.1295
  305loPI   GL2 4870  13.892   8.753  10.908  0.1547 -0.1922 -0.1340
  305loPI   C1A 4871  13.974   9.321  10.597 -0.0352 -0.3216  0.1839
  305loPI   C2A 4872  14.116   9.317  10.159 -0.0514 -0.2841 -0.2753
  305loPI   C3A 4873  14.036   9.316   9.770  0.1285  0.0114 -0.0929
  305loPI   C4A 4874  14.041   9.265   9.377 -0.0011 -0.1248 -0.0490
  305loPI   C5A 4875  14.356   9.238   8.948  0.0384 -0.1599 -0.0826
  305loPI   C6A 4876  14.741   9.209   8.775 -0.1989  0.3176 -0.3083
  305loPI   C1B 4877  13.896   8.775  10.548 -0.1349  0.3276 -0.0696
  305loPI   C2B 4878  13.981   8.815  10.037 -0.0414 -0.2144  0.0415
  305loPI   C3B 4879  13.973   8.825   9.577 -0.1873  0.1210 -0.0385
  305loPI   C4B 4880  13.972   8.778   9.166  0.0814 -0.2124  0.1912
  306loPI    C1 4881   8.482   0.074  10.699  0.0421 -0.0592  0.0164
  306loPI    C2 4882   8.799  -0.148  10.601  0.0710 -0.0349  0.0540
  306loPI    C3 4883   8.489  -0.316  10.789  0.0409 -0.0691 -0.0257
  306loPI   PO4 4884   8.505   0.281  10.443  0.2415 -0.2433 -0.2253
  306loPI   GL1 4885   8.441   0.270  10.060 -0.2481  0.0199 -0.2507
  306loPI   GL2 4886   8.797   0.339  10.068  0.1524  0.0344  0.1153
  306loPI   C1A 4887   8.258   0.366   9.630 -0.1024 -0.0382 -0.1137
  306loPI   C2A 4888   8.283   0.432   9.177 -0.2326  0.0167 -0.2931
  306loPI   C3A 4889   8.237   0.402   8.840 -0.4583  0.2334 -0.0028
  306loPI   C4A 4890   8.291   0.388   8.409  0.2123  0.0137  0.0208
  306loPI   C5A 4891   8.091   0.532   8.052 -0.0241  0.1223 -0.1254
  306loPI   C6A 4892   8.282   0.600   7.619  0.1292 -0.0973 -0.1835
  306loPI   C1B 4893   8.702   0.483   9.714  0.0085 -0.0435  0.1468
  306loPI   C2B 4894   8.795   0.561   9.273  0.2441  0.1410 -0.0055
  306loPI   C3B 4895   8.716   0.547   8.819  0.0650 -0.0918 -0.3684
  306loPI   C4B 4896   8.844   0.659   8.494 -0.2501  0.0036  0.1611
  307loPI    C1 4897  12.885   6.895  11.366 -0.0755 -0.0952  0.0666
  307loPI    C2 4898  12.735   6.904  11.737 -0.1571 -0.0082  0.0319
  307loPI    C3 4899  12.914   6.573  11.601 -0.2066 -0.0706  0.1177
  307loPI   PO4 4900  12.754   6.976  11.193  0.1632  0.0275  0.2310
  307loPI   GL1 4901  12.590   7.118  10.846  0.0093 -0.1949  0.0744
  307loPI   GL2 4902  12.508   6.768  10.779  0.5317 -0.0379 -0.0009
  307loPI   C1A 4903  12.881   7.108  10.572 -0.2160  0.1295 -0.0131
  307loPI   C2A 4904  12.904   7.186  10.145  0.0899  0.1904  0.2147
  307loPI   C3A 4905  12.840   7.363   9.707 -0.1679  0.0214  0.0300
  307loPI   C4A 4906  12.760   7.422   9.333  0.0866 -0.0195  0.1140
  307loPI   C5A 4907  12.929   7.320   9.042 -0.0917 -0.0768  0.1255
  307loPI   C6A 4908  12.766   7.434   8.635 -0.0717  0.3416 -0.5108
  307loPI   C1B 4909  12.510   6.930  10.364  0.0713  0.0797 -0.0711
  307loPI   C2B 4910  12.449   6.940   9.935  0.2088 -0.2907  0.0426
  307loPI   C3B 4911  12.384   7.057   9.501 -0.2961  0.1208  0.0248
  307loPI   C4B 4912  12.313   7.144   9.179  0.2473 -0.3122 -0.2697
  308loPI    C1 4913  10.324   9.090  11.534 -0.0169  0.4317  0.0957
  308loPI    C2 4914  10.678   9.041  11.714  0.0547  0.2198 -0.0971
  308loPI    C3 4915  10.340   9.011  11.926  0.1488  0.3686  0.0771
  308loPI   PO4 4916  10.427   9.056  11.258  0.3158 -0.0032  0.0319
  308loPI   GL1 4917  10.572   9.138  10.874  0.0842 -0.0038 -0.1026
  308loPI   GL2 4918  10.777   8.913  10.738 -0.1290  0.1055 -0.2272
  308loPI   C1A 4919  10.446   9.232  10.499 -0.0574  0.1826  0.2434
  308loPI   C2A 4920  10.415   9.172  10.014 -0.2042 -0.2578 -0.0361
  308loPI   C3A 4921  10.377   9.298   9.609  0.2151 -0.0532  0.3126
  308loPI   C4A 4922  10.413   9.185   9.177 -0.1644  0.2696 -0.2387
  308loPI   C5A 4923  10.401   9.175   8.750  0.0268 -0.0186  0.0239
  308loPI   C6A 4924  10.300   8.777   8.591 -0.0353  0.1950 -0.0944
  308loPI   C1B 4925  10.822   8.961  10.230 -0.2627  0.0420 -0.2670
  308loPI   C2B 4926  10.834   8.896   9.823 -0.1249 -0.1464 -0.0524
  308loPI   C3B 4927  10.732   8.884   9.494  0.0220 -0.4122  0.2544
  308loPI   C4B 4928  10.785   8.909   8.988  0.0387  0.1532 -0.1648
  309loPI    C1 4929   5.490   2.007  11.222  0.0138 -0.0544 -0.2177
  309loPI    C2 4930   5.428   1.623  11.317  0.1162 -0.1011 -0.3361
  309loPI    C3 4931   5.244   1.913  11.523  0.1107 -0.2099 -0.1861
  309loPI   PO4 4932   5.485   1.980  10.948 -0.2712  0.3306  0.0726
  309loPI   GL1 4933   5.241   1.977  10.531  0.0371 -0.2880 -0.1125
  309loPI   GL2 4934   5.186   1.641  10.546 -0.0567  0.0303 -0.0481
  309loPI   C1A 4935   5.228   2.054  10.100 -0.1497  0.2095  0.5067
  309loPI   C2A 4936   5.193   2.141   9.636  0.0928  0.2406  0.0179
  309loPI   C3A 4937   5.326   2.191   9.235 -0.0164  0.0492 -0.1317
  309loPI   C4A 4938   5.279   2.358   8.853  0.0551  0.1998  0.2275
  309loPI   C5A 4939   5.231   2.186   8.442 -0.2036 -0.0099 -0.0107
  309loPI   C6A 4940   5.586   2.037   8.296 -0.1301 -0.3072 -0.0380
  309loPI   C1B 4941   5.086   1.559  10.176 -0.1672 -0.3717 -0.2233
  309loPI   C2B 4942   5.143   1.673   9.744  0.0793 -0.1375  0.1453
  309loPI   C3B 4943   5.154   1.723   9.255 -0.1784 -0.0885 -0.2072
  309loPI   C4B 4944   5.186   1.856   8.789 -0.0656  0.1684  0.0029
  310loPI    C1 4945   1.008   0.012  11.040 -0.0077 -0.0443  0.1443
  310loPI    C2 4946   0.798  -0.103  11.361 -0.1220 -0.0229  0.0777
  310loPI    C3 4947   1.014   0.233  11.373 -0.2056  0.0305  0.1001
  310loPI   PO4 4948   1.054  -0.124  10.913 -0.2441  0.5103 -0.0116
  310loPI   GL1 4949   0.827  -0.304  10.520  0.1774  0.0087  0.0125
  310loPI   GL2 4950   1.106  -0.484  10.572  0.0691  0.3448 -0.2659
  310loPI   C1A 4951   0.781  -0.198  10.071 -0.1572  0.1972  0.3230
  310loPI   C2A 4952   0.900  -0.167   9.713  0.2487  0.0280 -0.2598
  310loPI   C3A 4953   0.772  -0.144   9.257  0.0210 -0.0537  0.1418
  310loPI   C4A 4954   0.679  -0.115   8.836 -0.0611 -0.0912  0.1214
  310loPI   C5A 4955   0.498  -0.315   8.576 -0.0062  0.0403  0.0789
  310loPI   C6A 4956   0.137  -0.371   8.431  0.1004 -0.0591  0.0724
  310loPI   C1B 4957   1.135  -0.670  10.259 -0.0838 -0.0868  0.0240
  310loPI   C2B 4958   1.277  -0.549   9.949  0.0529 -0.1629 -0.0315
  310loPI   C3B 4959   1.213  -0.490   9.576 -0.0911  0.1565 -0.0124
  310loPI   C4B 4960   1.286  -0.570   9.141 -0.2497 -0.0176  0.0244
  311loPI    C1 4961   6.648  10.246  11.083  0.1831  0.0431  0.0439
  311loPI    C2 4962   6.359  10.112  11.325  0.1417 -0.0615 -0.0626
  311loPI    C3 4963   6.462  10.498  11.331 -0.1651  0.0259 -0.1919
  311loPI   PO4 4964   6.608  10.126  10.811 -0.1382 -0.0840  0.1035
  311loPI   GL1 4965   6.626   9.982  10.388 -0.0019  0.2585  0.1105
  311loPI   GL2 4966   6.231   9.982  10.443  0.4426  0.0263 -0.1067
  311loPI   C1A 4967   6.496   9.878  10.007  0.1273  0.2760 -0.3748
  311loPI   C2A 4968   6.437   9.969   9.607  0.0478 -0.1992  0.0989
  311loPI   C3A 4969   6.404  10.003   9.226  0.0391  0.2612  0.1954
  311loPI   C4A 4970   6.454  10.153   8.793 -0.3274  0.3173  0.1793
  311loPI   C5A 4971   6.820   9.936   8.603 -0.1060  0.0562  0.1782
  311loPI   C6A 4972   7.161   9.711   8.476  0.2927 -0.1602  0.0380
  311loPI   C1B 4973   6.036   9.753  10.172  0.1470 -0.0816  0.2119
  311loPI   C2B 4974   6.015   9.751   9.813 -0.1984  0.0945 -0.1151
  311loPI   C3B 4975   5.955   9.775   9.424 -0.0742 -0.1526  0.2834
  311loPI   C4B 4976   5.882   9.808   9.121  0.2328 -0.1430  0.3792
  312loPI    C1 4977  17.094   3.614  11.637  0.1300 -0.0300 -0.1804
  312loPI    C2 4978  16.719   3.750  11.601  0.1488  0.0172 -0.2013
  312loPI    C3 4979  16.924   3.814  11.939  0.1315 -0.0254 -0.1825
  312loPI   PO4 4980  17.221   3.601  11.371 -0.1471  0.0152  0.2058
  312loPI   GL1 4981  17.222   3.495  10.824  0.0985 -0.1064 -0.2358
  312loPI   GL2 4982  17.203   3.861  10.867 -0.0674 -0.0266  0.0080
  312loPI   C1A 4983  17.617   3.662  10.657  0.0850 -0.0614 -0.0122
  312loPI   C2A 4984  17.622   3.495  10.246 -0.4051 -0.0336 -0.0766
  312loPI   C3A 4985  17.515   3.460   9.842  0.3268  0.1333 -0.2479
  312loPI   C4A 4986  17.563   3.482   9.395 -0.2910 -0.1309  0.2276
  312loPI   C5A 4987  17.591   3.562   9.000 -0.0534  0.3447  0.0929
  312loPI   C6A 4988  17.672   3.488   8.580 -0.1809  0.3378 -0.0956
  312loPI   C1B 4989  17.208   3.803  10.424  0.0105 -0.0840  0.4330
  312loPI   C2B 4990  17.211   3.855  10.019 -0.3711 -0.0137  0.0082
  312loPI   C3B 4991  17.210   3.850   9.636 -0.0608  0.1812 -0.0269
  312loPI   C4B 4992  17.165   3.914   9.136 -0.0951  0.1496 -0.1321
  313loPI    C1 4993  10.760  15.742  10.488  0.2001 -0.0573  0.0677
  313loPI    C2 4994  11.049  15.865  10.736  0.1009  0.0137  0.1491
  313loPI    C3 4995  10.938  15.480  10.732  0.1722 -0.0068  0.1426
  313loPI   PO4 4996  10.756  15.857  10.281  0.1781  0.4481 -0.1590
  313loPI   GL1 4997  10.862  15.671   9.929  0.2326  0.0868 -0.2721
  313loPI   GL2 4998  11.014  15.969   9.829 -0.1507  0.3196  0.1214
  313loPI   C1A 4999  11.022  15.566   9.550 -0.0457  0.3447  0.1817
  313loPI   C2A 5000  11.136  15.274   9.314  0.1516 -0.1567 -0.0264
  313loPI   C3A 5001  11.195  15.276   8.879  0.2071 -0.1664  0.2657
  313loPI   C4A 5002  11.457  15.230   8.491 -0.0584  0.0583  0.2785
  313loPI   C5A 5003  11.843  15.413   8.296  0.0180 -0.1685  0.1841
  313loPI   C6A 5004  12.035  15.843   8.174  0.1342 -0.2530 -0.2704
  313loPI   C1B 5005  11.117  16.116   9.502 -0.2154 -0.1231 -0.0003
  313loPI   C2B 5006  11.116  16.159   9.121 -0.1304 -0.3882  0.0168
  313loPI   C3B 5007  10.949  15.993   8.706 -0.0398  0.1096  0.0919
  313loPI   C4B 5008  11.050  15.627   8.523 -0.2023  0.0213 -0.0415
  314loPI    C1 5009   8.290  11.925  10.998  0.0552  0.0574  0.4257
  314loPI    C2 5010   7.936  12.079  11.101 -0.1296 -0.0091 -0.0822
  314loPI    C3 5011   8.270  12.292  11.154 -0.2881  0.2154  0.0283
  314loPI   PO4 5012   8.197  11.785  10.785 -0.2024 -0.1433  0.2607
  314loPI   GL1 5013   8.138  11.817  10.391 -0.1278  0.1628 -0.0392
  314loPI   GL2 5014   7.872  11.581  10.462 -0.2583  0.1318 -0.3354
  314loPI   C1A 5015   8.088  11.615   9.993 -0.4953  0.0562  0.2451
  314loPI   C2A 5016   8.043  11.600   9.618 -0.0038 -0.2872  0.0515
  314loPI   C3A 5017   7.928  11.530   9.254  0.1332 -0.1370 -0.0062
  314loPI   C4A 5018   7.921  11.519   8.814 -0.2873 -0.0766 -0.0398
  314loPI   C5A 5019   7.957  11.516   8.399  0.1358  0.1503  0.0239
  314loPI   C6A 5020   7.980  11.329   8.034 -0.0191  0.2601 -0.1529
  314loPI   C1B 5021   7.602  11.552  10.163 -0.1519 -0.0188  0.1723
  314loPI   C2B 5022   7.541  11.497   9.764 -0.1033  0.1161 -0.0277
  314loPI   C3B 5023   7.491  11.423   9.279  0.0624 -0.1974  0.1433
  314loPI   C4B 5024   7.504  11.217   8.805  0.1601  0.1818  0.2829
  315loPI    C1 5025  11.674   5.323  11.336  0.1025  0.0839  0.0840
  315loPI    C2 5026  11.777   4.984  11.152 -0.0233  0.1232 -0.0600
  315loPI    C3 5027  11.749   4.994  11.550 -0.0615 -0.0472 -0.0576
  315loPI   PO4 5028  11.802   5.483  11.181 -0.1712 -0.0080 -0.0806
  315loPI   GL1 5029  11.825   5.446  10.760  0.0248  0.2535  0.2374
  315loPI   GL2 5030  11.504   5.268  10.801  0.2415 -0.0017  0.0966
  315loPI   C1A 5031  11.869   5.702  10.426 -0.0083 -0.3383 -0.1245
  315loPI   C2A 5032  11.843   5.696   9.948  0.0514 -0.0813 -0.0196
  315loPI   C3A 5033  11.892   5.754   9.485 -0.0559 -0.0506 -0.1376
  315loPI   C4A 5034  11.787   5.800   9.041  0.1314 -0.0038 -0.1016
  315loPI   C5A 5035  11.490   5.748   8.618 -0.0830  0.0171  0.0289
  315loPI   C6A 5036  11.128   5.548   8.533  0.1731  0.1104 -0.0995
  315loPI   C1B 5037  11.390   5.453  10.440  0.2239  0.1976 -0.0073
  315loPI   C2B 5038  11.331   5.612   9.961  0.3131  0.1666 -0.0330
  315loPI   C3B 5039  11.332   5.645   9.609 -0.0232  0.1963 -0.0722
  315loPI   C4B 5040  11.257   5.753   9.147 -0.0145 -0.0458  0.1785
  316loPI    C1 5041  11.744   2.194  10.830 -0.3769  0.2358 -0.1529
  316loPI    C2 5042  11.736   2.532  11.043  0.0237  0.0515  0.1674
  316loPI    C3 5043  11.436   2.269  11.074 -0.1073  0.2034  0.2039
  316loPI   PO4 5044  11.777   2.230  10.523 -0.6194 -0.0378 -0.2483
  316loPI   GL1 5045  11.789   1.974  10.140 -0.1431 -0.0739 -0.1929
  316loPI   GL2 5046  12.044   2.089  10.137  0.2326  0.0728  0.3223
  316loPI   C1A 5047  11.885   1.701   9.824 -0.0561  0.0122 -0.0469
  316loPI   C2A 5048  12.072   1.736   9.456  0.2103 -0.3049  0.0467
  316loPI   C3A 5049  11.962   1.753   9.065 -0.1439 -0.0717 -0.1469
  316loPI   C4A 5050  11.911   1.616   8.597 -0.3404  0.2238 -0.0493
  316loPI   C5A 5051  12.021   1.848   8.242  0.2511 -0.1360 -0.2313
  316loPI   C6A 5052  11.722   1.918   7.992 -0.2770  0.0056 -0.0329
  316loPI   C1B 5053  11.993   2.210   9.713 -0.0937  0.0397  0.1815
  316loPI   C2B 5054  12.035   2.226   9.264 -0.2804  0.0161 -0.3069
  316loPI   C3B 5055  12.066   2.179   8.789  0.0026  0.0561 -0.1260
  316loPI   C4B 5056  12.314   2.188   8.477  0.1737  0.1475 -0.0565
  317loPI    C1 5057  15.940   1.138  11.355 -0.1386  0.1437  0.0295
  317loPI    C2 5058  15.563   1.085  11.232 -0.1120 -0.0508  0.0281
  317loPI    C3 5059  15.678   0.949  11.591  0.0300 -0.2539 -0.0922
  317loPI   PO4 5060  16.033   1.321  11.206 -0.0336  0.0569  0.0870
  317loPI   GL1 5061  16.132   1.414  10.784 -0.1190 -0.1493  0.0361
  317loPI   GL2 5062  16.452   1.653  10.683 -0.1311  0.0598  0.2549
  317loPI   C1A 5063  15.985   1.230  10.343 -0.1591  0.0243 -0.1663
  317loPI   C2A 5064  16.141   1.017  10.010  0.0358  0.3130  0.0175
  317loPI   C3A 5065  16.164   1.038   9.573 -0.2308  0.0784  0.1225
  317loPI   C4A 5066  16.377   0.976   9.190  0.3251  0.1564  0.0401
  317loPI   C5A 5067  16.536   0.935   8.829  0.0600 -0.3653  0.0763
  317loPI   C6A 5068  16.767   0.620   8.694  0.1591 -0.1152 -0.0274
  317loPI   C1B 5069  16.258   1.604  10.200 -0.1582 -0.1673  0.3388
  317loPI   C2B 5070  16.267   1.619   9.766 -0.1868 -0.1025  0.2070
  317loPI   C3B 5071  16.406   1.438   9.367 -0.2110 -0.1375  0.0265
  317loPI   C4B 5072  16.470   1.430   8.889  0.1575 -0.1159 -0.2430
  318loPI    C1 5073   0.041  10.394  11.513  0.0050 -0.0703 -0.0696
  318loPI    C2 5074   0.019  10.774  11.391 -0.2528 -0.0366  0.0735
  318loPI    C3 5075  -0.094  10.676  11.762  0.2498 -0.1826  0.1961
  318loPI   PO4 5076  -0.092  10.296  11.250  0.2378  0.1660 -0.2431
  318loPI   GL1 5077   0.120  10.232  10.835 -0.3821 -0.2065 -0.0500
  318loPI   GL2 5078   0.034   9.860  10.799  0.0894  0.0596 -0.0016
  318loPI   C1A 5079   0.150  10.246  10.369 -0.2370 -0.1332 -0.1817
  318loPI   C2A 5080   0.178  10.272   9.978 -0.1340 -0.0675  0.3313
  318loPI   C3A 5081   0.054  10.362   9.466  0.1283  0.1282  0.1872
  318loPI   C4A 5082   0.064  10.328   8.991 -0.1311  0.0078  0.1168
  318loPI   C5A 5083  -0.182  10.384   8.651  0.1091 -0.0308  0.0960
  318loPI   C6A 5084  -0.311  10.651   8.382  0.0343 -0.0262 -0.0523
  318loPI   C1B 5085   0.109   9.744  10.401  0.1015 -0.1410  0.0800
  318loPI   C2B 5086   0.121   9.798   9.936  0.1385 -0.0112 -0.1162
  318loPI   C3B 5087   0.107   9.729   9.561  0.0403  0.2884  0.1396
  318loPI   C4B 5088   0.012   9.882   9.215  0.0103  0.2427 -0.0228
  319loPI    C1 5089   7.842  15.401  10.548 -0.1499 -0.1115  0.2518
  319loPI    C2 5090   8.216  15.259  10.553 -0.1785 -0.2125 -0.1308
  319loPI    C3 5091   7.964  15.169  10.851  0.1808  0.0920  0.2792
  319loPI   PO4 5092   7.663  15.368  10.232 -0.2615  0.0689  0.3814
  319loPI   GL1 5093   7.608  15.061   9.779 -0.0172 -0.0130 -0.1943
  319loPI   GL2 5094   7.864  14.903   9.674  0.2449  0.0331  0.1320
  319loPI   C1A 5095   7.235  15.156   9.545 -0.0927 -0.0326 -0.3854
  319loPI   C2A 5096   7.207  15.228   9.225 -0.0506 -0.2171 -0.2227
  319loPI   C3A 5097   7.220  15.122   8.817  0.1742 -0.1326  0.0568
  319loPI   C4A 5098   7.047  15.272   8.384 -0.1557  0.1491 -0.2541
  319loPI   C5A 5099   6.959  15.114   7.967  0.0225  0.0649  0.0644
  319loPI   C6A 5100   6.969  14.671   7.963 -0.4674  0.0067 -0.2150
  319loPI   C1B 5101   7.808  14.899   9.307 -0.0242  0.2881 -0.2569
  319loPI   C2B 5102   7.693  14.846   8.860 -0.0907 -0.0604 -0.1376
  319loPI   C3B 5103   7.686  14.927   8.548  0.3708  0.0402  0.2135
  319loPI   C4B 5104   7.392  14.886   8.231  0.1965  0.2884  0.1598
  320loPI    C1 5105  16.741  12.901  11.145  0.1099 -0.0883  0.2100
  320loPI    C2 5106  16.410  12.985  11.354  0.0202 -0.0606  0.0581
  320loPI    C3 5107  16.679  13.272  11.281  0.0471 -0.0682  0.1270
  320loPI   PO4 5108  16.641  12.755  10.913 -0.1932  0.0551 -0.0145
  320loPI   GL1 5109  16.298  12.837  10.549 -0.3199 -0.3022 -0.0968
  320loPI   GL2 5110  16.377  13.102  10.352 -0.0039  0.2620 -0.2586
  320loPI   C1A 5111  16.266  12.554  10.268 -0.1692 -0.2783 -0.0219
  320loPI   C2A 5112  16.364  12.526   9.847  0.3134  0.0134 -0.0782
  320loPI   C3A 5113  16.358  12.606   9.336  0.1041  0.2292 -0.1085
  320loPI   C4A 5114  16.339  12.732   8.932  0.3211 -0.1134 -0.1841
  320loPI   C5A 5115  16.019  12.829   8.495  0.1151 -0.0135 -0.1776
  320loPI   C6A 5116  15.962  12.598   8.130  0.0110  0.0443 -0.3206
  320loPI   C1B 5117  16.448  13.071   9.844  0.0073  0.1050  0.0018
  320loPI   C2B 5118  16.459  13.122   9.404 -0.1045 -0.1764 -0.0016
  320loPI   C3B 5119  16.398  13.255   9.013 -0.1955 -0.2242  0.0171
  320loPI   C4B 5120  16.461  13.101   8.607 -0.1511 -0.1500  0.0255
  321loPI    C1 5121  10.158   7.501  11.474  0.2220 -0.0982  0.0131
  321loPI    C2 5122  10.292   7.826  11.663 -0.1357  0.1298 -0.1141
  321loPI    C3 5123   9.927   7.685  11.744 -0.0333 -0.1650 -0.1557
  321loPI   PO4 5124  10.093   7.420  11.230  0.2270 -0.1945  0.2621
  321loPI   GL1 5125  10.011   7.581  10.854  0.1140  0.0656  0.0314
  321loPI   GL2 5126   9.991   7.165  10.756 -0.3827  0.3463 -0.0787
  321loPI   C1A 5127   9.853   7.830  10.678 -0.1621 -0.1347  0.3764
  321loPI   C2A 5128   9.837   7.942  10.191 -0.1255 -0.0588 -0.0088
  321loPI   C3A 5129   9.824   7.937   9.733  0.0962 -0.0557  0.1713
  321loPI   C4A 5130   9.752   7.991   9.349  0.2743 -0.4131 -0.3288
  321loPI   C5A 5131   9.779   8.045   8.933 -0.0478  0.1833  0.1086
  321loPI   C6A 5132   9.674   7.918   8.578 -0.3440 -0.1440 -0.0922
  321loPI   C1B 5133   9.815   7.366  10.363 -0.2215 -0.1896  0.1019
  321loPI   C2B 5134   9.758   7.447   9.885 -0.2921 -0.0020 -0.0832
  321loPI   C3B 5135   9.782   7.392   9.454  0.2849 -0.0732  0.2412
  321loPI   C4B 5136   9.694   7.529   8.978  0.1031 -0.1123 -0.2012
  322loPI    C1 5137   4.814  16.718  11.296  0.3560  0.2734 -0.0773
  322loPI    C2 5138   4.782  17.099  11.415 -0.1431  0.1995  0.0459
  322loPI    C3 5139   4.782  16.804  11.685 -0.1936  0.0892 -0.0732
  322loPI   PO4 5140   4.655  16.704  11.081 -0.2848  0.0696 -0.1340
  322loPI   GL1 5141   4.602  16.573  10.713 -0.0847 -0.5125 -0.1018
  322loPI   GL2 5142   4.504  16.855  10.610  0.1694 -0.1885 -0.2985
  322loPI   C1A 5143   4.755  16.681  10.216 -0.0123 -0.0349 -0.1024
  322loPI   C2A 5144   4.666  16.614   9.791 -0.0471 -0.2441 -0.1014
  322loPI   C3A 5145   4.686  16.620   9.419  0.2918 -0.1900  0.0073
  322loPI   C4A 5146   4.506  16.699   9.008 -0.0347  0.2109 -0.0926
  322loPI   C5A 5147   4.467  16.612   8.580  0.1297 -0.0274  0.1035
  322loPI   C6A 5148   4.706  16.699   8.185  0.0218 -0.1475 -0.1043
  322loPI   C1B 5149   4.347  16.940  10.182 -0.1783 -0.0578 -0.2081
  322loPI   C2B 5150   4.268  16.828   9.688  0.1858 -0.0652  0.1019
  322loPI   C3B 5151   4.295  16.980   9.380 -0.0725  0.4542  0.1889
  322loPI   C4B 5152   4.199  17.149   8.929 -0.2169  0.1132 -0.1739
  323loPI    C1 5153   4.588  13.536  11.338  0.0345  0.1178 -0.1130
  323loPI    C2 5154   4.659  13.835  11.594  0.1545  0.0411 -0.0560
  323loPI    C3 5155   4.940  13.727  11.330  0.0921  0.0124 -0.1111
  323loPI   PO4 5156   4.315  13.617  11.171  0.3167  0.3751 -0.2083
  323loPI   GL1 5157   4.160  13.416  10.826 -0.2739 -0.4078 -0.2667
  323loPI   GL2 5158   4.099  13.069  10.781 -0.0124  0.1018  0.1497
  323loPI   C1A 5159   4.221  13.492  10.446 -0.2817  0.2596  0.3074
  323loPI   C2A 5160   4.248  13.426   9.942 -0.0881  0.1466  0.1011
  323loPI   C3A 5161   4.324  13.465   9.477 -0.0380 -0.2622 -0.0209
  323loPI   C4A 5162   4.333  13.531   9.012 -0.0757  0.0699  0.1858
  323loPI   C5A 5163   4.295  13.760   8.610  0.0395  0.0868 -0.2740
  323loPI   C6A 5164   4.072  14.267   8.556  0.5450 -0.3034 -0.0541
  323loPI   C1B 5165   3.743  12.775  10.591 -0.1844 -0.0596  0.0329
  323loPI   C2B 5166   3.665  12.742  10.217  0.1872 -0.0383  0.3734
  323loPI   C3B 5167   3.782  12.699   9.814  0.0296 -0.0431 -0.1380
  323loPI   C4B 5168   3.783  12.756   9.374  0.4141  0.0312  0.1275
  324loPI    C1 5169  15.879   4.701  11.662 -0.0948 -0.2653 -0.0382
  324loPI    C2 5170  15.571   4.454  11.727 -0.3233  0.0253  0.0058
  324loPI    C3 5171  15.668   4.729  12.001 -0.0128 -0.0729 -0.0018
  324loPI   PO4 5172  15.837   4.737  11.402 -0.1952  0.2202  0.1537
  324loPI   GL1 5173  15.707   4.680  11.055 -0.0058  0.1055 -0.2267
  324loPI   GL2 5174  16.082   4.848  10.989 -0.1386 -0.1263 -0.0103
  324loPI   C1A 5175  15.510   4.662  10.671  0.0475  0.1610 -0.2942
  324loPI   C2A 5176  15.486   4.638  10.228  0.0141  0.1840 -0.0206
  324loPI   C3A 5177  15.506   4.752   9.784 -0.1224 -0.0149 -0.0896
  324loPI   C4A 5178  15.405   4.730   9.367 -0.0513 -0.3518  0.1237
  324loPI   C5A 5179  15.180   4.923   8.987  0.4309  0.0953 -0.1847
  324loPI   C6A 5180  15.208   5.360   8.732  0.0321 -0.0639 -0.4335
  324loPI   C1B 5181  15.980   4.786  10.641  0.1920  0.1668  0.3429
  324loPI   C2B 5182  15.995   4.876  10.193 -0.2446  0.1982 -0.0339
  324loPI   C3B 5183  16.052   4.913   9.742  0.2965  0.0883 -0.2055
  324loPI   C4B 5184  15.893   4.935   9.256 -0.0568  0.0200  0.0702
  325loPI    C1 5185  15.868  13.257  10.939 -0.3150  0.1114  0.1585
  325loPI    C2 5186  16.253  13.151  10.910 -0.3549 -0.0503  0.2068
  325loPI    C3 5187  16.090  13.389  10.633 -0.2292 -0.0073  0.1688
  325loPI   PO4 5188  15.728  12.998  10.881  0.0995 -0.0889  0.0422
  325loPI   GL1 5189  15.553  12.556  10.637 -0.3579  0.0410 -0.1975
  325loPI   GL2 5190  15.859  12.590  10.630  0.0286  0.1244 -0.1575
  325loPI   C1A 5191  15.409  12.810  10.278  0.0559  0.1575  0.2667
  325loPI   C2A 5192  15.410  12.809   9.906  0.1315 -0.2060 -0.3311
  325loPI   C3A 5193  15.474  12.807   9.476  0.1715 -0.1913  0.3381
  325loPI   C4A 5194  15.387  12.709   9.112 -0.2208 -0.0686  0.0364
  325loPI   C5A 5195  15.453  12.643   8.670  0.2347 -0.3195 -0.0469
  325loPI   C6A 5196  15.629  12.407   8.445  0.1149  0.0256 -0.2771
  325loPI   C1B 5197  15.786  12.483  10.218  0.4315  0.1162  0.0507
  325loPI   C2B 5198  15.780  12.420   9.723  0.1231  0.3555  0.1690
  325loPI   C3B 5199  15.876  12.456   9.318 -0.1319 -0.0869  0.0398
  325loPI   C4B 5200  15.871  12.422   8.897 -0.1781  0.0128 -0.2349
  326loPI    C1 5201  16.002  12.164  11.312  0.4699  0.0316 -0.0132
  326loPI    C2 5202  16.114  12.511  11.476  0.0818  0.0673  0.1869
  326loPI    C3 5203  15.907  12.245  11.692 -0.0403 -0.0822 -0.1093
  326loPI   PO4 5204  15.998  12.212  11.040  0.1218 -0.1541 -0.1513
  326loPI   GL1 5205  15.956  11.874  10.794  0.0141 -0.2140  0.2190
  326loPI   GL2 5206  16.022  11.553  10.888  0.1745  0.0784  0.0556
  326loPI   C1A 5207  15.696  11.963  10.406  0.1172 -0.1737  0.0348
  326loPI   C2A 5208  15.658  11.960   9.963 -0.1180 -0.2496 -0.1011
  326loPI   C3A 5209  15.755  11.958   9.528  0.3180 -0.0009 -0.3042
  326loPI   C4A 5210  15.755  11.879   9.082  0.1706  0.1152 -0.0616
  326loPI   C5A 5211  16.027  11.634   8.749  0.2306  0.1216  0.1814
  326loPI   C6A 5212  16.313  11.380   8.497  0.2194 -0.2260  0.0988
  326loPI   C1B 5213  16.191  11.559  10.499 -0.0055  0.2104  0.1773
  326loPI   C2B 5214  16.157  11.538  10.086 -0.5345 -0.0258  0.1943
  326loPI   C3B 5215  16.169  11.637   9.643  0.0230  0.1301 -0.0577
  326loPI   C4B 5216  16.106  11.521   9.244  0.1130  0.0350  0.0911
  327loPI    C1 5217  10.280   1.702  10.819  0.0953 -0.0693 -0.1486
  327loPI    C2 5218  10.349   1.770  11.207  0.2923  0.1701 -0.2233
  327loPI    C3 5219  10.247   1.404  11.083  0.0526  0.1318  0.0762
  327loPI   PO4 5220  10.456   1.775  10.693  0.0926  0.2805 -0.0235
  327loPI   GL1 5221  10.480   1.876  10.285 -0.0589 -0.2546  0.1092
  327loPI   GL2 5222  10.531   2.174  10.090 -0.1925  0.1416  0.0550
  327loPI   C1A 5223  10.542   1.753   9.850  0.4077 -0.0342  0.0440
  327loPI   C2A 5224  10.550   1.924   9.459  0.1508  0.0665  0.0645
  327loPI   C3A 5225  10.578   1.947   9.009  0.0489 -0.0651 -0.1326
  327loPI   C4A 5226  10.605   2.052   8.621  0.0826  0.0512  0.0526
  327loPI   C5A 5227  10.530   1.988   8.109  0.1599 -0.0818  0.2400
  327loPI   C6A 5228  10.258   1.746   7.794 -0.1764  0.1208 -0.0380
  327loPI   C1B 5229  10.329   2.224   9.746 -0.1130 -0.1118 -0.0898
  327loPI   C2B 5230  10.314   2.312   9.362  0.0660 -0.4841  0.1765
  327loPI   C3B 5231  10.294   2.414   8.975 -0.1467  0.1229  0.1873
  327loPI   C4B 5232  10.330   2.820   8.764  0.0962  0.0540 -0.0845
  328loPI    C1 5233   8.183  11.480  11.249  0.0320 -0.3004 -0.3055
  328loPI    C2 5234   8.324  11.315  11.585  0.0081 -0.0127 -0.1513
  328loPI    C3 5235   8.368  11.707  11.521 -0.2063 -0.0220 -0.3715
  328loPI   PO4 5236   8.092  11.272  11.124  0.0641  0.0602  0.2085
  328loPI   GL1 5237   8.143  11.291  10.738  0.3044 -0.0323  0.0096
  328loPI   GL2 5238   8.393  11.359  10.499  0.1698  0.1465  0.2486
  328loPI   C1A 5239   8.043  11.093  10.311  0.1913  0.1726 -0.1994
  328loPI   C2A 5240   8.015  11.104   9.909  0.1670  0.1637 -0.0029
  328loPI   C3A 5241   7.905  11.080   9.470 -0.2727  0.0124  0.0422
  328loPI   C4A 5242   7.892  11.054   9.077 -0.0992 -0.0167 -0.0190
  328loPI   C5A 5243   7.895  10.880   8.638 -0.0021 -0.0769  0.1624
  328loPI   C6A 5244   8.138  11.088   8.441  0.0808  0.0686  0.1776
  328loPI   C1B 5245   8.440  11.297  10.082  0.2400 -0.1684  0.1566
  328loPI   C2B 5246   8.390  11.215   9.638 -0.2271  0.0515 -0.1820
  328loPI   C3B 5247   8.410  11.234   9.265 -0.1789  0.0214  0.2379
  328loPI   C4B 5248   8.573  11.169   8.796 -0.0367  0.0204 -0.2391
  329loPI    C1 5249   2.681  13.521  11.080 -0.2493 -0.2069 -0.0127
  329loPI    C2 5250   2.571  13.844  11.288 -0.1027 -0.1807  0.0254
  329loPI    C3 5251   2.830  13.584  11.446  0.0624 -0.1254 -0.1497
  329loPI   PO4 5252   2.508  13.319  11.023  0.0678  0.1414  0.0531
  329loPI   GL1 5253   2.495  13.143  10.663 -0.0804  0.1656  0.0055
  329loPI   GL2 5254   2.792  12.938  10.577  0.0440  0.3014 -0.1334
  329loPI   C1A 5255   2.427  13.132  10.250  0.0503  0.1511  0.0047
  329loPI   C2A 5256   2.435  13.149   9.778 -0.1982 -0.2083 -0.1566
  329loPI   C3A 5257   2.459  13.179   9.314 -0.3103  0.0851 -0.1783
  329loPI   C4A 5258   2.358  13.196   8.842 -0.3080  0.0356 -0.3167
  329loPI   C5A 5259   2.089  13.522   8.651  0.1212  0.0847 -0.1241
  329loPI   C6A 5260   1.873  13.825   8.571  0.1107 -0.1254  0.0665
  329loPI   C1B 5261   2.884  12.849  10.098 -0.0190  0.1524 -0.2402
  329loPI   C2B 5262   2.882  12.882   9.713  0.1297  0.2367 -0.0237
  329loPI   C3B 5263   2.949  12.904   9.271 -0.2727 -0.0843 -0.0413
  329loPI   C4B 5264   3.007  13.020   8.820  0.0571  0.1986 -0.1495
  330loPI    C1 5265   3.197  15.812  11.116  0.1034 -0.0783 -0.2871
  330loPI    C2 5266   3.472  16.079  11.232 -0.0054 -0.0060 -0.1931
  330loPI    C3 5267   3.552  15.688  11.252  0.1172  0.0166 -0.2351
  330loPI   PO4 5268   3.122  15.832  10.921 -0.0563  0.0944 -0.1204
  330loPI   GL1 5269   3.080  15.866  10.582  0.1655 -0.0605 -0.0737
  330loPI   GL2 5270   3.051  15.511  10.479  0.0058  0.2952 -0.0247
  330loPI   C1A 5271   3.257  16.004  10.201  0.1708 -0.0319 -0.2232
  330loPI   C2A 5272   3.261  15.982   9.767  0.2866  0.1201  0.1525
  330loPI   C3A 5273   3.227  16.010   9.287 -0.0305 -0.0556 -0.2333
  330loPI   C4A 5274   3.300  16.120   8.892  0.0300  0.2371  0.0064
  330loPI   C5A 5275   3.429  16.305   8.468  0.0424  0.0954  0.0352
  330loPI   C6A 5276   3.649  16.493   8.109 -0.1353 -0.2417 -0.2534
  330loPI   C1B 5277   3.215  15.329  10.169  0.0915 -0.1649 -0.1028
  330loPI   C2B 5278   3.151  15.444   9.677 -0.0711 -0.0655  0.2320
  330loPI   C3B 5279   3.199  15.508   9.216 -0.2363  0.1060 -0.0080
  330loPI   C4B 5280   2.993  15.703   8.815  0.0629 -0.0047  0.1508
  331loPI    C1 5281  17.443  12.386  11.286 -0.0570  0.1380 -0.0308
  331loPI    C2 5282  17.833  12.470  11.255  0.0006 -0.1881 -0.2527
  331loPI    C3 5283  17.655  12.470  11.614  0.1461  0.1978 -0.1756
  331loPI   PO4 5284  17.412  12.257  11.032 -0.6902  0.0987  0.1973
  331loPI   GL1 5285  17.661  12.257  10.661  0.1747  0.0228 -0.0094
  331loPI   GL2 5286  17.302  12.436  10.578  0.0984  0.0548 -0.1504
  331loPI   C1A 5287  17.635  12.193  10.253 -0.0282 -0.0789 -0.1169
  331loPI   C2A 5288  17.685  12.174   9.870  0.3244 -0.1787 -0.1343
  331loPI   C3A 5289  17.685  12.123   9.412 -0.0286  0.1590 -0.0544
  331loPI   C4A 5290  17.580  12.164   8.941 -0.0885  0.0162  0.1402
  331loPI   C5A 5291  17.577  12.056   8.501 -0.1726  0.2152 -0.2406
  331loPI   C6A 5292  17.309  12.078   8.134 -0.1520  0.0269  0.1282
  331loPI   C1B 5293  17.260  12.536  10.125  0.0845  0.1386 -0.0663
  331loPI   C2B 5294  17.181  12.505   9.725 -0.1948  0.0183 -0.3406
  331loPI   C3B 5295  17.255  12.459   9.331 -0.0316 -0.5606 -0.0728
  331loPI   C4B 5296  17.248  12.608   8.929 -0.1998  0.0244 -0.0138
  332loPI    C1 5297   2.149  14.704  11.242  0.1578  0.0629  0.0663
  332loPI    C2 5298   1.837  14.741  11.489  0.1033  0.0582 -0.0015
  332loPI    C3 5299   2.178  14.933  11.568  0.1689 -0.1404  0.2105
  332loPI   PO4 5300   2.042  14.660  10.994  0.0490  0.2071 -0.1204
  332loPI   GL1 5301   1.947  14.434  10.705  0.1345  0.0052 -0.2678
  332loPI   GL2 5302   1.710  14.279  10.664  0.0898 -0.0262  0.0285
  332loPI   C1A 5303   2.151  14.546  10.325 -0.3168  0.2143  0.0932
  332loPI   C2A 5304   2.193  14.529   9.872 -0.4667 -0.1163  0.3026
  332loPI   C3A 5305   2.178  14.516   9.420 -0.0087 -0.1821 -0.0817
  332loPI   C4A 5306   2.046  14.542   9.021 -0.0141 -0.0142  0.1753
  332loPI   C5A 5307   2.243  14.852   8.672 -0.0436  0.4665 -0.2377
  332loPI   C6A 5308   2.071  15.331   8.657  0.1518 -0.2428  0.0458
  332loPI   C1B 5309   1.694  14.214  10.242  0.1302 -0.1048  0.1549
  332loPI   C2B 5310   1.766  14.318   9.744  0.0032  0.1930  0.0277
  332loPI   C3B 5311   1.645  14.336   9.300  0.0447  0.0031  0.0375
  332loPI   C4B 5312   1.531  14.514   8.869  0.0995 -0.2107 -0.0618
  333loPI    C1 5313   8.582   9.405  11.322  0.0230 -0.1998  0.0457
  333loPI    C2 5314   8.352   9.722  11.403  0.2903  0.0280 -0.0686
  333loPI    C3 5315   8.413   9.443  11.683  0.1535  0.1400  0.0750
  333loPI   PO4 5316   8.488   9.231  11.122  0.0228 -0.1442  0.2732
  333loPI   GL1 5317   8.617   9.144  10.680 -0.4632  0.0722 -0.1627
  333loPI   GL2 5318   8.779   9.368  10.684 -0.0366  0.2214  0.1697
  333loPI   C1A 5319   8.569   8.911  10.213 -0.0625 -0.2403  0.3188
  333loPI   C2A 5320   8.654   8.924   9.844  0.0862  0.0841 -0.0267
  333loPI   C3A 5321   8.512   8.847   9.434 -0.0794  0.0266 -0.4505
  333loPI   C4A 5322   8.444   8.816   9.039 -0.0718 -0.2302  0.1164
  333loPI   C5A 5323   8.260   8.821   8.598 -0.1152  0.2218  0.1621
  333loPI   C6A 5324   8.120   8.776   8.083  0.0024 -0.0908 -0.1911
  333loPI   C1B 5325   8.699   9.425  10.223  0.1701  0.0466  0.0872
  333loPI   C2B 5326   8.709   9.434   9.852 -0.0481  0.0377  0.0065
  333loPI   C3B 5327   8.605   9.381   9.363  0.1636 -0.0035 -0.2114
  333loPI   C4B 5328   8.609   9.301   8.892  0.3210 -0.0728  0.0547
  334loPI    C1 5329   1.161  13.491  11.291  0.1858 -0.1240  0.0249
  334loPI    C2 5330   1.122  13.878  11.385 -0.0641 -0.1173 -0.0972
  334loPI    C3 5331   1.172  13.605  11.674  0.0397 -0.0028 -0.0060
  334loPI   PO4 5332   1.403  13.532  11.036 -0.1758  0.0981 -0.1465
  334loPI   GL1 5333   1.664  13.400  10.820  0.2107 -0.0401  0.1900
  334loPI   GL2 5334   2.029  13.298  10.803  0.1829  0.1957  0.0973
  334loPI   C1A 5335   1.517  13.268  10.401 -0.0323 -0.1339 -0.0776
  334loPI   C2A 5336   1.579  13.222   9.956  0.2761  0.0962  0.1417
  334loPI   C3A 5337   1.496  13.279   9.433  0.1130 -0.1011 -0.0003
  334loPI   C4A 5338   1.483  13.254   9.008 -0.1231 -0.0118  0.0172
  334loPI   C5A 5339   1.546  13.358   8.658 -0.0215 -0.0045  0.2351
  334loPI   C6A 5340   1.790  13.357   8.288  0.0094  0.1014  0.0305
  334loPI   C1B 5341   2.008  13.421  10.398 -0.0234  0.3063  0.1405
  334loPI   C2B 5342   2.067  13.419   9.990  0.0582  0.3102  0.2195
  334loPI   C3B 5343   2.012  13.444   9.544 -0.0418 -0.0354  0.0315
  334loPI   C4B 5344   1.936  13.507   9.187 -0.1600  0.1513  0.4141
  335loPI    C1 5345   1.309   3.481  11.801  0.2007 -0.0760  0.2565
  335loPI    C2 5346   1.269   3.093  11.890  0.1211 -0.1689 -0.1609
  335loPI    C3 5347   0.944   3.317  11.821  0.1744 -0.0658 -0.0802
  335loPI   PO4 5348   1.506   3.477  11.625  0.1694 -0.1883  0.1770
  335loPI   GL1 5349   1.604   3.504  11.273  0.0594 -0.2011  0.0447
  335loPI   GL2 5350   1.358   3.471  10.995  0.2575 -0.3306  0.2544
  335loPI   C1A 5351   1.787   3.697  10.891  0.2190 -0.0629  0.0167
  335loPI   C2A 5352   1.868   3.649  10.512  0.0764  0.1854  0.0519
  335loPI   C3A 5353   1.824   3.665  10.081  0.0826 -0.0969 -0.1458
  335loPI   C4A 5354   1.868   3.716   9.652  0.0899 -0.1227  0.0715
  335loPI   C5A 5355   1.791   3.696   9.225  0.0257  0.0762 -0.0479
  335loPI   C6A 5356   1.632   3.633   8.803 -0.1942  0.0631  0.1385
  335loPI   C1B 5357   1.353   3.577  10.569  0.0309 -0.0358 -0.0082
  335loPI   C2B 5358   1.332   3.584  10.149 -0.4007  0.1719  0.2099
  335loPI   C3B 5359   1.386   3.543   9.719  0.1700 -0.0008 -0.1230
  335loPI   C4B 5360   1.347   3.518   9.304  0.0898 -0.1200  0.1189
  336loPI    C1 5361  16.365  11.883  11.237  0.0895  0.1339 -0.1350
  336loPI    C2 5362  16.567  11.696  11.527 -0.1321  0.1361  0.0233
  336loPI    C3 5363  16.455  12.077  11.575  0.0385  0.2118 -0.1658
  336loPI   PO4 5364  16.408  11.885  11.056 -0.3824 -0.3533 -0.0371
  336loPI   GL1 5365  16.667  11.926  10.833 -0.0365  0.0687 -0.1451
  336loPI   GL2 5366  16.874  12.190  10.810 -0.2978 -0.0393 -0.0824
  336loPI   C1A 5367  16.681  11.786  10.388  0.0495 -0.0289  0.0018
  336loPI   C2A 5368  16.810  11.754   9.905  0.2945 -0.0601 -0.4571
  336loPI   C3A 5369  16.595  11.767   9.450 -0.0214 -0.3184  0.1026
  336loPI   C4A 5370  16.617  11.745   8.913 -0.0244  0.1570  0.1081
  336loPI   C5A 5371  16.472  11.879   8.562 -0.0392 -0.0142  0.1872
  336loPI   C6A 5372  16.430  11.920   8.163 -0.0281 -0.0460 -0.5554
  336loPI   C1B 5373  16.824  12.310  10.474 -0.0412  0.0131 -0.0950
  336loPI   C2B 5374  16.785  12.320  10.001 -0.2636  0.0893  0.2615
  336loPI   C3B 5375  16.729  12.253   9.481 -0.1413  0.0831  0.2984
  336loPI   C4B 5376  16.809  12.335   8.903 -0.1621  0.1713 -0.1872
  337loPI    C1 5377  12.289  11.376  11.232  0.1138  0.3020  0.0861
  337loPI    C2 5378  12.082  11.034  11.242  0.3132  0.1814  0.1393
  337loPI    C3 5379  11.957  11.350  11.454  0.1245  0.1448  0.0845
  337loPI   PO4 5380  12.445  11.339  11.030 -0.3158  0.2031 -0.2525
  337loPI   GL1 5381  12.366  11.420  10.656  0.0601 -0.1761 -0.1628
  337loPI   GL2 5382  12.116  11.489  10.603 -0.2287  0.1185  0.1204
  337loPI   C1A 5383  12.522  11.170  10.376 -0.1736 -0.0822 -0.0012
  337loPI   C2A 5384  12.477  11.053   9.903 -0.1291  0.6798 -0.0900
  337loPI   C3A 5385  12.513  10.960   9.505 -0.2902 -0.0929 -0.2447
  337loPI   C4A 5386  12.448  10.960   9.050 -0.2406  0.1992 -0.1927
  337loPI   C5A 5387  12.384  10.803   8.631 -0.1777 -0.1861 -0.1029
  337loPI   C6A 5388  12.039  11.022   8.442 -0.0773 -0.2504  0.0085
  337loPI   C1B 5389  12.141  11.372  10.146  0.2465  0.0602 -0.1187
  337loPI   C2B 5390  12.053  11.371   9.699 -0.1014  0.0813 -0.1753
  337loPI   C3B 5391  12.107  11.321   9.240 -0.0877 -0.0444 -0.2813
  337loPI   C4B 5392  12.029  11.302   8.859  0.1291  0.2804 -0.0998
  338loPI    C1 5393  16.019   3.121  11.268 -0.0826  0.0271  0.1087
  338loPI    C2 5394  15.781   2.816  11.370  0.1215 -0.1045  0.1969
  338loPI    C3 5395  16.088   2.918  11.606  0.2875 -0.0807 -0.0267
  338loPI   PO4 5396  16.086   3.092  11.015  0.1462  0.0243  0.2978
  338loPI   GL1 5397  16.075   2.819  10.738 -0.3847  0.1684 -0.1884
  338loPI   GL2 5398  15.837   2.994  10.506  0.2649 -0.3577 -0.0916
  338loPI   C1A 5399  16.284   2.672  10.424  0.1400  0.1640 -0.2257
  338loPI   C2A 5400  16.503   2.614  10.097  0.0620 -0.3177 -0.0972
  338loPI   C3A 5401  16.587   2.606   9.760 -0.3067 -0.2625  0.0545
  338loPI   C4A 5402  16.557   2.579   9.300 -0.0514 -0.3341 -0.4770
  338loPI   C5A 5403  16.418   2.586   8.908  0.0778  0.2013  0.0623
  338loPI   C6A 5404  16.504   2.377   8.533 -0.4369 -0.2734 -0.0109
  338loPI   C1B 5405  16.070   3.027  10.164  0.1616 -0.1176  0.2605
  338loPI   C2B 5406  16.081   3.060   9.817  0.1989  0.0207  0.0220
  338loPI   C3B 5407  16.131   2.982   9.407  0.2210  0.0692 -0.1156
  338loPI   C4B 5408  15.970   2.843   9.004 -0.3129  0.3635  0.1878
  339loPI    C1 5409   9.008  10.400  11.112 -0.4869 -0.1118 -0.2842
  339loPI    C2 5410   8.955  10.522  11.490 -0.1687 -0.0909 -0.2439
  339loPI    C3 5411   9.143  10.176  11.415 -0.0546  0.0007 -0.3868
  339loPI   PO4 5412   8.767  10.458  11.020  0.1209  0.1115  0.0705
  339loPI   GL1 5413   8.654  10.176  10.556  0.0630  0.2232 -0.2392
  339loPI   GL2 5414   8.756   9.930  10.557 -0.1782 -0.0116  0.1999
  339loPI   C1A 5415   8.346  10.297  10.204  0.1774 -0.0814  0.0161
  339loPI   C2A 5416   8.344  10.196   9.672 -0.0579  0.0812  0.1032
  339loPI   C3A 5417   8.223  10.163   9.250  0.2163  0.4657 -0.1725
  339loPI   C4A 5418   8.246  10.214   8.782  0.1062 -0.1430  0.2321
  339loPI   C5A 5419   7.981  10.021   8.439  0.4165  0.0508  0.1242
  339loPI   C6A 5420   7.845   9.903   8.047 -0.3095  0.1277 -0.4198
  339loPI   C1B 5421   8.733   9.985  10.050 -0.0095 -0.1739  0.0666
  339loPI   C2B 5422   8.768   9.857   9.654  0.1940  0.2877  0.0069
  339loPI   C3B 5423   8.628   9.887   9.268 -0.1174 -0.0267  0.4142
  339loPI   C4B 5424   8.638   9.867   8.822 -0.1051 -0.1109  0.0344
  340loPI    C1 5425  10.097  11.300  11.463  0.2457  0.2336 -0.1449
  340loPI    C2 5426   9.826  11.584  11.382 -0.0885 -0.0905 -0.1883
  340loPI    C3 5427  10.021  11.586  11.732 -0.0942  0.1851 -0.1851
  340loPI   PO4 5428  10.190  11.259  11.218  0.0049  0.0546 -0.2056
  340loPI   GL1 5429  10.277  11.302  10.773 -0.0636  0.1182 -0.2215
  340loPI   GL2 5430  10.216  10.983  10.782 -0.0078  0.1344  0.1505
  340loPI   C1A 5431  10.341  11.134  10.283 -0.0181  0.0325 -0.1699
  340loPI   C2A 5432  10.214  11.061   9.840  0.0558  0.1858  0.2784
  340loPI   C3A 5433  10.241  10.997   9.383  0.0402  0.1032 -0.0869
  340loPI   C4A 5434  10.106  10.919   8.984  0.2572 -0.1236 -0.1824
  340loPI   C5A 5435   9.948  11.232   8.718 -0.0247  0.0125  0.2313
  340loPI   C6A 5436  10.227  11.570   8.452  0.1320 -0.3432 -0.1032
  340loPI   C1B 5437  10.267  10.655  10.480  0.1070 -0.1646 -0.0533
  340loPI   C2B 5438  10.171  10.601  10.121  0.1741 -0.0590  0.1681
  340loPI   C3B 5439  10.165  10.614   9.692  0.0082 -0.0873  0.2439
  340loPI   C4B 5440  10.123  10.428   9.324 -0.1200 -0.2047  0.1922
  341loPI    C1 5441   7.831  13.222  10.758  0.0986  0.3256 -0.2135
  341loPI    C2 5442   8.224  13.173  10.816  0.0358 -0.0339 -0.0620
  341loPI    C3 5443   7.982  13.240  11.128 -0.0735 -0.2085 -0.1077
  341loPI   PO4 5444   7.834  13.243  10.450 -0.0067  0.0115 -0.0711
  341loPI   GL1 5445   7.766  13.197  10.090 -0.1027  0.2128 -0.3113
  341loPI   GL2 5446   7.522  13.330   9.969  0.1062  0.1997 -0.0155
  341loPI   C1A 5447   7.779  12.915   9.685 -0.0817 -0.4057  0.0424
  341loPI   C2A 5448   7.824  12.860   9.121 -0.1010  0.0845 -0.0671
  341loPI   C3A 5449   7.765  12.821   8.743 -0.0848 -0.0012 -0.1013
  341loPI   C4A 5450   7.719  12.708   8.283 -0.0278 -0.0016  0.0381
  341loPI   C5A 5451   7.287  12.866   8.077 -0.1200  0.0222 -0.0519
  341loPI   C6A 5452   6.873  12.958   7.917  0.0180 -0.0008 -0.1494
  341loPI   C1B 5453   7.367  13.213   9.646 -0.0356 -0.2967 -0.0095
  341loPI   C2B 5454   7.327  13.214   9.283  0.1272 -0.0925  0.1478
  341loPI   C3B 5455   7.437  13.215   8.901 -0.1478  0.3723  0.1006
  341loPI   C4B 5456   7.448  13.135   8.482  0.0160 -0.0723  0.2822
  342loPI    C1 5457   5.692  13.091  11.051 -0.0721  0.0874 -0.0378
  342loPI    C2 5458   5.450  13.399  11.131  0.0721  0.2358 -0.1652
  342loPI    C3 5459   5.660  13.228  11.425 -0.4228 -0.1010  0.0059
  342loPI   PO4 5460   5.786  13.202  10.837 -0.1001  0.0640 -0.1309
  342loPI   GL1 5461   5.918  13.031  10.461 -0.2097  0.2572  0.3032
  342loPI   GL2 5462   5.632  13.096  10.410  0.1505  0.1980 -0.0542
  342loPI   C1A 5463   6.048  12.682  10.150  0.2021 -0.2585 -0.4988
  342loPI   C2A 5464   5.950  12.601   9.712 -0.0187 -0.1481  0.0352
  342loPI   C3A 5465   5.959  12.655   9.339 -0.1290 -0.1622  0.0328
  342loPI   C4A 5466   5.941  12.780   8.919  0.2023  0.2846 -0.0623
  342loPI   C5A 5467   5.890  12.766   8.468  0.0571 -0.0709 -0.0247
  342loPI   C6A 5468   5.933  12.834   8.053  0.1753 -0.1014 -0.0551
  342loPI   C1B 5469   5.610  13.011   9.986  0.1973 -0.0474  0.1388
  342loPI   C2B 5470   5.516  12.910   9.591 -0.0953 -0.2148 -0.1969
  342loPI   C3B 5471   5.542  13.024   9.207 -0.0661 -0.2028 -0.2066
  342loPI   C4B 5472   5.545  13.112   8.762  0.1887  0.1336  0.2907
  343loPI    C1 5473  14.708   1.214  11.142 -0.1367 -0.0647  0.1481
  343loPI    C2 5474  14.795   1.588  11.028  0.1185 -0.1131  0.1796
  343loPI    C3 5475  14.601   1.524  11.372  0.0540 -0.0088  0.1632
  343loPI   PO4 5476  14.605   1.075  10.902 -0.2598  0.2709  0.1058
  343loPI   GL1 5477  14.697   0.909  10.608 -0.2668 -0.1146  0.2930
  343loPI   GL2 5478  15.032   1.104  10.476  0.2340 -0.0106  0.0429
  343loPI   C1A 5479  14.636   0.976  10.184 -0.0748 -0.0255 -0.0451
  343loPI   C2A 5480  14.742   0.995   9.789  0.1951  0.0685 -0.1803
  343loPI   C3A 5481  14.914   0.973   9.383 -0.0337 -0.1639 -0.0037
  343loPI   C4A 5482  15.071   0.985   9.051 -0.2284 -0.2195  0.0740
  343loPI   C5A 5483  14.968   1.042   8.665 -0.0611  0.1122 -0.2131
  343loPI   C6A 5484  14.618   1.038   8.426  0.0107  0.0329  0.2638
  343loPI   C1B 5485  15.175   1.195  10.062  0.0123 -0.1137 -0.1236
  343loPI   C2B 5486  15.337   1.165   9.584  0.0657  0.1469 -0.0622
  343loPI   C3B 5487  15.475   1.244   9.225  0.1371  0.3532 -0.0145
  343loPI   C4B 5488  15.564   1.087   8.854 -0.0484 -0.2398 -0.0037
  344loPI    C1 5489  12.560   5.192  11.474  0.0117 -0.2178 -0.0876
  344loPI    C2 5490  12.164   5.240  11.448  0.0230  0.0731  0.2207
  344loPI    C3 5491  12.315   4.922  11.639 -0.0572 -0.1925 -0.1484
  344loPI   PO4 5492  12.698   5.178  11.259  0.3244  0.1412 -0.1089
  344loPI   GL1 5493  12.653   5.387  10.838  0.0254  0.1709  0.1424
  344loPI   GL2 5494  12.921   5.202  10.811 -0.1223  0.0039 -0.0408
  344loPI   C1A 5495  12.317   5.377  10.497  0.2934 -0.2864  0.0185
  344loPI   C2A 5496  12.297   5.433  10.101  0.2027  0.3057 -0.0187
  344loPI   C3A 5497  12.324   5.430   9.655  0.3260 -0.1384 -0.1917
  344loPI   C4A 5498  12.248   5.438   9.228 -0.0656  0.3025  0.1472
  344loPI   C5A 5499  12.190   5.656   8.817 -0.0082 -0.1380 -0.2558
  344loPI   C6A 5500  11.955   5.967   8.319  0.1075 -0.3827 -0.0447
  344loPI   C1B 5501  12.754   5.058  10.424  0.1834 -0.0823  0.0730
  344loPI   C2B 5502  12.659   5.085   9.946  0.1280 -0.0717 -0.1766
  344loPI   C3B 5503  12.695   5.155   9.522  0.1348  0.1033  0.0215
  344loPI   C4B 5504  12.726   5.180   9.197  0.0238  0.1343 -0.0964
  345loPI    C1 5505   5.684  14.284  11.266 -0.0674 -0.0016  0.0579
  345loPI    C2 5506   5.978  14.556  11.275 -0.0294 -0.0435  0.0913
  345loPI    C3 5507   5.915  14.319  11.591 -0.0908 -0.0435  0.0792
  345loPI   PO4 5508   5.637  14.295  11.024 -0.1467 -0.1497  0.0078
  345loPI   GL1 5509   5.460  14.104  10.650  0.1805 -0.1485  0.0360
  345loPI   GL2 5510   5.517  14.457  10.557 -0.1962  0.0595 -0.3652
  345loPI   C1A 5511   5.406  13.932  10.222  0.0496  0.0218  0.1319
  345loPI   C2A 5512   5.259  13.723   9.787  0.2546 -0.0285 -0.4417
  345loPI   C3A 5513   5.193  13.832   9.378  0.3993 -0.2292  0.0308
  345loPI   C4A 5514   5.253  13.909   8.921 -0.3373 -0.2756  0.0404
  345loPI   C5A 5515   5.260  13.867   8.496 -0.0693 -0.0564  0.0326
  345loPI   C6A 5516   5.369  13.582   8.205 -0.1428 -0.3040 -0.6293
  345loPI   C1B 5517   5.716  14.482  10.087 -0.1799 -0.0285 -0.0602
  345loPI   C2B 5518   5.708  14.402   9.598  0.0680 -0.0990  0.1124
  345loPI   C3B 5519   5.710  14.496   9.225 -0.0184  0.0757  0.0290
  345loPI   C4B 5520   5.715  14.546   8.778 -0.0601  0.4204 -0.0195
  346loPI    C1 5521   0.224  13.961  11.163 -0.4024 -0.0625 -0.1894
  346loPI    C2 5522   0.020  14.279  11.293 -0.1976 -0.0197  0.0332
  346loPI    C3 5523  -0.078  13.913  11.422 -0.2405 -0.0162  0.0105
  346loPI   PO4 5524   0.258  14.013  10.942 -0.0808  0.0742 -0.1543
  346loPI   GL1 5525   0.063  13.865  10.603  0.1337 -0.1338 -0.1821
  346loPI   GL2 5526   0.076  14.168  10.543 -0.3028 -0.0081  0.2164
  346loPI   C1A 5527   0.197  13.688  10.181 -0.0525  0.0685  0.3741
  346loPI   C2A 5528   0.286  13.720   9.806  0.1186  0.1910  0.1712
  346loPI   C3A 5529   0.256  13.789   9.468 -0.1906  0.1083 -0.2124
  346loPI   C4A 5530   0.191  13.651   9.052  0.1688  0.2880 -0.0733
  346loPI   C5A 5531   0.160  13.330   8.814  0.0399 -0.0344 -0.2160
  346loPI   C6A 5532   0.136  13.055   8.350 -0.1458 -0.0950 -0.0995
  346loPI   C1B 5533   0.289  14.260  10.134 -0.0355 -0.4449 -0.0252
  346loPI   C2B 5534   0.329  14.334   9.673  0.3664  0.0326  0.2103
  346loPI   C3B 5535   0.289  14.291   9.210 -0.1971 -0.3943  0.0601
  346loPI   C4B 5536   0.363  14.265   8.811 -0.0549 -0.0372  0.0470
  347loPI    C1 5537  15.136   3.551  11.570 -0.0103  0.2868 -0.0513
  347loPI    C2 5538  14.932   3.664  11.895  0.1411  0.1083  0.1078
  347loPI    C3 5539  15.330   3.624  11.912  0.1736  0.2957 -0.1565
  347loPI   PO4 5540  14.965   3.710  11.354 -0.1334 -0.1082 -0.5299
  347loPI   GL1 5541  14.913   3.708  10.896 -0.4147  0.3804  0.1589
  347loPI   GL2 5542  14.712   3.861  10.798 -0.2472  0.0322 -0.2257
  347loPI   C1A 5543  15.196   3.676  10.562  0.0179 -0.0695  0.0114
  347loPI   C2A 5544  15.252   3.672  10.103 -0.0726  0.1460 -0.1000
  347loPI   C3A 5545  15.235   3.759   9.754 -0.1688 -0.2100  0.1756
  347loPI   C4A 5546  15.402   3.682   9.399  0.1228 -0.1653  0.1508
  347loPI   C5A 5547  15.212   3.601   9.020  0.0505 -0.0092  0.3087
  347loPI   C6A 5548  15.190   3.382   8.560  0.0338  0.1353  0.0900
  347loPI   C1B 5549  14.760   3.976  10.401 -0.2530  0.2501  0.0459
  347loPI   C2B 5550  14.845   4.037   9.963  0.2287  0.2184 -0.1509
  347loPI   C3B 5551  14.752   4.001   9.499 -0.3033 -0.2192 -0.1310
  347loPI   C4B 5552  14.799   3.918   9.069 -0.2591  0.1234 -0.0337
  348loPI    C1 5553  15.232   1.392  11.092 -0.1434 -0.0826 -0.0329
  348loPI    C2 5554  15.197   1.780  11.180 -0.0011 -0.0824  0.0257
  348loPI    C3 5555  15.106   1.504  11.454 -0.1117 -0.0909 -0.0193
  348loPI   PO4 5556  15.206   1.425  10.772  0.3087  0.1756 -0.3549
  348loPI   GL1 5557  15.487   1.460  10.391  0.0886 -0.1360  0.0471
  348loPI   GL2 5558  15.311   1.716  10.360 -0.1594 -0.1656 -0.1099
  348loPI   C1A 5559  15.712   1.397   9.979  0.3181  0.0455 -0.2741
  348loPI   C2A 5560  15.858   1.448   9.527  0.5522  0.0105 -0.0505
  348loPI   C3A 5561  15.976   1.301   9.148  0.0514 -0.0119  0.1045
  348loPI   C4A 5562  15.969   1.449   8.748  0.1316 -0.1942  0.0596
  348loPI   C5A 5563  15.748   1.608   8.351  0.0295 -0.1484  0.0235
  348loPI   C6A 5564  15.796   2.086   8.104 -0.2583  0.1471 -0.0491
  348loPI   C1B 5565  15.328   1.805   9.989  0.1436 -0.3810  0.0832
  348loPI   C2B 5566  15.362   1.681   9.663 -0.0733  0.0251  0.1802
  348loPI   C3B 5567  15.501   1.732   9.294  0.1130  0.1340 -0.1490
  348loPI   C4B 5568  15.497   1.714   8.840 -0.0493  0.1707  0.1055
  349loPI    C1 5569   3.731  10.414  11.812  0.0241  0.2628 -0.0267
  349loPI    C2 5570   3.633  10.698  12.077 -0.1819  0.0738  0.1032
  349loPI    C3 5571   3.493  10.326  12.121  0.0327 -0.0343 -0.1022
  349loPI   PO4 5572   3.675  10.501  11.547  0.3409  0.2155 -0.1464
  349loPI   GL1 5573   3.493  10.383  11.200  0.1077 -0.2293  0.0355
  349loPI   GL2 5574   3.278  10.432  11.217  0.0104  0.1191 -0.0584
  349loPI   C1A 5575   3.573  10.236  10.826  0.4412 -0.2577  0.2026
  349loPI   C2A 5576   3.306  10.059  10.474 -0.4982 -0.1162  0.1196
  349loPI   C3A 5577   3.343  10.196  10.035  0.0598  0.0921 -0.0962
  349loPI   C4A 5578   3.354  10.180   9.612 -0.1679 -0.1932  0.0880
  349loPI   C5A 5579   3.259  10.224   9.212 -0.2800 -0.0992 -0.1870
  349loPI   C6A 5580   2.994  10.472   9.065 -0.2007  0.0687  0.0992
  349loPI   C1B 5581   3.143  10.483  10.777  0.0863  0.1988 -0.1786
  349loPI   C2B 5582   3.013  10.459  10.383  0.0168  0.1351  0.1049
  349loPI   C3B 5583   2.974  10.495  10.012 -0.1136 -0.1241  0.0387
  349loPI   C4B 5584   2.934  10.543   9.579  0.1655 -0.2434 -0.0573
  350loPI    C1 5585   8.796  13.663  11.000 -0.0393 -0.0486  0.2046
  350loPI    C2 5586   9.119  13.434  11.058  0.1779  0.2032  0.0119
  350loPI    C3 5587   9.087  13.786  11.246 -0.0285  0.1384  0.1003
  350loPI   PO4 5588   8.680  13.534  10.735 -0.2157 -0.0511 -0.0687
  350loPI   GL1 5589   8.831  13.239  10.469  0.1817 -0.1611  0.0217
  350loPI   GL2 5590   8.556  13.092  10.271 -0.0172  0.0932  0.0644
  350loPI   C1A 5591   9.076  13.110  10.112 -0.1732 -0.2775  0.0358
  350loPI   C2A 5592   9.077  12.998   9.719  0.0168 -0.0525 -0.1249
  350loPI   C3A 5593   9.053  12.932   9.346  0.2464 -0.4707  0.1092
  350loPI   C4A 5594   9.053  13.027   8.893 -0.0380  0.1142 -0.1609
  350loPI   C5A 5595   9.095  12.952   8.483 -0.0497  0.0055 -0.1721
  350loPI   C6A 5596   9.377  12.772   8.124 -0.1012  0.0430 -0.1844
  350loPI   C1B 5597   8.642  12.856   9.910  0.2314 -0.0859 -0.5693
  350loPI   C2B 5598   8.625  12.776   9.488  0.0872 -0.2608 -0.0085
  350loPI   C3B 5599   8.600  12.704   9.063 -0.0437 -0.1653  0.2426
  350loPI   C4B 5600   8.594  12.844   8.641  0.0279  0.1193  0.1517
  351loPI    C1 5601  15.097   4.125  11.689 -0.1047 -0.1118 -0.0003
  351loPI    C2 5602  14.979   4.503  11.743  0.2041  0.0099 -0.1574
  351loPI    C3 5603  15.245   4.339  11.993  0.0255 -0.1244 -0.0540
  351loPI   PO4 5604  15.208   4.148  11.389  0.2262 -0.1403  0.1557
  351loPI   GL1 5605  15.262   4.295  10.976  0.0090 -0.0236 -0.0358
  351loPI   GL2 5606  15.453   4.093  10.836 -0.1857 -0.2152 -0.0040
  351loPI   C1A 5607  14.958   4.386  10.716 -0.2529  0.0907 -0.0658
  351loPI   C2A 5608  14.982   4.469  10.239 -0.3644  0.1023  0.2846
  351loPI   C3A 5609  14.908   4.472   9.751 -0.0415  0.2258 -0.0606
  351loPI   C4A 5610  14.928   4.508   9.418  0.2043 -0.1213  0.2975
  351loPI   C5A 5611  14.789   4.530   9.001 -0.2910  0.0771 -0.0141
  351loPI   C6A 5612  14.812   4.646   8.656 -0.0062  0.0500 -0.2414
  351loPI   C1B 5613  15.306   4.169  10.388  0.1192  0.0724  0.2465
  351loPI   C2B 5614  15.311   4.264   9.921  0.2519  0.3569 -0.2098
  351loPI   C3B 5615  15.275   4.214   9.485 -0.0579 -0.0365 -0.0776
  351loPI   C4B 5616  15.360   4.237   9.028  0.0847  0.0728 -0.0379
  352loPI    C1 5617   1.495  16.274  11.042  0.0655  0.0998 -0.1984
  352loPI    C2 5618   1.692  15.942  11.147 -0.0911  0.0306 -0.1194
  352loPI    C3 5619   1.853  16.301  11.218 -0.1508 -0.0171  0.2764
  352loPI   PO4 5620   1.331  16.204  10.812 -0.1769  0.0870  0.1233
  352loPI   GL1 5621   1.467  16.186  10.317  0.2287  0.0489  0.0571
  352loPI   GL2 5622   1.820  16.442  10.263 -0.1620 -0.1875 -0.0646
  352loPI   C1A 5623   1.395  16.168   9.941 -0.0782  0.1652  0.0864
  352loPI   C2A 5624   1.376  16.210   9.534  0.1224 -0.2272 -0.3024
  352loPI   C3A 5625   1.490  16.276   9.174 -0.2086 -0.0079  0.1787
  352loPI   C4A 5626   1.492  16.371   8.787 -0.2161 -0.0604  0.1016
  352loPI   C5A 5627   1.635  16.326   8.508  0.4303 -0.0847  0.2508
  352loPI   C6A 5628   1.687  15.907   8.482  0.2656 -0.4444  0.2061
  352loPI   C1B 5629   1.624  16.646   9.971  0.1433  0.0084 -0.2574
  352loPI   C2B 5630   1.603  16.818   9.578 -0.3619  0.0508 -0.0657
  352loPI   C3B 5631   1.740  16.851   9.215 -0.0545 -0.1218  0.0421
  352loPI   C4B 5632   1.594  16.842   8.737  0.0402  0.0442 -0.2576
  353loPI    C1 5633  16.314   9.242  11.538  0.1381 -0.2783 -0.0512
  353loPI    C2 5634  16.529   9.488  11.770  0.2292 -0.4387  0.0357
  353loPI    C3 5635  16.188   9.329  11.907  0.0401 -0.1676 -0.1097
  353loPI   PO4 5636  16.257   9.266  11.332 -0.1473 -0.0084 -0.1742
  353loPI   GL1 5637  16.068   9.326  11.068  0.0882  0.2442 -0.0792
  353loPI   GL2 5638  15.774   9.143  11.008  0.0415 -0.0587  0.2235
  353loPI   C1A 5639  16.222   9.244  10.718 -0.0640  0.2701  0.3100
  353loPI   C2A 5640  16.300   9.237  10.308  0.1136 -0.0935 -0.1047
  353loPI   C3A 5641  16.327   9.267   9.880 -0.2278  0.0202  0.2387
  353loPI   C4A 5642  16.343   9.202   9.421 -0.3285  0.1014 -0.3010
  353loPI   C5A 5643  16.502   9.144   9.071  0.0723  0.2665  0.1548
  353loPI   C6A 5644  16.457   9.125   8.656 -0.1739  0.0832 -0.3215
  353loPI   C1B 5645  15.744   8.974  10.707 -0.0664  0.0041  0.1809
  353loPI   C2B 5646  15.787   9.029  10.328  0.1187 -0.1641  0.0106
  353loPI   C3B 5647  15.742   9.111   9.948 -0.0218 -0.1208 -0.2401
  353loPI   C4B 5648  15.846   9.029   9.468 -0.0741 -0.3897 -0.0376
  354loPI    C1 5649   0.791  13.970  11.002  0.1740 -0.1833  0.1546
  354loPI    C2 5650   0.964  14.302  11.143  0.0268 -0.0128 -0.0591
  354loPI    C3 5651   0.666  14.130  11.347 -0.0693  0.1338 -0.0744
  354loPI   PO4 5652   0.970  13.722  10.907 -0.1058 -0.0320 -0.1029
  354loPI   GL1 5653   1.117  13.644  10.518 -0.1187 -0.0881  0.2233
  354loPI   GL2 5654   1.393  13.747  10.556  0.2383 -0.0526  0.0726
  354loPI   C1A 5655   1.182  13.543  10.096 -0.1592  0.0992  0.0836
  354loPI   C2A 5656   1.159  13.571   9.646  0.0593  0.0119 -0.0435
  354loPI   C3A 5657   1.162  13.578   9.258  0.1941  0.0087 -0.1276
  354loPI   C4A 5658   1.113  13.702   8.845 -0.0742 -0.0096  0.1540
  354loPI   C5A 5659   0.922  13.825   8.451 -0.1434 -0.1830 -0.5251
  354loPI   C6A 5660   0.736  13.622   8.135 -0.3870 -0.1692  0.0660
  354loPI   C1B 5661   1.664  13.692  10.171  0.1092  0.0095  0.3239
  354loPI   C2B 5662   1.668  13.803   9.856  0.0191  0.0279 -0.0605
  354loPI   C3B 5663   1.599  13.817   9.476 -0.1092  0.0659 -0.1093
  354loPI   C4B 5664   1.607  13.981   9.014 -0.0341  0.0820 -0.2652
  355loPI    C1 5665   1.087   7.017  11.453 -0.2742  0.0271 -0.1804
  355loPI    C2 5666   1.160   6.694  11.677  0.1027  0.1208 -0.1617
  355loPI    C3 5667   1.039   7.033  11.850  0.3177  0.1703 -0.1048
  355loPI   PO4 5668   1.316   7.058  11.322 -0.1613  0.0011 -0.0293
  355loPI   GL1 5669   1.485   7.220  10.950 -0.4129  0.3310  0.2174
  355loPI   GL2 5670   1.602   6.930  10.976 -0.1040 -0.1990  0.1904
  355loPI   C1A 5671   1.391   7.380  10.518 -0.1615  0.2284 -0.1121
  355loPI   C2A 5672   1.505   7.437  10.107 -0.0854  0.0678  0.0588
  355loPI   C3A 5673   1.524   7.586   9.631 -0.0593  0.3659 -0.1828
  355loPI   C4A 5674   1.586   7.454   9.213  0.0981  0.0111  0.3476
  355loPI   C5A 5675   1.463   7.217   8.883  0.3264 -0.0126 -0.0987
  355loPI   C6A 5676   1.449   7.020   8.439  0.1741  0.0379  0.0390
  355loPI   C1B 5677   1.465   6.890  10.580 -0.0744 -0.0651  0.0686
  355loPI   C2B 5678   1.410   6.937  10.236  0.2146 -0.1915  0.1864
  355loPI   C3B 5679   1.550   7.016   9.787  0.2903  0.0991 -0.2763
  355loPI   C4B 5680   1.506   6.955   9.284 -0.1404  0.0346 -0.0908
  356loPI    C1 5681   1.777  12.568  11.193  0.0517  0.0299  0.0595
  356loPI    C2 5682   1.495  12.654  11.463  0.2568  0.1592  0.2362
  356loPI    C3 5683   1.850  12.514  11.582  0.2255 -0.1256  0.0071
  356loPI   PO4 5684   1.637  12.728  10.979 -0.0422  0.1934 -0.3665
  356loPI   GL1 5685   1.766  12.900  10.663  0.1392  0.1329  0.0901
  356loPI   GL2 5686   2.091  12.726  10.678 -0.0345  0.0181  0.5169
  356loPI   C1A 5687   1.953  12.971  10.201 -0.1686 -0.0438  0.0079
  356loPI   C2A 5688   1.953  12.961   9.730 -0.2081 -0.1254  0.1695
  356loPI   C3A 5689   1.927  12.999   9.277  0.1187 -0.0802  0.2275
  356loPI   C4A 5690   1.894  13.056   8.863  0.0936  0.1121 -0.0595
  356loPI   C5A 5691   1.787  12.899   8.493 -0.2904  0.0217 -0.1369
  356loPI   C6A 5692   1.661  12.484   8.576 -0.0025 -0.2171 -0.1003
  356loPI   C1B 5693   1.975  12.496  10.311  0.0215 -0.0944  0.0509
  356loPI   C2B 5694   1.848  12.515   9.905  0.0238  0.1301  0.1231
  356loPI   C3B 5695   1.895  12.495   9.448  0.0987 -0.3212 -0.1278
  356loPI   C4B 5696   1.901  12.581   9.020  0.2682  0.0524 -0.2445
  357loPI    C1 5697  15.636   6.570  11.811  0.0881 -0.1088 -0.0217
  357loPI    C2 5698  15.285   6.378  11.826  0.0885 -0.1065  0.0168
  357loPI    C3 5699  15.539   6.356  12.135  0.1258 -0.1149 -0.0145
  357loPI   PO4 5700  15.698   6.604  11.588  0.1597  0.0331  0.1973
  357loPI   GL1 5701  15.688   6.691  11.188 -0.0972 -0.0890  0.0586
  357loPI   GL2 5702  15.971   6.814  11.048  0.0959  0.0582  0.0251
  357loPI   C1A 5703  15.486   6.538  10.890  0.1357 -0.2851 -0.1906
  357loPI   C2A 5704  15.528   6.498  10.470 -0.0887  0.1275  0.0226
  357loPI   C3A 5705  15.462   6.542  10.056  0.1358  0.1054 -0.2320
  357loPI   C4A 5706  15.439   6.507   9.620  0.0292 -0.1370 -0.2290
  357loPI   C5A 5707  15.416   6.523   9.209  0.1842 -0.2222 -0.1879
  357loPI   C6A 5708  15.164   6.428   8.949  0.0821 -0.1884  0.2773
  357loPI   C1B 5709  15.962   6.700  10.692 -0.0690 -0.0197 -0.1760
  357loPI   C2B 5710  15.936   6.707  10.152  0.0003 -0.0170 -0.0022
  357loPI   C3B 5711  15.890   6.695   9.681  0.0070  0.2816  0.1157
  357loPI   C4B 5712  15.866   6.756   9.255  0.2358 -0.0057  0.0030
  358loPI    C1 5713  16.034   8.700  11.615  0.1592 -0.1362 -0.2004
  358loPI    C2 5714  16.337   8.801  11.855 -0.2281  0.0346  0.2336
  358loPI    C3 5715  16.294   8.422  11.736  0.1448  0.0071  0.1740
  358loPI   PO4 5716  16.076   8.826  11.383 -0.1065  0.2143  0.3911
  358loPI   GL1 5717  16.187   8.802  10.991  0.0290 -0.1369  0.0648
  358loPI   GL2 5718  16.415   8.527  10.975 -0.1068 -0.1187  0.2577
  358loPI   C1A 5719  16.211   8.731  10.539  0.1689  0.1602 -0.0916
  358loPI   C2A 5720  16.234   8.789  10.135 -0.0607  0.0133  0.0952
  358loPI   C3A 5721  16.278   8.751   9.681  0.0202  0.0653 -0.2899
  358loPI   C4A 5722  16.123   8.733   9.163 -0.0582  0.2347 -0.2001
  358loPI   C5A 5723  16.128   8.718   8.755 -0.3506  0.0695 -0.1805
  358loPI   C6A 5724  16.232   8.740   8.388  0.0320 -0.2378 -0.2503
  358loPI   C1B 5725  16.579   8.396  10.564 -0.1683  0.0193  0.0871
  358loPI   C2B 5726  16.643   8.441  10.126 -0.0086 -0.3639 -0.2696
  358loPI   C3B 5727  16.657   8.422   9.748 -0.1366 -0.0024  0.3127
  358loPI   C4B 5728  16.634   8.453   9.311 -0.1383 -0.0617  0.1837
  359loPI    C1 5729   5.170   4.826  11.679 -0.2478 -0.0912 -0.0882
  359loPI    C2 5730   4.874   5.031  11.852 -0.1701  0.0132 -0.0785
  359loPI    C3 5731   5.111   4.797  12.073 -0.0402  0.1846 -0.0342
  359loPI   PO4 5732   5.118   4.626  11.449  0.0627 -0.0590  0.2772
  359loPI   GL1 5733   5.053   4.591  11.019  0.4707 -0.2077 -0.1970
  359loPI   GL2 5734   5.216   4.734  10.865  0.0089  0.0486  0.0741
  359loPI   C1A 5735   4.937   4.385  10.628  0.0660 -0.0612  0.0194
  359loPI   C2A 5736   5.030   4.266  10.330  0.1020  0.0438  0.3431
  359loPI   C3A 5737   4.663   4.350  10.005 -0.0121 -0.2238 -0.0970
  359loPI   C4A 5738   4.681   4.377   9.515  0.2150 -0.1311  0.2736
  359loPI   C5A 5739   4.582   4.415   9.108 -0.1458 -0.2779  0.2281
  359loPI   C6A 5740   4.693   4.459   8.632  0.0448 -0.1315 -0.0112
  359loPI   C1B 5741   5.289   4.800  10.413  0.4386  0.1078 -0.0194
  359loPI   C2B 5742   5.154   4.536   9.941  0.0374  0.0102  0.1402
  359loPI   C3B 5743   5.195   4.611   9.505 -0.0889  0.1576 -0.0342
  359loPI   C4B 5744   5.030   4.564   9.015 -0.2819 -0.0630 -0.2630
  360loPI    C1 5745  12.225  12.599  10.868 -0.1562 -0.1926  0.0790
  360loPI    C2 5746  12.175  12.621  11.264 -0.1254  0.1982  0.0656
  360loPI    C3 5747  12.115  12.274  11.073  0.1264 -0.0627  0.4469
  360loPI   PO4 5748  12.498  12.757  10.751  0.0187 -0.3703  0.0172
  360loPI   GL1 5749  12.548  12.754  10.307  0.0154  0.0033 -0.0020
  360loPI   GL2 5750  12.286  12.989  10.167  0.0228 -0.2446 -0.0863
  360loPI   C1A 5751  12.646  12.563   9.926  0.0501 -0.1465  0.0938
  360loPI   C2A 5752  12.739  12.653   9.479  0.0237  0.0257 -0.0076
  360loPI   C3A 5753  12.697  12.611   9.029  0.0093  0.0659  0.3315
  360loPI   C4A 5754  12.643  12.443   8.721  0.0593  0.2039 -0.2118
  360loPI   C5A 5755  12.856  12.321   8.376 -0.2488  0.0486 -0.0364
  360loPI   C6A 5756  12.972  12.146   8.029  0.0061  0.1299  0.3039
  360loPI   C1B 5757  12.342  12.915   9.717  0.2283  0.4289  0.0224
  360loPI   C2B 5758  12.340  12.927   9.304 -0.0711 -0.0987  0.0799
  360loPI   C3B 5759  12.268  12.787   8.798 -0.4539  0.5930  0.1999
  360loPI   C4B 5760  12.106  12.947   8.475  0.2387 -0.2351  0.0308
  361loPI    C1 5761   1.551  14.567  11.129 -0.2563  0.0390  0.0016
  361loPI    C2 5762   1.419  14.298  11.394  0.0334 -0.0035  0.1063
  361loPI    C3 5763   1.802  14.293  11.278 -0.0281  0.1834 -0.1115
  361loPI   PO4 5764   1.393  14.569  10.949  0.0621  0.4040  0.2005
  361loPI   GL1 5765   1.354  14.685  10.534  0.0779 -0.0079 -0.0973
  361loPI   GL2 5766   1.659  14.715  10.376  0.0997  0.0961 -0.1971
  361loPI   C1A 5767   1.178  14.718  10.149 -0.0094  0.1272  0.1505
  361loPI   C2A 5768   1.258  14.716   9.718  0.0172  0.2500 -0.1350
  361loPI   C3A 5769   1.187  14.714   9.263 -0.2383 -0.0011 -0.3273
  361loPI   C4A 5770   1.120  14.794   8.849 -0.0334  0.0156  0.2286
  361loPI   C5A 5771   1.291  15.011   8.441 -0.0607  0.2364 -0.3335
  361loPI   C6A 5772   1.022  15.300   8.196 -0.0551  0.4102 -0.2171
  361loPI   C1B 5773   1.720  14.726  10.014  0.1266  0.3130  0.2305
  361loPI   C2B 5774   1.761  14.781   9.649 -0.1983 -0.0286  0.1106
  361loPI   C3B 5775   1.644  14.906   9.208  0.0010 -0.0298  0.1806
  361loPI   C4B 5776   1.696  15.000   8.752 -0.0010  0.0684  0.1281
  362loPI    C1 5777  15.955   3.667  11.338  0.1576 -0.2570  0.0400
  362loPI    C2 5778  16.291   3.487  11.458  0.1573 -0.2637  0.0311
  362loPI    C3 5779  16.089   3.722  11.711  0.2395 -0.1539 -0.0039
  362loPI   PO4 5780  15.958   3.794  11.152 -0.1053 -0.4660  0.0010
  362loPI   GL1 5781  16.099   4.077  10.867 -0.2536 -0.0292 -0.0768
  362loPI   GL2 5782  15.923   4.267  10.840  0.0267  0.1104  0.0820
  362loPI   C1A 5783  16.256   4.005  10.474 -0.1364  0.0673  0.5606
  362loPI   C2A 5784  16.292   4.056  10.102 -0.1635  0.0833 -0.0031
  362loPI   C3A 5785  16.262   4.141   9.775  0.1869  0.1554  0.1778
  362loPI   C4A 5786  16.356   4.043   9.338  0.0147  0.2528  0.2933
  362loPI   C5A 5787  16.220   3.857   8.926  0.0624 -0.1133  0.4325
  362loPI   C6A 5788  16.073   3.547   8.670  0.3809 -0.3490  0.0585
  362loPI   C1B 5789  15.803   4.262  10.494  0.0276  0.1045 -0.0991
  362loPI   C2B 5790  15.925   4.364  10.063  0.0606 -0.0085 -0.0955
  362loPI   C3B 5791  15.836   4.421   9.635 -0.0081 -0.0395  0.2139
  362loPI   C4B 5792  15.868   4.335   9.234  0.0808  0.5376  0.0561
  363loPI    C1 5793   2.398  10.325  11.585  0.1078 -0.0748  0.1963
  363loPI    C2 5794   2.208  10.595  11.811 -0.1695 -0.1359  0.0408
  363loPI    C3 5795   2.386  10.280  11.982  0.0738  0.0920  0.2149
  363loPI   PO4 5796   2.204  10.316  11.384  0.0672  0.2081  0.0661
  363loPI   GL1 5797   2.188  10.230  10.897 -0.1360 -0.0083 -0.1441
  363loPI   GL2 5798   2.234  10.564  10.812  0.1572  0.0217  0.0877
  363loPI   C1A 5799   2.020  10.077  10.537  0.0389 -0.0222 -0.0988
  363loPI   C2A 5800   1.994  10.154  10.079 -0.1430 -0.0317  0.3953
  363loPI   C3A 5801   1.988  10.160   9.599  0.0006  0.2160 -0.0758
  363loPI   C4A 5802   2.008  10.177   9.146  0.1546 -0.2867 -0.3566
  363loPI   C5A 5803   2.117  10.317   8.689  0.1407  0.1350 -0.1082
  363loPI   C6A 5804   2.349  10.381   8.266  0.1201  0.2539 -0.4077
  363loPI   C1B 5805   2.164  10.598  10.460 -0.1639  0.0602 -0.1291
  363loPI   C2B 5806   2.035  10.651  10.093 -0.0683 -0.1311 -0.1293
  363loPI   C3B 5807   2.027  10.692   9.646 -0.0367 -0.1865 -0.0091
  363loPI   C4B 5808   2.149  10.704   9.178  0.2224 -0.0335  0.1862
  364loPI    C1 5809  14.537  14.296  10.990 -0.0460 -0.1099  0.1590
  364loPI    C2 5810  14.210  14.236  11.212 -0.0911  0.2678  0.2012
  364loPI    C3 5811  14.355  14.606  11.166  0.3073  0.1096  0.1473
  364loPI   PO4 5812  14.485  14.191  10.770  0.0130  0.0164 -0.1459
  364loPI   GL1 5813  14.688  14.029  10.410 -0.1601 -0.2978  0.0766
  364loPI   GL2 5814  14.363  13.975  10.351  0.2315 -0.0761 -0.0639
  364loPI   C1A 5815  14.627  13.957   9.917  0.2617  0.0228  0.3081
  364loPI   C2A 5816  14.646  13.918   9.522  0.0339  0.0329 -0.0636
  364loPI   C3A 5817  14.681  13.951   9.030  0.2224  0.3947 -0.2386
  364loPI   C4A 5818  14.721  13.981   8.623  0.0243  0.3845  0.0581
  364loPI   C5A 5819  15.011  13.962   8.318 -0.1565 -0.0764  0.0155
  364loPI   C6A 5820  15.308  13.974   7.978  0.0402  0.1594 -0.4062
  364loPI   C1B 5821  14.120  13.727  10.019 -0.2989 -0.0566 -0.0523
  364loPI   C2B 5822  14.222  13.734   9.619 -0.0193 -0.1677  0.0953
  364loPI   C3B 5823  14.255  13.790   9.189  0.0140  0.2210 -0.0500
  364loPI   C4B 5824  14.207  13.877   8.727 -0.1039  0.0350 -0.2029
  365loPI    C1 5825   5.395  12.649  11.062 -0.0443  0.0140  0.0181
  365loPI    C2 5826   5.268  12.466  11.395 -0.4527  0.1487 -0.0587
  365loPI    C3 5827   5.349  12.858  11.400  0.0288  0.0544  0.0033
  365loPI   PO4 5828   5.283  12.537  10.878  0.2309  0.1448  0.1109
  365loPI   GL1 5829   5.396  12.660  10.482  0.1650 -0.1025  0.1413
  365loPI   GL2 5830   5.211  12.805  10.383  0.2741 -0.0891 -0.0520
  365loPI   C1A 5831   5.494  12.531  10.080  0.1898  0.2324 -0.2483
  365loPI   C2A 5832   5.444  12.425   9.685 -0.1272 -0.1227 -0.0637
  365loPI   C3A 5833   5.466  12.498   9.241 -0.3881  0.0922  0.3015
  365loPI   C4A 5834   5.420  12.628   8.851 -0.2532  0.2439  0.0483
  365loPI   C5A 5835   5.389  12.479   8.444 -0.4242  0.1627 -0.0561
  365loPI   C6A 5836   5.206  12.482   8.018  0.1984  0.2607  0.3238
  365loPI   C1B 5837   5.106  12.780   9.927  0.1048  0.1237 -0.0092
  365loPI   C2B 5838   5.052  12.769   9.462 -0.1930 -0.0968 -0.1951
  365loPI   C3B 5839   5.078  12.810   9.138 -0.1070 -0.1295  0.0910
  365loPI   C4B 5840   5.060  12.980   8.724 -0.0985 -0.2155 -0.2917
  366loPI    C1 5841  13.312  17.429  11.065  0.1770 -0.0724  0.0990
  366loPI    C2 5842  13.346  17.293  11.439 -0.2289 -0.0250  0.1570
  366loPI    C3 5843  12.985  17.320  11.268 -0.0405 -0.1213 -0.2675
  366loPI   PO4 5844  13.474  17.608  10.962 -0.0680 -0.2594 -0.2066
  366loPI   GL1 5845  13.496  17.652  10.526 -0.1013 -0.0791  0.3073
  366loPI   GL2 5846  13.806  17.518  10.436  0.1957 -0.1056  0.0685
  366loPI   C1A 5847  13.220  17.837  10.195  0.0897  0.2766  0.2106
  366loPI   C2A 5848  13.135  17.891   9.846 -0.2014  0.1572 -0.0478
  366loPI   C3A 5849  13.311  17.911   9.433  0.0430 -0.0219 -0.5422
  366loPI   C4A 5850  13.391  18.024   9.034 -0.0008  0.1273  0.1762
  366loPI   C5A 5851  13.675  18.032   8.683 -0.0040 -0.0504 -0.2711
  366loPI   C6A 5852  14.037  17.782   8.475  0.1023 -0.1568  0.4149
  366loPI   C1B 5853  13.616  17.598  10.017 -0.0685 -0.2805 -0.2381
  366loPI   C2B 5854  13.701  17.678   9.607  0.0270  0.0275 -0.0075
  366loPI   C3B 5855  13.757  17.686   9.256 -0.1075  0.1440  0.2053
  366loPI   C4B 5856  13.886  17.548   8.881  0.0311 -0.2308  0.1059
  367loPI    C1 5857   5.175   8.195  11.436 -0.2213  0.1531  0.0285
  367loPI    C2 5858   5.387   8.535  11.439 -0.2146  0.1484  0.1606
  367loPI    C3 5859   5.499   8.228  11.669 -0.1543  0.0151 -0.0441
  367loPI   PO4 5860   4.975   8.261  11.357  0.4206  0.2203 -0.0345
  367loPI   GL1 5861   4.734   8.229  10.975  0.0382 -0.1421  0.1734
  367loPI   GL2 5862   4.656   7.928  11.142  0.2339  0.0649  0.1896
  367loPI   C1A 5863   4.464   8.052  10.586  0.0057 -0.1594 -0.0747
  367loPI   C2A 5864   4.385   8.072  10.179 -0.0909 -0.0785 -0.0387
  367loPI   C3A 5865   4.433   8.144   9.734 -0.1619 -0.0125 -0.3043
  367loPI   C4A 5866   4.413   8.165   9.315  0.0919 -0.0390  0.5454
  367loPI   C5A 5867   4.433   8.261   8.842  0.2302  0.2566 -0.0696
  367loPI   C6A 5868   3.973   8.340   8.619 -0.1712  0.1882  0.0814
  367loPI   C1B 5869   4.857   7.721  10.722  0.2300  0.0488  0.0188
  367loPI   C2B 5870   4.818   7.729  10.308  0.3045 -0.0518 -0.0365
  367loPI   C3B 5871   4.772   7.736   9.932 -0.1333  0.0212  0.2328
  367loPI   C4B 5872   4.736   7.797   9.469 -0.2606  0.3872  0.1744
  368loPI    C1 5873   5.321   9.076  11.284 -0.2212 -0.0348  0.0305
  368loPI    C2 5874   5.121   9.258  11.578 -0.1733 -0.0631  0.0807
  368loPI    C3 5875   5.406   8.992  11.665 -0.1005 -0.0090  0.0099
  368loPI   PO4 5876   5.138   8.975  11.125  0.0369  0.0677  0.0137
  368loPI   GL1 5877   5.189   8.764  10.715 -0.1446  0.1061  0.0982
  368loPI   GL2 5878   5.164   8.459  10.913 -0.0571  0.1547 -0.0341
  368loPI   C1A 5879   5.052   8.873  10.348  0.0123 -0.0181  0.3603
  368loPI   C2A 5880   4.901   8.837  10.017  0.0338 -0.3330 -0.0224
  368loPI   C3A 5881   5.014   8.883   9.615  0.1470  0.0928 -0.0113
  368loPI   C4A 5882   4.915   9.011   9.247 -0.1323 -0.4020 -0.1776
  368loPI   C5A 5883   4.695   8.819   8.866 -0.1063 -0.3162  0.1597
  368loPI   C6A 5884   4.909   8.490   8.621  0.0026  0.2639 -0.1541
  368loPI   C1B 5885   4.946   8.286  10.402  0.3877 -0.1946  0.0554
  368loPI   C2B 5886   4.901   8.303  10.030  0.0296 -0.2136  0.2602
  368loPI   C3B 5887   4.902   8.297   9.570  0.5216 -0.5576  0.2727
  368loPI   C4B 5888   4.845   8.294   9.107  0.0431  0.1938  0.3410
  369loPI    C1 5889  12.727   5.813  11.137  0.1512 -0.0594  0.3087
  369loPI    C2 5890  12.717   6.085  11.429 -0.1205 -0.0512  0.2940
  369loPI    C3 5891  12.583   5.715  11.496 -0.0766 -0.0821  0.2127
  369loPI   PO4 5892  12.894   5.912  10.986 -0.0280 -0.1205 -0.2374
  369loPI   GL1 5893  13.098   5.661  10.672  0.2224  0.0300 -0.1870
  369loPI   GL2 5894  13.118   6.016  10.549  0.0792 -0.0211  0.2466
  369loPI   C1A 5895  12.821   5.583  10.336  0.1814 -0.0409  0.2394
  369loPI   C2A 5896  12.737   5.658   9.922 -0.0261  0.2973  0.0138
  369loPI   C3A 5897  12.768   5.800   9.495  0.0931  0.1942 -0.2542
  369loPI   C4A 5898  12.801   5.677   9.048  0.1381 -0.1053 -0.2224
  369loPI   C5A 5899  12.721   5.898   8.583  0.0494  0.0550 -0.0659
  369loPI   C6A 5900  12.463   5.896   8.291  0.1743 -0.1564  0.0721
  369loPI   C1B 5901  12.826   6.068  10.269 -0.2191  0.1929  0.0627
  369loPI   C2B 5902  12.763   6.178   9.795  0.0584  0.0078  0.3620
  369loPI   C3B 5903  12.805   6.309   9.353 -0.0414 -0.2443  0.1162
  369loPI   C4B 5904  12.721   6.349   8.911 -0.1694  0.3993  0.2532
  370loPI    C1 5905  16.131  16.708  11.117 -0.0870 -0.0005  0.0230
  370loPI    C2 5906  16.388  16.431  11.250 -0.2033  0.0172  0.2907
  370loPI    C3 5907  16.291  16.742  11.482 -0.2308  0.1747  0.0710
  370loPI   PO4 5908  16.213  16.767  10.866 -0.2323 -0.4126 -0.1240
  370loPI   GL1 5909  16.558  16.795  10.610  0.0845 -0.1234 -0.0365
  370loPI   GL2 5910  16.411  16.589  10.463  0.0462  0.0695 -0.1644
  370loPI   C1A 5911  16.868  16.874  10.273  0.1955  0.1142  0.1058
  370loPI   C2A 5912  16.947  16.856   9.830  0.1940 -0.0782  0.2262
  370loPI   C3A 5913  16.923  16.815   9.318  0.0468 -0.0710 -0.1125
  370loPI   C4A 5914  17.002  16.813   8.902  0.0830  0.2173  0.1188
  370loPI   C5A 5915  16.996  16.686   8.415 -0.2179 -0.1977 -0.2865
  370loPI   C6A 5916  16.643  16.856   8.132 -0.0174  0.1692 -0.1201
  370loPI   C1B 5917  16.407  16.638   9.943 -0.0617 -0.0325  0.1051
  370loPI   C2B 5918  16.376  16.796   9.531  0.1362 -0.0146  0.2530
  370loPI   C3B 5919  16.450  16.682   9.089 -0.1306 -0.0127  0.4445
  370loPI   C4B 5920  16.527  16.780   8.612  0.1379 -0.0405  0.1150
  371loPI    C1 5921  12.201  14.451  10.908  0.0628 -0.2309 -0.0563
  371loPI    C2 5922  12.546  14.390  10.716  0.1283  0.0643 -0.0377
  371loPI    C3 5923  12.545  14.567  11.075 -0.0240 -0.1578  0.0743
  371loPI   PO4 5924  11.985  14.458  10.636  0.1627 -0.1671  0.0283
  371loPI   GL1 5925  11.975  14.415  10.199 -0.4454 -0.0583  0.0506
  371loPI   GL2 5926  12.355  14.472  10.221  0.1121  0.1158  0.1412
  371loPI   C1A 5927  12.029  14.276   9.769  0.1656  0.1744 -0.1941
  371loPI   C2A 5928  12.002  14.240   9.343  0.1722 -0.0166  0.1387
  371loPI   C3A 5929  11.710  14.435   9.117 -0.0358  0.1276  0.1149
  371loPI   C4A 5930  11.547  14.411   8.697  0.3311  0.0199 -0.0198
  371loPI   C5A 5931  11.638  14.286   8.276 -0.1176  0.0855 -0.0094
  371loPI   C6A 5932  12.131  14.057   8.016  0.0215  0.0316 -0.1190
  371loPI   C1B 5933  12.486  14.548   9.799 -0.0464 -0.0894  0.1320
  371loPI   C2B 5934  12.395  14.494   9.390 -0.1439 -0.2645  0.0422
  371loPI   C3B 5935  12.218  14.586   9.031  0.2801  0.0759  0.1224
  371loPI   C4B 5936  11.982  14.589   8.694 -0.0226  0.1163  0.2471
  372loPI    C1 5937  11.249  12.610  11.233 -0.0918  0.1366  0.1928
  372loPI    C2 5938  10.860  12.698  11.252 -0.1023  0.1317  0.0121
  372loPI    C3 5939  11.079  12.690  11.586 -0.2534  0.1495  0.1128
  372loPI   PO4 5940  11.262  12.406  11.049 -0.0677 -0.1172 -0.1524
  372loPI   GL1 5941  11.232  12.458  10.539  0.2929  0.0071  0.1610
  372loPI   GL2 5942  11.309  12.134  10.600 -0.2745  0.1208  0.3098
  372loPI   C1A 5943  10.878  12.409  10.290 -0.3046  0.0329  0.0763
  372loPI   C2A 5944  10.791  12.303   9.837 -0.0054  0.1363  0.0498
  372loPI   C3A 5945  10.799  12.234   9.368  0.0591 -0.0117  0.0506
  372loPI   C4A 5946  10.914  12.287   8.969 -0.0474  0.1973  0.2599
  372loPI   C5A 5947  10.799  12.028   8.597  0.1289  0.2341  0.1295
  372loPI   C6A 5948  11.077  11.688   8.318 -0.0568  0.0273  0.0648
  372loPI   C1B 5949  11.270  11.972  10.109  0.1396 -0.3469 -0.0210
  372loPI   C2B 5950  11.229  12.003   9.744 -0.0122 -0.0949  0.0151
  372loPI   C3B 5951  11.240  11.915   9.342 -0.0057 -0.0784  0.1068
  372loPI   C4B 5952  11.179  11.844   8.884 -0.2693  0.0014 -0.0466
  373loPI    C1 5953   9.124   3.861  11.043  0.3082  0.1907  0.2094
  373loPI    C2 5954   8.740   3.933  11.129  0.2653  0.0813  0.1119
  373loPI    C3 5955   8.970   4.225  10.984  0.1414  0.0734 -0.1054
  373loPI   PO4 5956   9.109   3.692  10.841  0.0062 -0.2067  0.2887
  373loPI   GL1 5957   9.375   3.662  10.470  0.1227  0.0629  0.1173
  373loPI   GL2 5958   9.694   3.538  10.306  0.2374  0.0944 -0.0772
  373loPI   C1A 5959   9.224   3.894  10.158 -0.0943 -0.2054 -0.0912
  373loPI   C2A 5960   9.128   3.927   9.742 -0.0046 -0.0299  0.1232
  373loPI   C3A 5961   9.177   3.869   9.332  0.0660 -0.1506  0.0775
  373loPI   C4A 5962   9.195   3.916   8.870 -0.0849  0.2711 -0.0014
  373loPI   C5A 5963   9.214   3.965   8.491  0.0261 -0.1426  0.2112
  373loPI   C6A 5964   9.597   4.141   8.327  0.0619 -0.2652 -0.1071
  373loPI   C1B 5965   9.677   3.722   9.981  0.1639 -0.1265 -0.0038
  373loPI   C2B 5966   9.812   3.991   9.596  0.1059  0.2754 -0.1531
  373loPI   C3B 5967   9.629   4.017   9.195 -0.1414  0.0604 -0.2907
  373loPI   C4B 5968   9.703   3.860   8.779  0.1457  0.1279  0.1974
  374loPI    C1 5969   0.420   4.031  11.734 -0.3366 -0.0264  0.0664
  374loPI    C2 5970   0.437   3.710  11.972 -0.0395 -0.0875 -0.0337
  374loPI    C3 5971   0.418   4.076  12.132 -0.0231 -0.1372  0.0835
  374loPI   PO4 5972   0.349   3.922  11.416  0.2296  0.0271  0.0583
  374loPI   GL1 5973   0.465   3.880  10.976  0.0521  0.3459  0.3168
  374loPI   GL2 5974   0.655   4.137  11.038  0.0757 -0.1938  0.3938
  374loPI   C1A 5975   0.506   3.679  10.553  0.3777 -0.0097  0.0192
  374loPI   C2A 5976   0.456   3.643  10.107 -0.2056 -0.1046 -0.1184
  374loPI   C3A 5977   0.420   3.685   9.683  0.0846  0.0498  0.1438
  374loPI   C4A 5978   0.466   3.651   9.198 -0.0080 -0.0586 -0.1319
  374loPI   C5A 5979   0.552   3.688   8.767  0.0345 -0.1671  0.2045
  374loPI   C6A 5980   0.465   4.194   8.648 -0.1129  0.3895 -0.1903
  374loPI   C1B 5981   0.625   4.148  10.583  0.2391  0.5121 -0.0327
  374loPI   C2B 5982   0.620   4.293  10.095 -0.0502  0.0405  0.0033
  374loPI   C3B 5983   0.618   4.157   9.669 -0.0126  0.3420 -0.2554
  374loPI   C4B 5984   0.613   4.118   9.166 -0.2284 -0.4218  0.0222
  375loPI    C1 5985  11.271   9.349  11.531  0.3195  0.1627  0.0704
  375loPI    C2 5986  11.332   9.706  11.701  0.0630  0.1728  0.1453
  375loPI    C3 5987  11.505   9.379  11.854  0.1031  0.2299  0.2224
  375loPI   PO4 5988  11.267   9.452  11.249 -0.0916 -0.1209 -0.2701
  375loPI   GL1 5989  10.974   9.528  10.960  0.0858  0.0405 -0.0068
  375loPI   GL2 5990  11.020   9.903  10.825 -0.0855 -0.0283  0.0417
  375loPI   C1A 5991  10.908   9.401  10.532  0.1896  0.2978  0.4793
  375loPI   C2A 5992  10.912   9.456  10.057 -0.2351  0.1360 -0.0562
  375loPI   C3A 5993  10.838   9.377   9.652  0.1927 -0.0984  0.0526
  375loPI   C4A 5994  10.813   9.465   9.241 -0.1913 -0.2359 -0.0085
  375loPI   C5A 5995  10.799   9.441   8.739 -0.2859  0.0195  0.1084
  375loPI   C6A 5996  10.497   9.521   8.359 -0.2460 -0.1991  0.2210
  375loPI   C1B 5997  11.035   9.964  10.427  0.2493  0.0529  0.0088
  375loPI   C2B 5998  10.971   9.959   9.988  0.0992  0.2508  0.0722
  375loPI   C3B 5999  10.877   9.869   9.559  0.1005 -0.1240 -0.0287
  375loPI   C4B 6000  10.915   9.912   9.084  0.2755  0.1061 -0.0996
  376loPI    C1 6001  12.335  16.290  10.629  0.0732 -0.0325 -0.2812
  376loPI    C2 6002  12.278  16.317  11.024  0.2502  0.0361 -0.2592
  376loPI    C3 6003  12.076  16.556  10.776  0.1691  0.0213 -0.2080
  376loPI   PO4 6004  12.475  16.074  10.606 -0.0276  0.1861  0.0120
  376loPI   GL1 6005  12.607  15.821  10.262  0.0735 -0.0903 -0.2451
  376loPI   GL2 6006  12.558  16.121  10.107  0.0632 -0.0250 -0.1682
  376loPI   C1A 6007  12.564  15.596   9.931  0.2812 -0.0033  0.1260
  376loPI   C2A 6008  12.513  15.491   9.470  0.1643 -0.0776  0.2571
  376loPI   C3A 6009  12.574  15.494   9.133  0.1420 -0.3388 -0.0217
  376loPI   C4A 6010  12.630  15.561   8.774 -0.0118  0.0382  0.1445
  376loPI   C5A 6011  12.730  15.208   8.371 -0.0043  0.0220  0.1121
  376loPI   C6A 6012  12.723  14.771   8.312 -0.0348 -0.0536  0.1835
  376loPI   C1B 6013  12.445  16.061   9.734 -0.2022  0.1159  0.0310
  376loPI   C2B 6014  12.479  15.972   9.319 -0.1033 -0.3035 -0.0183
  376loPI   C3B 6015  12.495  16.087   8.940  0.3286  0.1776  0.1356
  376loPI   C4B 6016  12.562  15.990   8.483  0.0497  0.0879  0.0446
  377loPI    C1 6017   7.694   4.340  11.180  0.1689 -0.1958 -0.1654
  377loPI    C2 6018   7.688   3.992  11.378  0.0080 -0.1111 -0.0198
  377loPI    C3 6019   7.936   4.284  11.493  0.0973 -0.1540 -0.1024
  377loPI   PO4 6020   7.428   4.236  10.987  0.0165 -0.1308  0.1014
  377loPI   GL1 6021   7.508   4.113  10.646 -0.0215 -0.0309 -0.0126
  377loPI   GL2 6022   7.711   3.941  10.445  0.0199 -0.0482 -0.0456
  377loPI   C1A 6023   7.234   3.881  10.351 -0.2878  0.5150 -0.1328
  377loPI   C2A 6024   7.200   3.848   9.896 -0.0448  0.1157  0.0182
  377loPI   C3A 6025   7.166   3.925   9.518  0.1526  0.2861  0.1715
  377loPI   C4A 6026   7.367   3.906   9.167  0.1320 -0.1345  0.1054
  377loPI   C5A 6027   7.340   4.005   8.765 -0.0098 -0.3296  0.0543
  377loPI   C6A 6028   7.577   3.928   8.426  0.0105  0.0433  0.3677
  377loPI   C1B 6029   7.543   4.169  10.095 -0.1645 -0.2351 -0.0819
  377loPI   C2B 6030   7.561   4.229   9.659 -0.1480 -0.0141  0.2832
  377loPI   C3B 6031   7.461   4.429   9.239 -0.1512 -0.2433 -0.0884
  377loPI   C4B 6032   7.424   4.463   8.834 -0.1321  0.0484  0.1824
  378loPI    C1 6033   6.391   4.145  11.274 -0.2261 -0.0810 -0.0003
  378loPI    C2 6034   6.749   4.167  11.452 -0.1301 -0.0961 -0.1893
  378loPI    C3 6035   6.480   3.898  11.576 -0.1462  0.0387  0.0747
  378loPI   PO4 6036   6.419   4.070  11.061 -0.3444  0.2466  0.0331
  378loPI   GL1 6037   6.143   4.111  10.788 -0.0529 -0.3472 -0.0177
  378loPI   GL2 6038   6.008   4.415  10.628  0.1344  0.0758 -0.1838
  378loPI   C1A 6039   5.861   3.940  10.502 -0.0578 -0.1090 -0.0940
  378loPI   C2A 6040   5.878   3.955  10.012 -0.1124 -0.1267  0.1406
  378loPI   C3A 6041   5.998   3.942   9.603  0.1219  0.0398 -0.1631
  378loPI   C4A 6042   5.903   3.845   9.171  0.0213  0.0918 -0.0493
  378loPI   C5A 6043   5.872   3.920   8.785  0.0714 -0.0016  0.1731
  378loPI   C6A 6044   6.155   3.784   8.475  0.1312  0.1028  0.2145
  378loPI   C1B 6045   6.041   4.386  10.217  0.0717 -0.2579 -0.2189
  378loPI   C2B 6046   6.096   4.456   9.791 -0.3002  0.1506 -0.0673
  378loPI   C3B 6047   6.057   4.432   9.411  0.0443 -0.0146  0.1526
  378loPI   C4B 6048   6.065   4.449   8.903  0.1140 -0.1298  0.3036
  379loPI    C1 6049  11.885  13.305  10.610 -0.1974  0.0245  0.0784
  379loPI    C2 6050  12.005  12.924  10.583  0.0802  0.1336 -0.3155
  379loPI    C3 6051  11.893  13.074  10.936  0.2971 -0.2154 -0.0930
  379loPI   PO4 6052  12.006  13.494  10.516 -0.0329 -0.1284 -0.0144
  379loPI   GL1 6053  12.167  13.552  10.214 -0.0905  0.0171  0.1163
  379loPI   GL2 6054  12.374  13.858  10.199  0.1142  0.1796  0.0620
  379loPI   C1A 6055  12.265  13.429   9.821 -0.0783  0.3066 -0.0094
  379loPI   C2A 6056  12.333  13.382   9.382 -0.2469 -0.1227  0.0932
  379loPI   C3A 6057  12.337  13.268   8.956  0.0019  0.2997  0.1389
  379loPI   C4A 6058  12.509  13.362   8.565 -0.2217 -0.1367 -0.1488
  379loPI   C5A 6059  12.946  13.428   8.493 -0.2332  0.0676  0.2086
  379loPI   C6A 6060  13.295  13.762   8.523 -0.0156 -0.0029 -0.0103
  379loPI   C1B 6061  12.384  13.933   9.824  0.1645  0.0067 -0.1304
  379loPI   C2B 6062  12.335  13.851   9.473 -0.4254 -0.0213  0.1849
  379loPI   C3B 6063  12.343  13.922   9.144 -0.1680  0.1457 -0.1181
  379loPI   C4B 6064  12.029  14.115   8.838 -0.3448  0.0639  0.3003
  380loPI    C1 6065  13.861   6.761  11.435 -0.1561 -0.1251  0.0177
  380loPI    C2 6066  13.611   6.664  11.731 -0.3225 -0.0955 -0.1120
  380loPI    C3 6067  13.715   7.046  11.675  0.1475 -0.1612  0.2516
  380loPI   PO4 6068  13.746   6.524  11.183 -0.1544 -0.0412  0.0061
  380loPI   GL1 6069  13.670   6.532  10.799 -0.1725 -0.0066 -0.0193
  380loPI   GL2 6070  13.472   6.280  10.752 -0.3170  0.1430 -0.1687
  380loPI   C1A 6071  13.792   6.754  10.351 -0.2059 -0.2640 -0.0409
  380loPI   C2A 6072  13.680   6.619   9.942 -0.1236  0.4594 -0.2712
  380loPI   C3A 6073  13.691   6.768   9.561  0.4017  0.0761  0.0410
  380loPI   C4A 6074  13.630   6.765   9.191 -0.2515 -0.0776  0.3034
  380loPI   C5A 6075  13.780   7.038   8.838  0.0558 -0.2046  0.3530
  380loPI   C6A 6076  14.047   6.903   8.514  0.0639 -0.3264 -0.1039
  380loPI   C1B 6077  13.461   6.330  10.408  0.0182 -0.3232 -0.0325
  380loPI   C2B 6078  13.292   6.241  10.028  0.0563  0.2052  0.1121
  380loPI   C3B 6079  13.205   6.394   9.636  0.2300 -0.0762 -0.3226
  380loPI   C4B 6080  13.218   6.432   9.099  0.3533 -0.0647  0.1835
  381loPI    C1 6081   4.989   3.241  11.545  0.1114 -0.0944  0.0425
  381loPI    C2 6082   4.874   3.281  11.927  0.2389  0.1548  0.0570
  381loPI    C3 6083   5.252   3.181  11.840  0.0887 -0.4015  0.0035
  381loPI   PO4 6084   4.731   3.284  11.365  0.1206  0.0010  0.0926
  381loPI   GL1 6085   4.631   3.226  11.012 -0.0405 -0.0836  0.0977
  381loPI   GL2 6086   4.342   3.269  10.877 -0.2991  0.2678  0.1074
  381loPI   C1A 6087   4.945   3.378  10.633  0.2194 -0.1631 -0.3885
  381loPI   C2A 6088   4.973   3.372  10.260 -0.0055  0.2283 -0.0734
  381loPI   C3A 6089   5.027   3.425   9.758  0.0353 -0.1725 -0.2581
  381loPI   C4A 6090   4.994   3.488   9.331 -0.2862  0.0789  0.1814
  381loPI   C5A 6091   4.923   3.679   8.954 -0.0954 -0.1601 -0.0956
  381loPI   C6A 6092   4.682   4.034   8.854 -0.0604  0.1000  0.2401
  381loPI   C1B 6093   4.467   3.312  10.526  0.0170  0.3664  0.1985
  381loPI   C2B 6094   4.520   3.341  10.051 -0.1600  0.0829  0.1649
  381loPI   C3B 6095   4.502   3.309   9.561  0.1986 -0.3203  0.2406
  381loPI   C4B 6096   4.499   3.482   9.157  0.0004 -0.0155 -0.1629
  382loPI    C1 6097  15.272  13.016  11.011 -0.0440 -0.0562  0.0766
  382loPI    C2 6098  15.329  13.202  11.361 -0.1051 -0.0331  0.0744
  382loPI    C3 6099  15.155  12.841  11.351  0.1613 -0.1643  0.0931
  382loPI   PO4 6100  15.192  13.218  10.819 -0.1024 -0.0980 -0.2154
  382loPI   GL1 6101  14.977  13.484  10.572  0.2129 -0.4077  0.2288
  382loPI   GL2 6102  15.132  13.741  10.444  0.0143  0.0619  0.2171
  382loPI   C1A 6103  14.977  13.180  10.147  0.3940 -0.0714 -0.2681
  382loPI   C2A 6104  14.997  13.111   9.752 -0.3708 -0.1013  0.3912
  382loPI   C3A 6105  15.079  13.131   9.274  0.0291  0.0083 -0.0472
  382loPI   C4A 6106  15.157  13.053   8.876 -0.1415  0.0790  0.0300
  382loPI   C5A 6107  15.454  13.126   8.580  0.0790 -0.1172 -0.1242
  382loPI   C6A 6108  15.534  12.842   8.239  0.3612 -0.2050 -0.0601
  382loPI   C1B 6109  15.085  13.733  10.011 -0.0248 -0.1704 -0.0883
  382loPI   C2B 6110  15.096  13.564   9.580  0.0280 -0.2008 -0.3267
  382loPI   C3B 6111  15.111  13.626   9.167  0.3642  0.1907 -0.1362
  382loPI   C4B 6112  15.115  13.585   8.774  0.2158 -0.3269 -0.0958
  383loPI    C1 6113   7.618   1.967  10.936 -0.0209 -0.0144  0.1321
  383loPI    C2 6114   7.442   1.608  10.920  0.1758 -0.1025 -0.1340
  383loPI    C3 6115   7.713   1.685  11.203 -0.0626 -0.0692  0.0895
  383loPI   PO4 6116   7.537   2.030  10.659 -0.0204  0.0900 -0.2689
  383loPI   GL1 6117   7.396   1.907  10.199  0.1316 -0.2508 -0.0054
  383loPI   GL2 6118   7.338   1.580  10.066 -0.0603 -0.1539 -0.0479
  383loPI   C1A 6119   7.268   2.209   9.809  0.1232  0.0990  0.1454
  383loPI   C2A 6120   7.287   2.294   9.331 -0.2389  0.3552  0.0695
  383loPI   C3A 6121   7.109   2.479   9.032  0.0615 -0.1920  0.2502
  383loPI   C4A 6122   7.043   2.574   8.698 -0.2719 -0.0647  0.2864
  383loPI   C5A 6123   7.408   2.704   8.431  0.2809  0.0556 -0.3307
  383loPI   C6A 6124   7.809   2.536   8.274 -0.1028  0.3879  0.1420
  383loPI   C1B 6125   7.489   1.786   9.650  0.1404 -0.2751  0.3406
  383loPI   C2B 6126   7.474   1.830   9.266  0.3349  0.2430  0.0842
  383loPI   C3B 6127   7.166   1.863   8.971 -0.2508 -0.2336 -0.1588
  383loPI   C4B 6128   7.010   2.091   8.571  0.1864 -0.0564  0.0036
  384loPI    C1 6129   6.165   5.599  11.508  0.0840  0.0043  0.0574
  384loPI    C2 6130   6.052   5.259  11.687  0.2107 -0.1649 -0.1789
  384loPI    C3 6131   6.194   5.562  11.905  0.0142 -0.2301  0.0427
  384loPI   PO4 6132   6.308   5.530  11.287 -0.1731  0.1998  0.2397
  384loPI   GL1 6133   6.454   5.703  10.931 -0.0209 -0.0636 -0.1965
  384loPI   GL2 6134   6.727   5.752  10.927  0.0350 -0.1852  0.1908
  384loPI   C1A 6135   6.498   5.872  10.478 -0.1168  0.3510 -0.3159
  384loPI   C2A 6136   6.399   5.934   9.946 -0.1275 -0.0021 -0.0764
  384loPI   C3A 6137   6.188   6.042   9.600 -0.1402  0.0245 -0.1218
  384loPI   C4A 6138   6.276   5.934   9.169  0.0198 -0.1952  0.2982
  384loPI   C5A 6139   6.129   5.919   8.821  0.0395 -0.3372 -0.0429
  384loPI   C6A 6140   6.144   5.554   8.684 -0.0951  0.4011  0.0393
  384loPI   C1B 6141   6.991   5.853  10.577  0.1034  0.3879 -0.2261
  384loPI   C2B 6142   6.799   5.639  10.157  0.0041  0.4091 -0.1102
  384loPI   C3B 6143   6.857   5.691   9.806 -0.0416 -0.1742 -0.1216
  384loPI   C4B 6144   6.768   5.655   9.415 -0.3237  0.0508 -0.0680
  385loPI    C1 6145  16.411   4.818  11.425  0.1515 -0.1573 -0.2194
  385loPI    C2 6146  16.718   4.897  11.670  0.0773  0.0325 -0.1854
  385loPI    C3 6147  16.430   4.644  11.785  0.0271  0.1446 -0.0629
  385loPI   PO4 6148  16.486   5.006  11.274 -0.3746 -0.0236  0.2311
  385loPI   GL1 6149  16.745   5.095  10.918  0.0189 -0.0402 -0.0807
  385loPI   GL2 6150  16.974   5.109  10.610  0.0344 -0.3290 -0.0157
  385loPI   C1A 6151  16.447   4.907  10.610  0.2218  0.0737 -0.0372
  385loPI   C2A 6152  16.558   4.988  10.183 -0.0011 -0.1386 -0.0140
  385loPI   C3A 6153  16.593   5.044   9.726  0.1005  0.0814  0.0276
  385loPI   C4A 6154  16.448   4.975   9.332 -0.0683 -0.1447 -0.1579
  385loPI   C5A 6155  16.472   5.015   8.942 -0.0288  0.2938  0.0018
  385loPI   C6A 6156  16.657   5.042   8.472 -0.0800 -0.0124  0.2710
  385loPI   C1B 6157  17.041   5.204  10.178  0.0512  0.1507 -0.3720
  385loPI   C2B 6158  17.068   5.230   9.826  0.0004 -0.0938 -0.1434
  385loPI   C3B 6159  16.967   5.193   9.397 -0.1974 -0.0309 -0.1565
  385loPI   C4B 6160  16.944   5.032   9.001  0.1800 -0.0245  0.3726
  386loPI    C1 6161   0.390  15.819  11.104 -0.3116  0.0656 -0.2126
  386loPI    C2 6162   0.118  15.759  11.391  0.2235  0.0117  0.3027
  386loPI    C3 6163   0.370  15.466  11.290  0.0769  0.0476 -0.1971
  386loPI   PO4 6164   0.291  15.937  10.862 -0.0333 -0.1911  0.2347
  386loPI   GL1 6165   0.435  15.967  10.469 -0.3341  0.3004 -0.0184
  386loPI   GL2 6166   0.506  15.655  10.242  0.0053  0.0158 -0.0402
  386loPI   C1A 6167   0.172  16.057  10.171  0.0734  0.6113  0.3015
  386loPI   C2A 6168   0.074  16.235   9.700 -0.0544 -0.0482 -0.1717
  386loPI   C3A 6169   0.073  16.239   9.253  0.2305  0.4001 -0.0641
  386loPI   C4A 6170   0.105  16.306   8.843 -0.0667  0.1883 -0.3214
  386loPI   C5A 6171  -0.243  16.429   8.563  0.0031  0.0825  0.0066
  386loPI   C6A 6172  -0.137  16.667   8.154  0.2844  0.0118  0.0245
  386loPI   C1B 6173   0.447  15.786   9.853 -0.2250  0.0157  0.0172
  386loPI   C2B 6174   0.354  15.817   9.386  0.2514  0.2790  0.1413
  386loPI   C3B 6175   0.425  15.903   8.900 -0.1441 -0.1666 -0.0058
  386loPI   C4B 6176   0.401  15.765   8.388  0.0879  0.3415 -0.0867
  387loPI    C1 6177  11.750   3.527  11.187  0.3946 -0.0039 -0.1360
  387loPI    C2 6178  11.761   3.917  11.276 -0.2744 -0.0299  0.1216
  387loPI    C3 6179  11.644   3.652  11.552  0.4029 -0.4529  0.0265
  387loPI   PO4 6180  11.909   3.536  10.985 -0.1479 -0.2194  0.0558
  387loPI   GL1 6181  12.192   3.748  10.753 -0.1211 -0.1355  0.1905
  387loPI   GL2 6182  11.991   3.519  10.462  0.0077  0.0895  0.1642
  387loPI   C1A 6183  12.191   3.925  10.291 -0.1494  0.0526 -0.1846
  387loPI   C2A 6184  12.212   3.985   9.885 -0.0454 -0.0403 -0.0322
  387loPI   C3A 6185  12.105   3.912   9.547  0.3259 -0.1116  0.5101
  387loPI   C4A 6186  11.972   3.945   9.236 -0.0289 -0.0023 -0.0438
  387loPI   C5A 6187  11.966   3.996   8.818 -0.0901 -0.0649 -0.1675
  387loPI   C6A 6188  11.667   4.094   8.444 -0.1364 -0.0949  0.3406
  387loPI   C1B 6189  11.782   3.577  10.067 -0.0221  0.0629 -0.1577
  387loPI   C2B 6190  11.756   3.571   9.724 -0.0580  0.3080 -0.2117
  387loPI   C3B 6191  11.538   3.670   9.337 -0.0981  0.0960  0.1877
  387loPI   C4B 6192  11.547   3.791   8.881  0.1703  0.1230 -0.0738
  388loPI    C1 6193   3.332   0.463  11.260  0.0654  0.0677  0.0498
  388loPI    C2 6194   2.961   0.336  11.338  0.0269  0.0385 -0.1745
  388loPI    C3 6195   3.270   0.190  11.545 -0.0985  0.1569  0.1013
  388loPI   PO4 6196   3.258   0.594  10.969 -0.0028 -0.0456  0.0425
  388loPI   GL1 6197   3.106   0.661  10.669  0.3191 -0.1635  0.2202
  388loPI   GL2 6198   2.840   0.931  10.685  0.1435  0.1777 -0.1485
  388loPI   C1A 6199   3.085   0.799  10.237  0.0576 -0.2025  0.3904
  388loPI   C2A 6200   3.045   0.885   9.795  0.0194 -0.1406 -0.3016
  388loPI   C3A 6201   3.158   0.901   9.272 -0.1357 -0.0770 -0.2693
  388loPI   C4A 6202   3.106   1.037   8.840 -0.1948  0.1194 -0.1821
  388loPI   C5A 6203   3.041   1.225   8.482 -0.2861 -0.1864 -0.3193
  388loPI   C6A 6204   2.931   1.465   8.089 -0.0375  0.1945  0.3558
  388loPI   C1B 6205   2.763   1.142  10.298 -0.0033  0.3545  0.0091
  388loPI   C2B 6206   2.698   1.174   9.878 -0.1229 -0.2406  0.0437
  388loPI   C3B 6207   2.732   1.255   9.486 -0.0215 -0.1215 -0.0908
  388loPI   C4B 6208   2.736   1.266   9.028 -0.1842  0.1687  0.0193
  389loPI    C1 6209  17.344   1.971  11.458  0.0291  0.0532 -0.0800
  389loPI    C2 6210  17.725   2.034  11.562 -0.0050  0.0494  0.0487
  389loPI    C3 6211  17.445   2.302  11.659 -0.0375  0.0446 -0.0320
  389loPI   PO4 6212  17.317   1.990  11.149 -0.1308  0.2279  0.4211
  389loPI   GL1 6213  17.410   1.804  10.776  0.1830 -0.0920 -0.1983
  389loPI   GL2 6214  17.553   2.117  10.700 -0.0614 -0.0888  0.1153
  389loPI   C1A 6215  17.250   1.969  10.305  0.3228 -0.0825  0.1569
  389loPI   C2A 6216  17.327   1.954   9.855  0.2254  0.1257  0.0127
  389loPI   C3A 6217  17.256   1.886   9.384  0.1874 -0.3358 -0.0685
  389loPI   C4A 6218  17.423   1.964   9.030 -0.0591  0.1800 -0.0686
  389loPI   C5A 6219  17.500   2.116   8.640 -0.0729  0.0859 -0.0394
  389loPI   C6A 6220  17.214   2.351   8.393  0.0055 -0.1096 -0.0751
  389loPI   C1B 6221  17.760   2.144  10.379  0.1659 -0.2244 -0.0142
  389loPI   C2B 6222  17.789   2.138   9.903 -0.1964 -0.0137 -0.2324
  389loPI   C3B 6223  17.774   2.085   9.463 -0.3591 -0.2707  0.3203
  389loPI   C4B 6224  17.793   2.266   9.025  0.1127 -0.2444  0.0382
  390loPI    C1 6225  13.654   1.719  11.086  0.2909 -0.0001 -0.0413
  390loPI    C2 6226  13.729   1.372  11.271 -0.0284  0.0524  0.1965
  390loPI    C3 6227  13.356   1.462  11.159  0.0578  0.3053  0.1056
  390loPI   PO4 6228  13.867   1.799  10.899  0.1675 -0.3512  0.3862
  390loPI   GL1 6229  14.133   1.593  10.542 -0.0166  0.1681  0.3125
  390loPI   GL2 6230  14.311   1.306  10.422 -0.0351  0.1003 -0.2026
  390loPI   C1A 6231  14.313   1.830  10.113  0.3378  0.0493  0.1654
  390loPI   C2A 6232  14.367   1.967   9.684  0.2907  0.0033 -0.3513
  390loPI   C3A 6233  14.431   1.869   9.308  0.0659 -0.3214 -0.2413
  390loPI   C4A 6234  14.663   1.873   8.976  0.0560  0.0890 -0.2055
  390loPI   C5A 6235  14.894   1.661   8.518  0.1512 -0.1310  0.4277
  390loPI   C6A 6236  14.912   1.405   8.179  0.1623  0.0992  0.1319
  390loPI   C1B 6237  14.273   1.306  10.077  0.4229  0.1408  0.2288
  390loPI   C2B 6238  14.339   1.239   9.720  0.3415  0.0313 -0.2167
  390loPI   C3B 6239  14.472   1.361   9.209  0.1115 -0.1975  0.0959
  390loPI   C4B 6240  14.528   1.407   8.764  0.2670  0.1984 -0.1526
  391loPI    C1 6241   6.640  16.282  11.023 -0.1118 -0.0302 -0.0306
  391loPI    C2 6242   6.408  16.355  11.341 -0.1680  0.0874 -0.0982
  391loPI    C3 6243   6.694  16.077  11.362 -0.0532  0.2187  0.1136
  391loPI   PO4 6244   6.519  16.239  10.829  0.1551  0.2026  0.0669
  391loPI   GL1 6245   6.306  16.366  10.417  0.0214  0.0323  0.1643
  391loPI   GL2 6246   5.978  16.274  10.537  0.0427  0.2706 -0.2599
  391loPI   C1A 6247   6.428  16.373   9.989  0.1451 -0.1241  0.0267
  391loPI   C2A 6248   6.467  16.255   9.589 -0.2460 -0.3629 -0.0364
  391loPI   C3A 6249   6.424  16.299   9.199 -0.2240 -0.0581 -0.1418
  391loPI   C4A 6250   6.465  16.254   8.913  0.1969 -0.0866 -0.2390
  391loPI   C5A 6251   6.389  16.412   8.529  0.0928 -0.2344 -0.0717
  391loPI   C6A 6252   6.643  16.514   8.064  0.2116  0.3831  0.4866
  391loPI   C1B 6253   5.941  16.129  10.085  0.2267  0.2383  0.1274
  391loPI   C2B 6254   6.066  16.034   9.685 -0.0255  0.1786  0.2472
  391loPI   C3B 6255   5.911  16.089   9.311 -0.1670 -0.0914 -0.1023
  391loPI   C4B 6256   5.959  16.257   8.843 -0.1988  0.1197  0.2428
  392loPI    C1 6257  13.968  11.187  11.777  0.0288 -0.1747 -0.0893
  392loPI    C2 6258  13.582  11.180  11.884 -0.0091  0.3054 -0.1704
  392loPI    C3 6259  13.857  11.331  12.133  0.1480 -0.1358 -0.0675
  392loPI   PO4 6260  14.012  10.959  11.663  0.0224  0.0990 -0.1856
  392loPI   GL1 6261  14.120  10.801  11.256  0.2186  0.2077  0.0799
  392loPI   GL2 6262  14.366  10.780  11.170  0.2550  0.2321  0.0040
  392loPI   C1A 6263  14.015  10.826  10.844 -0.1874 -0.0546  0.1015
  392loPI   C2A 6264  14.187  10.925  10.387  0.0252  0.1768 -0.2806
  392loPI   C3A 6265  14.265  10.867  10.009  0.0927  0.4267  0.1116
  392loPI   C4A 6266  14.185  10.839   9.654 -0.0729 -0.0786  0.0822
  392loPI   C5A 6267  14.198  10.812   9.139 -0.1759  0.2556 -0.0529
  392loPI   C6A 6268  14.101  11.000   8.793  0.0634 -0.2048 -0.2216
  392loPI   C1B 6269  14.552  10.599  10.708  0.0042 -0.0220 -0.0183
  392loPI   C2B 6270  14.549  10.568  10.310 -0.1017 -0.1087  0.1696
  392loPI   C3B 6271  14.702  10.449   9.916  0.3966 -0.4695 -0.1136
  392loPI   C4B 6272  14.598  10.576   9.417 -0.3110  0.3363  0.1735
  393loPI    C1 6273  16.945  13.606  10.997  0.0337 -0.0507  0.2268
  393loPI    C2 6274  17.168  13.538  11.322  0.0305  0.0464  0.2496
  393loPI    C3 6275  16.827  13.745  11.353 -0.0959 -0.1553  0.2254
  393loPI   PO4 6276  17.162  13.572  10.752  0.5570 -0.3822  0.1945
  393loPI   GL1 6277  17.301  13.567  10.278  0.2033  0.0019 -0.0026
  393loPI   GL2 6278  16.968  13.382  10.265 -0.1510  0.1061  0.1323
  393loPI   C1A 6279  17.398  13.521   9.809  0.0360  0.2302  0.0775
  393loPI   C2A 6280  17.356  13.594   9.367 -0.1211  0.0003  0.0588
  393loPI   C3A 6281  17.321  13.591   8.939  0.0871  0.0458 -0.3091
  393loPI   C4A 6282  17.617  13.863   8.626 -0.1883 -0.0245  0.3159
  393loPI   C5A 6283  17.870  13.673   8.376  0.1123  0.1144 -0.0157
  393loPI   C6A 6284  17.818  13.421   8.014 -0.0551  0.0749 -0.1300
  393loPI   C1B 6285  16.856  13.382   9.924  0.2306 -0.0796 -0.0156
  393loPI   C2B 6286  16.876  13.361   9.415  0.1681 -0.0552  0.0689
  393loPI   C3B 6287  16.847  13.430   8.943  0.0519 -0.1756  0.1903
  393loPI   C4B 6288  16.931  13.287   8.517 -0.2520 -0.2504  0.2129
  394loPI    C1 6289  15.202   6.817  11.692  0.1226  0.1615 -0.1839
  394loPI    C2 6290  14.832   6.913  11.809  0.0888 -0.0598 -0.1050
  394loPI    C3 6291  15.076   6.718  12.058  0.0522 -0.4441 -0.3617
  394loPI   PO4 6292  15.319   6.910  11.541  0.2535 -0.5574  0.3623
  394loPI   GL1 6293  15.363   7.051  11.120 -0.0819  0.1697  0.0084
  394loPI   GL2 6294  15.090   6.857  10.940 -0.0733  0.2453 -0.1200
  394loPI   C1A 6295  15.502   7.038  10.683  0.0989  0.2748  0.1298
  394loPI   C2A 6296  15.552   7.028  10.297  0.2863  0.1895  0.0372
  394loPI   C3A 6297  15.567   7.029   9.895  0.1361  0.0806  0.1681
  394loPI   C4A 6298  15.445   6.992   9.421 -0.0433 -0.1053 -0.0356
  394loPI   C5A 6299  15.439   6.996   8.971  0.0785 -0.1295 -0.1030
  394loPI   C6A 6300  15.268   6.773   8.579  0.1921  0.0387 -0.1263
  394loPI   C1B 6301  15.095   6.771  10.579 -0.2072 -0.0473 -0.0418
  394loPI   C2B 6302  15.093   6.835  10.201 -0.0208  0.0259 -0.0624
  394loPI   C3B 6303  15.091   6.846   9.714  0.0176  0.0471  0.1164
  394loPI   C4B 6304  14.972   6.862   9.258 -0.4500  0.1129  0.2935
  395loPI    C1 6305   8.539   6.325  11.116 -0.1385  0.2364 -0.0300
  395loPI    C2 6306   8.565   6.302  11.514 -0.1177 -0.0194 -0.0442
  395loPI    C3 6307   8.231   6.184  11.329  0.0237 -0.2898 -0.1308
  395loPI   PO4 6308   8.860   6.256  11.048 -0.0923  0.0780 -0.0309
  395loPI   GL1 6309   9.041   6.354  10.708 -0.0768 -0.2505 -0.0251
  395loPI   GL2 6310   8.668   6.480  10.619 -0.0982  0.1384  0.0602
  395loPI   C1A 6311   9.320   6.547  10.332  0.2221 -0.2653 -0.4871
  395loPI   C2A 6312   9.152   6.695   9.944  0.1048 -0.1812 -0.2134
  395loPI   C3A 6313   9.148   6.743   9.420 -0.2030  0.1943 -0.1798
  395loPI   C4A 6314   9.143   6.625   8.910  0.1513 -0.0885  0.0236
  395loPI   C5A 6315   9.072   6.628   8.509 -0.1252  0.0698  0.2810
  395loPI   C6A 6316   9.027   6.200   8.317 -0.0332 -0.0285  0.1506
  395loPI   C1B 6317   8.815   6.427  10.268 -0.0470  0.3926  0.1848
  395loPI   C2B 6318   8.631   6.388   9.899 -0.3822  0.2108 -0.0316
  395loPI   C3B 6319   8.622   6.498   9.412  0.0274 -0.2635 -0.0028
  395loPI   C4B 6320   8.673   6.475   9.037 -0.0127  0.0596  0.1576
  396loPI    C1 6321   9.612  16.987  10.026 -0.2464 -0.0385  0.1436
  396loPI    C2 6322   9.631  16.715  10.319 -0.0319 -0.0230  0.1455
  396loPI    C3 6323   9.944  16.953  10.247  0.0088 -0.1885 -0.2521
  396loPI   PO4 6324   9.368  17.069  10.045  0.3832 -0.0474 -0.1166
  396loPI   GL1 6325   9.079  17.080   9.844  0.1621 -0.0520 -0.3728
  396loPI   GL2 6326   8.862  16.836   9.816  0.3710 -0.2307  0.3573
  396loPI   C1A 6327   9.056  17.428   9.497 -0.0526 -0.1217  0.2077
  396loPI   C2A 6328   9.009  17.365   9.103  0.2851  0.0561 -0.1627
  396loPI   C3A 6329   9.072  17.303   8.689  0.1479  0.1563 -0.0633
  396loPI   C4A 6330   9.040  17.199   8.321  0.1341  0.1761  0.0592
  396loPI   C5A 6331   8.778  17.407   8.037  0.2678 -0.0353 -0.2491
  396loPI   C6A 6332   8.688  17.430   7.595 -0.0136 -0.1524 -0.1628
  396loPI   C1B 6333   8.762  16.983   9.353  0.0419  0.3074  0.0847
  396loPI   C2B 6334   8.730  16.985   8.915  0.0870 -0.0073  0.2152
  396loPI   C3B 6335   8.773  16.854   8.500 -0.1506 -0.1860 -0.0118
  396loPI   C4B 6336   9.032  16.691   8.189 -0.1442 -0.0961  0.3418
  397loPI    C1 6337   5.226  11.480  11.194  0.0343  0.3163  0.1919
  397loPI    C2 6338   5.037  11.350  11.522  0.1621 -0.0973  0.1067
  397loPI    C3 6339   5.422  11.456  11.542  0.1373 -0.0085  0.1149
  397loPI   PO4 6340   5.166  11.310  10.991 -0.1593 -0.0436  0.0024
  397loPI   GL1 6341   5.008  11.263  10.679 -0.2038 -0.0297  0.0331
  397loPI   GL2 6342   4.696  11.410  10.622  0.1915  0.1543 -0.0265
  397loPI   C1A 6343   4.852  11.230  10.203  0.0196  0.0871  0.1170
  397loPI   C2A 6344   4.803  11.242   9.680 -0.0973  0.1561 -0.2152
  397loPI   C3A 6345   4.910  11.227   9.264  0.1110  0.0897 -0.3380
  397loPI   C4A 6346   4.782  11.330   8.821 -0.0564  0.2312 -0.1842
  397loPI   C5A 6347   5.058  11.064   8.538  0.0915  0.0023 -0.2149
  397loPI   C6A 6348   5.271  10.777   8.464 -0.1217  0.1466  0.2596
  397loPI   C1B 6349   4.455  11.555  10.269 -0.0868  0.2524 -0.0814
  397loPI   C2B 6350   4.464  11.518   9.914 -0.1146 -0.2316 -0.0460
  397loPI   C3B 6351   4.501  11.537   9.455  0.1388 -0.0937 -0.1840
  397loPI   C4B 6352   4.501  11.631   9.134 -0.2072  0.1087  0.1390
  398loPI    C1 6353  16.138  15.827  11.165 -0.0821  0.0137 -0.1640
  398loPI    C2 6354  16.337  15.990  11.471 -0.0060  0.1267 -0.2724
  398loPI    C3 6355  15.992  15.798  11.536  0.1068 -0.0182 -0.0910
  398loPI   PO4 6356  16.327  15.905  10.975  0.5237 -0.2625 -0.0668
  398loPI   GL1 6357  16.404  15.854  10.606 -0.0552  0.1375  0.1476
  398loPI   GL2 6358  16.319  16.115  10.458  0.0940 -0.4206 -0.1361
  398loPI   C1A 6359  16.209  15.701  10.216 -0.1206 -0.3046 -0.1128
  398loPI   C2A 6360  16.226  15.650   9.820  0.1346 -0.1935 -0.1012
  398loPI   C3A 6361  16.281  15.626   9.419  0.1017  0.2854 -0.1952
  398loPI   C4A 6362  16.284  15.702   9.051 -0.0671  0.2588 -0.1896
  398loPI   C5A 6363  16.380  15.815   8.610  0.0876 -0.3104 -0.0728
  398loPI   C6A 6364  16.628  15.535   8.245  0.0238  0.2467 -0.1311
  398loPI   C1B 6365  16.383  16.128  10.016 -0.1718  0.0232 -0.1324
  398loPI   C2B 6366  16.237  16.232   9.697  0.3432  0.1088 -0.0795
  398loPI   C3B 6367  16.292  16.211   9.212 -0.3466  0.1595 -0.0077
  398loPI   C4B 6368  16.310  16.280   8.730  0.1931 -0.2226 -0.1737
  399loPI    C1 6369   4.355  17.200  11.126 -0.1736 -0.1147  0.0449
  399loPI    C2 6370   4.064  17.357  11.350 -0.0061  0.2031  0.0453
  399loPI    C3 6371   4.447  17.429  11.441  0.0707 -0.0500 -0.0707
  399loPI   PO4 6372   4.301  17.203  10.877  0.1676 -0.1299 -0.0526
  399loPI   GL1 6373   4.546  17.365  10.527  0.1282 -0.0579  0.2360
  399loPI   GL2 6374   4.802  17.228  10.358  0.3671  0.3685 -0.1330
  399loPI   C1A 6375   4.440  17.436  10.068  0.0262  0.2873  0.0156
  399loPI   C2A 6376   4.381  17.344   9.691 -0.2572 -0.1670 -0.1459
  399loPI   C3A 6377   4.349  17.552   9.347 -0.2602 -0.2103  0.1053
  399loPI   C4A 6378   4.272  17.705   8.933  0.3495 -0.0506 -0.1296
  399loPI   C5A 6379   4.168  17.446   8.479  0.3553  0.3617 -0.3313
  399loPI   C6A 6380   4.345  17.066   8.457 -0.1593  0.0025 -0.2531
  399loPI   C1B 6381   4.777  17.080   9.859 -0.0754  0.1363 -0.1198
  399loPI   C2B 6382   4.771  17.125   9.455 -0.0534  0.1245  0.0055
  399loPI   C3B 6383   4.683  17.248   9.060 -0.0373 -0.3118 -0.0986
  399loPI   C4B 6384   4.594  17.453   8.683  0.0459 -0.2477 -0.2362
  400loPI    C1 6385  14.254  12.433  11.379 -0.0079 -0.3029 -0.0113
  400loPI    C2 6386  13.906  12.431  11.182 -0.0535 -0.0645  0.0638
  400loPI    C3 6387  13.920  12.311  11.563 -0.0584 -0.0504  0.0685
  400loPI   PO4 6388  14.450  12.282  11.219 -0.2763  0.1251  0.2911
  400loPI   GL1 6389  14.560  12.284  10.863 -0.2898 -0.1585 -0.1128
  400loPI   GL2 6390  14.773  12.060  10.838 -0.0572 -0.3265  0.2619
  400loPI   C1A 6391  14.486  12.513  10.487 -0.1457  0.1031 -0.0389
  400loPI   C2A 6392  14.437  12.475  10.065  0.0997  0.0896  0.1568
  400loPI   C3A 6393  14.480  12.397   9.589  0.2177  0.0731 -0.0738
  400loPI   C4A 6394  14.358  12.414   9.166 -0.0785  0.0360 -0.0362
  400loPI   C5A 6395  14.297  12.246   8.789  0.0610  0.1090 -0.4267
  400loPI   C6A 6396  14.132  11.850   8.704  0.2025 -0.2372 -0.0549
  400loPI   C1B 6397  14.815  12.147  10.380  0.0572  0.0681  0.0202
  400loPI   C2B 6398  14.906  12.056   9.897  0.0556 -0.3945  0.0864
  400loPI   C3B 6399  14.922  12.052   9.454 -0.0261 -0.0547  0.2560
  400loPI   C4B 6400  14.682  12.082   9.083  0.1850  0.1455 -0.0638
  401loPI    C1 6401   3.339   9.182  11.583 -0.1225 -0.1803 -0.0885
  401loPI    C2 6402   3.271   8.998  11.931 -0.0993  0.1311  0.0846
  401loPI    C3 6403   3.425   9.367  11.927  0.2151  0.0027 -0.2654
  401loPI   PO4 6404   3.361   8.985  11.425  0.1844  0.2918  0.0645
  401loPI   GL1 6405   3.190   8.776  11.161 -0.0977 -0.3028 -0.0945
  401loPI   GL2 6406   3.164   8.477  11.154  0.1033 -0.0722 -0.3579
  401loPI   C1A 6407   3.219   9.040  10.744 -0.0498  0.3182  0.0562
  401loPI   C2A 6408   3.237   9.100  10.330 -0.0798 -0.0952 -0.2305
  401loPI   C3A 6409   3.212   9.277   9.915  0.1151  0.1693 -0.1127
  401loPI   C4A 6410   3.165   9.112   9.428 -0.1870 -0.1868 -0.0383
  401loPI   C5A 6411   3.065   9.141   9.015 -0.3384 -0.0691 -0.0564
  401loPI   C6A 6412   2.728   9.471   8.891  0.0339  0.1616  0.0898
  401loPI   C1B 6413   3.260   8.574  10.716  0.2773  0.1311 -0.0900
  401loPI   C2B 6414   3.175   8.628  10.395 -0.2287  0.0012 -0.0246
  401loPI   C3B 6415   3.135   8.702  10.041 -0.2062  0.3140  0.1638
  401loPI   C4B 6416   3.171   8.649   9.622 -0.0545  0.0985 -0.1413
  402loPI    C1 6417   3.357  13.263  11.283  0.0027  0.0914  0.0584
  402loPI    C2 6418   3.068  13.129  11.526  0.0963  0.0592  0.1529
  402loPI    C3 6419   3.350  12.878  11.392 -0.0335  0.0459 -0.1021
  402loPI   PO4 6420   3.160  13.457  11.112 -0.0291 -0.1608  0.1626
  402loPI   GL1 6421   3.197  13.462  10.685 -0.1231  0.3002  0.0403
  402loPI   GL2 6422   2.892  13.467  10.622  0.2302 -0.3463 -0.2400
  402loPI   C1A 6423   3.377  13.575  10.323 -0.3801 -0.0646 -0.2686
  402loPI   C2A 6424   3.415  13.553   9.901  0.1569  0.1812 -0.3248
  402loPI   C3A 6425   3.442  13.580   9.458  0.0731  0.0907  0.1009
  402loPI   C4A 6426   3.336  13.677   9.014  0.0356 -0.0988  0.4400
  402loPI   C5A 6427   3.235  13.752   8.572 -0.0827  0.0892 -0.0080
  402loPI   C6A 6428   2.913  13.794   8.263  0.0153 -0.0312  0.1785
  402loPI   C1B 6429   2.849  13.341  10.207 -0.2270 -0.2157 -0.0247
  402loPI   C2B 6430   2.882  13.382   9.810  0.0288  0.0764 -0.0887
  402loPI   C3B 6431   2.929  13.400   9.493 -0.1136  0.3976 -0.1801
  402loPI   C4B 6432   2.894  13.415   9.065  0.0190 -0.0219  0.1222
  403loPI    C1 6433  11.365   8.872  11.720 -0.0908 -0.0711  0.0409
  403loPI    C2 6434  11.091   8.997  11.983 -0.0861 -0.0303  0.0264
  403loPI    C3 6435  11.277   8.647  12.039 -0.0627 -0.0073  0.0939
  403loPI   PO4 6436  11.219   8.830  11.476  0.0969  0.2716  0.1286
  403loPI   GL1 6437  11.231   8.895  11.003  0.0944  0.0056 -0.0201
  403loPI   GL2 6438  11.565   8.729  10.784  0.1989 -0.3823  0.2066
  403loPI   C1A 6439  11.235   9.056  10.624 -0.0893 -0.3792  0.3402
  403loPI   C2A 6440  11.314   9.100  10.240 -0.1053 -0.2574 -0.2193
  403loPI   C3A 6441  11.291   9.121   9.814  0.0291  0.3436 -0.1405
  403loPI   C4A 6442  11.247   9.047   9.305  0.0107 -0.0970 -0.1116
  403loPI   C5A 6443  11.281   8.948   8.890  0.0548  0.3386 -0.1633
  403loPI   C6A 6444  11.407   9.020   8.501 -0.0479  0.4007  0.0273
  403loPI   C1B 6445  11.719   8.831  10.436 -0.3107 -0.0433 -0.0806
  403loPI   C2B 6446  11.697   8.776  10.040  0.2024 -0.1183 -0.0966
  403loPI   C3B 6447  11.656   8.721   9.620  0.2183 -0.0984  0.2014
  403loPI   C4B 6448  11.656   8.735   9.187 -0.0150  0.0840 -0.1992
  404loPI    C1 6449  11.591   8.068  11.509  0.0335 -0.1090 -0.0296
  404loPI    C2 6450  11.348   8.345  11.665  0.0475 -0.1278  0.0260
  404loPI    C3 6451  11.679   8.235  11.862  0.1570 -0.0256 -0.0991
  404loPI   PO4 6452  11.454   8.024  11.280 -0.1962  0.1601 -0.1686
  404loPI   GL1 6453  11.461   8.200  10.876  0.4306  0.1521  0.1127
  404loPI   GL2 6454  11.222   8.029  10.550 -0.1191  0.0612 -0.2968
  404loPI   C1A 6455  11.689   8.109  10.523 -0.2015  0.2059  0.2346
  404loPI   C2A 6456  11.678   8.154  10.070  0.2247  0.2232 -0.0380
  404loPI   C3A 6457  11.617   8.204   9.650 -0.1779 -0.1301 -0.0659
  404loPI   C4A 6458  11.577   8.231   9.260  0.0781 -0.3685 -0.1818
  404loPI   C5A 6459  11.617   8.288   8.782  0.0639 -0.1799 -0.2181
  404loPI   C6A 6460  11.323   8.485   8.663  0.0205 -0.0312 -0.1171
  404loPI   C1B 6461  11.258   7.947  10.167  0.0165  0.1172  0.1367
  404loPI   C2B 6462  11.220   7.972   9.816  0.0852 -0.1139 -0.2416
  404loPI   C3B 6463  11.032   8.006   9.446 -0.4073  0.1961  0.0034
  404loPI   C4B 6464  11.141   8.141   9.016 -0.2201 -0.0797 -0.0412
  405loPI    C1 6465   5.737  10.062  11.539 -0.0238  0.0950  0.0167
  405loPI    C2 6466   5.408   9.843  11.603 -0.0050  0.0607 -0.0037
  405loPI    C3 6467   5.578  10.042  11.906 -0.0865  0.1372 -0.0080
  405loPI   PO4 6468   5.831   9.939  11.254 -0.1470  0.0196  0.0539
  405loPI   GL1 6469   5.720   9.902  10.760 -0.0289  0.0441  0.3221
  405loPI   GL2 6470   5.733  10.007  10.558  0.1519  0.0765  0.1867
  405loPI   C1A 6471   5.568   9.584  10.389  0.0156  0.1835  0.0634
  405loPI   C2A 6472   5.535   9.616   9.962 -0.0659  0.0594  0.0045
  405loPI   C3A 6473   5.515   9.584   9.527 -0.0016  0.1762  0.1302
  405loPI   C4A 6474   5.437   9.514   9.206 -0.2679 -0.0024  0.2109
  405loPI   C5A 6475   5.455   9.557   8.879 -0.2122  0.0410  0.1137
  405loPI   C6A 6476   5.401   9.627   8.424  0.4222  0.0532  0.0478
  405loPI   C1B 6477   5.578  10.058  10.203  0.3127  0.0308 -0.0189
  405loPI   C2B 6478   5.599  10.113   9.733  0.1983 -0.0971 -0.2225
  405loPI   C3B 6479   5.502  10.038   9.330  0.2455 -0.0100  0.0732
  405loPI   C4B 6480   5.499  10.032   8.869  0.0091  0.1167 -0.1242
  406loPI    C1 6481  10.806   6.882  11.254 -0.0108  0.0230 -0.3041
  406loPI    C2 6482  10.524   7.143  11.366  0.0041 -0.1297  0.1058
  406loPI    C3 6483  10.864   7.113  11.575  0.0885 -0.3357 -0.0573
  406loPI   PO4 6484  10.776   6.901  10.967  0.0620 -0.0268  0.1619
  406loPI   GL1 6485  10.927   7.106  10.606  0.0326 -0.1822 -0.1893
  406loPI   GL2 6486  11.161   7.306  10.501 -0.1265  0.1160  0.1605
  406loPI   C1A 6487  11.102   6.938  10.206  0.2317  0.0288  0.1880
  406loPI   C2A 6488  11.078   6.896   9.753  0.0425 -0.1113 -0.1732
  406loPI   C3A 6489  11.047   7.037   9.298  0.1308  0.1254  0.1016
  406loPI   C4A 6490  10.907   7.026   8.911  0.0731  0.1652  0.0162
  406loPI   C5A 6491  10.923   6.946   8.465  0.3104 -0.1712  0.3264
  406loPI   C6A 6492  11.230   7.042   8.120  0.0610  0.0559 -0.2584
  406loPI   C1B 6493  11.194   7.444  10.042  0.1713 -0.1640  0.2378
  406loPI   C2B 6494  11.063   7.409   9.628 -0.0681 -0.1919 -0.0679
  406loPI   C3B 6495  11.018   7.534   9.117 -0.0452 -0.1693  0.2132
  406loPI   C4B 6496  11.028   7.497   8.730 -0.0181  0.0097  0.0190
  407loPI    C1 6497  11.168  10.206  11.510  0.0359 -0.0969  0.0621
  407loPI    C2 6498  11.302  10.573  11.597  0.1177 -0.0856 -0.1072
  407loPI    C3 6499  11.101  10.363  11.872  0.2397  0.0081  0.0555
  407loPI   PO4 6500  11.115  10.345  11.170  0.0937 -0.1073  0.0443
  407loPI   GL1 6501  11.361  10.245  10.752  0.5562  0.0344 -0.0596
  407loPI   GL2 6502  11.197  10.467  10.666 -0.0581 -0.0328  0.1119
  407loPI   C1A 6503  11.489  10.114  10.402 -0.3565 -0.1394 -0.0123
  407loPI   C2A 6504  11.434  10.143  10.019  0.3570 -0.2256 -0.1034
  407loPI   C3A 6505  11.316  10.158   9.606 -0.1950 -0.2954  0.0331
  407loPI   C4A 6506  11.321  10.127   9.244  0.1431  0.1115 -0.0399
  407loPI   C5A 6507  11.341   9.966   8.864 -0.2748  0.0565  0.0724
  407loPI   C6A 6508  11.378  10.103   8.449 -0.1034 -0.2518  0.2945
  407loPI   C1B 6509  11.066  10.428  10.312  0.3221  0.0886  0.4531
  407loPI   C2B 6510  11.087  10.538   9.826  0.0717  0.0765 -0.0502
  407loPI   C3B 6511  11.003  10.498   9.359 -0.1155 -0.2969 -0.0131
  407loPI   C4B 6512  11.031  10.358   8.869  0.0406 -0.2201 -0.1372
  408loPI    C1 6513   5.179  15.933  11.015 -0.0595 -0.4066  0.0560
  408loPI    C2 6514   5.438  15.761  11.266  0.1273 -0.1043  0.0754
  408loPI    C3 6515   5.087  15.899  11.402  0.0464 -0.3204  0.0892
  408loPI   PO4 6516   5.232  15.994  10.835 -0.1115 -0.0154  0.0149
  408loPI   GL1 6517   5.127  16.218  10.490 -0.0706  0.0702  0.0771
  408loPI   GL2 6518   5.372  16.010  10.366  0.2562 -0.0232 -0.1840
  408loPI   C1A 6519   5.109  16.212  10.004 -0.1752  0.0530 -0.2873
  408loPI   C2A 6520   5.133  16.244   9.628  0.1808  0.0853 -0.3454
  408loPI   C3A 6521   5.060  16.285   9.246  0.2316  0.0860  0.1469
  408loPI   C4A 6522   5.004  16.375   8.803 -0.0107 -0.2266 -0.1169
  408loPI   C5A 6523   5.144  16.130   8.501 -0.0510  0.0297  0.0590
  408loPI   C6A 6524   4.907  15.828   8.317  0.3557  0.1660 -0.0586
  408loPI   C1B 6525   5.506  15.833  10.047 -0.0652  0.1618 -0.2289
  408loPI   C2B 6526   5.558  15.800   9.656  0.2736 -0.0253 -0.1888
  408loPI   C3B 6527   5.440  15.805   9.245  0.1027 -0.1864  0.2413
  408loPI   C4B 6528   5.514  16.002   8.828  0.0224 -0.2267 -0.1815
  409loPI    C1 6529   9.497   0.508  10.885  0.0867 -0.4326 -0.1811
  409loPI    C2 6530   9.887   0.574  10.825  0.0779 -0.1372  0.0635
  409loPI    C3 6531   9.736   0.589  11.195 -0.2241  0.0816 -0.0648
  409loPI   PO4 6532   9.370   0.662  10.563  0.0346 -0.2080 -0.0454
  409loPI   GL1 6533   9.156   0.904  10.209  0.1553  0.2935 -0.2037
  409loPI   GL2 6534   9.181   1.153  10.044  0.0662 -0.0296  0.1201
  409loPI   C1A 6535   9.152   0.698   9.855 -0.0538 -0.3316  0.1442
  409loPI   C2A 6536   9.234   0.672   9.436  0.1009  0.2134  0.0121
  409loPI   C3A 6537   9.148   0.676   8.956  0.4469  0.0965  0.0966
  409loPI   C4A 6538   9.315   0.913   8.463 -0.0260  0.2540 -0.0345
  409loPI   C5A 6539   9.682   1.185   8.255 -0.0693 -0.1017 -0.1488
  409loPI   C6A 6540   9.977   1.553   8.199  0.3898 -0.0503 -0.1328
  409loPI   C1B 6541   9.336   1.247   9.666 -0.0401  0.0101 -0.2748
  409loPI   C2B 6542   9.292   1.308   9.288 -0.0616 -0.1521 -0.0583
  409loPI   C3B 6543   9.216   1.232   8.887  0.0569  0.0803 -0.0570
  409loPI   C4B 6544   9.419   1.364   8.654  0.1874  0.2329  0.1465
  410loPI    C1 6545  16.667   1.246  11.092  0.0934  0.1461 -0.1634
  410loPI    C2 6546  16.468   1.578  11.193 -0.1285 -0.0004 -0.1114
  410loPI    C3 6547  16.491   1.273  11.451  0.3469  0.0948 -0.0327
  410loPI   PO4 6548  16.869   1.301  11.014  0.0961 -0.3392 -0.0881
  410loPI   GL1 6549  17.063   1.453  10.683 -0.3003 -0.4647 -0.0196
  410loPI   GL2 6550  16.923   1.779  10.602 -0.0291  0.1627 -0.0185
  410loPI   C1A 6551  17.139   1.438  10.173 -0.3471 -0.0061  0.1104
  410loPI   C2A 6552  17.145   1.452   9.754 -0.2438  0.1244 -0.1930
  410loPI   C3A 6553  17.255   1.340   9.391  0.0889 -0.1302  0.2594
  410loPI   C4A 6554  17.248   1.470   9.071  0.0697 -0.1481  0.0592
  410loPI   C5A 6555  17.478   1.542   8.664  0.0007  0.2624 -0.3602
  410loPI   C6A 6556  17.754   1.514   8.414 -0.2511  0.2253 -0.1959
  410loPI   C1B 6557  16.773   1.797  10.174 -0.1444  0.2507 -0.0265
  410loPI   C2B 6558  16.820   1.854   9.830 -0.0932 -0.1052  0.2427
  410loPI   C3B 6559  16.822   1.718   9.479 -0.0865 -0.2735  0.0253
  410loPI   C4B 6560  16.868   1.741   9.008 -0.0652  0.0828 -0.0670
  411loPI    C1 6561   1.307   0.553  11.099 -0.0622 -0.2209 -0.0214
  411loPI    C2 6562   1.665   0.558  11.277 -0.0038 -0.0302 -0.1418
  411loPI    C3 6563   1.344   0.696  11.471 -0.0229 -0.2497 -0.0142
  411loPI   PO4 6564   1.385   0.339  10.891  0.1318 -0.2308  0.1310
  411loPI   GL1 6565   1.569   0.231  10.477  0.1104 -0.2217  0.3061
  411loPI   GL2 6566   1.468  -0.058  10.559  0.0009  0.3948 -0.0191
  411loPI   C1A 6567   1.774   0.190  10.089 -0.1321  0.0120  0.2036
  411loPI   C2A 6568   1.848   0.167   9.618 -0.0402  0.3411  0.1273
  411loPI   C3A 6569   1.792   0.179   9.173  0.1908  0.0730  0.1149
  411loPI   C4A 6570   1.519   0.360   8.851  0.0148 -0.0545  0.1171
  411loPI   C5A 6571   1.167   0.249   8.514  0.1191  0.0301  0.1557
  411loPI   C6A 6572   0.841   0.175   8.311 -0.1935 -0.0891  0.0890
  411loPI   C1B 6573   1.299  -0.069  10.182 -0.0796  0.1135 -0.0136
  411loPI   C2B 6574   1.342   0.156   9.826  0.1468  0.1297 -0.0183
  411loPI   C3B 6575   1.344  -0.037   9.459  0.0483 -0.0141 -0.1404
  411loPI   C4B 6576   1.252  -0.051   9.035 -0.0991 -0.0054 -0.0488
  412loPI    C1 6577  12.665   4.107  11.489 -0.0319 -0.0095  0.0099
  412loPI    C2 6578  12.502   4.449  11.618  0.1380  0.0242  0.1389
  412loPI    C3 6579  12.562   4.147  11.874 -0.0493 -0.1190  0.0170
  412loPI   PO4 6580  12.918   4.186  11.331  0.1321  0.1954  0.1165
  412loPI   GL1 6581  12.988   4.300  10.910 -0.0019  0.0044  0.0636
  412loPI   GL2 6582  13.155   4.149  10.769  0.0020 -0.0133  0.5127
  412loPI   C1A 6583  12.824   4.452  10.489  0.0756  0.0731  0.0144
  412loPI   C2A 6584  12.655   4.594  10.033  0.1893 -0.0080 -0.3573
  412loPI   C3A 6585  12.607   4.621   9.624  0.3210 -0.1598 -0.0971
  412loPI   C4A 6586  12.552   4.635   9.231 -0.2126 -0.1805  0.3698
  412loPI   C5A 6587  12.604   4.790   8.848  0.2454  0.0967 -0.0238
  412loPI   C6A 6588  12.508   5.252   8.723 -0.2573 -0.0929 -0.1047
  412loPI   C1B 6589  13.121   4.074  10.299 -0.0550 -0.1218  0.2770
  412loPI   C2B 6590  13.063   4.258   9.944  0.1338 -0.2069  0.1144
  412loPI   C3B 6591  12.998   4.382   9.414  0.1384 -0.0194  0.0846
  412loPI   C4B 6592  12.942   4.499   8.951  0.3182  0.2245 -0.0075
  413loPI    C1 6593   0.323  15.054  10.890  0.1689 -0.0484  0.1030
  413loPI    C2 6594   0.358  15.421  10.733 -0.0150 -0.0759 -0.0060
  413loPI    C3 6595   0.030  15.203  10.661 -0.0342 -0.1502  0.2928
  413loPI   PO4 6596   0.470  14.939  10.795  0.0173  0.0426 -0.1123
  413loPI   GL1 6597   0.741  15.081  10.491  0.1311 -0.1063  0.0689
  413loPI   GL2 6598   0.416  15.148  10.337 -0.2045 -0.1031 -0.1923
  413loPI   C1A 6599   0.804  15.014  10.073 -0.0197 -0.3418 -0.0334
  413loPI   C2A 6600   0.863  15.099   9.697  0.0014  0.1777 -0.1468
  413loPI   C3A 6601   0.826  15.058   9.302 -0.4396  0.2308 -0.0520
  413loPI   C4A 6602   0.830  15.187   8.810  0.1135  0.1072 -0.4195
  413loPI   C5A 6603   0.767  14.893   8.472  0.0249  0.4071  0.2689
  413loPI   C6A 6604   0.735  14.484   8.592  0.3411  0.0257 -0.1803
  413loPI   C1B 6605   0.430  15.238   9.876 -0.0841  0.1120 -0.4082
  413loPI   C2B 6606   0.363  15.324   9.555  0.2031  0.2804  0.0040
  413loPI   C3B 6607   0.447  15.371   9.153 -0.2530 -0.1200  0.3846
  413loPI   C4B 6608   0.388  15.379   8.743  0.1566  0.1597  0.1548
  414loPI    C1 6609   8.125  13.978  10.450  0.1286  0.1705  0.1291
  414loPI    C2 6610   7.894  13.760  10.693  0.0247  0.1460  0.0092
  414loPI    C3 6611   8.279  13.819  10.784 -0.0174  0.1515  0.1879
  414loPI   PO4 6612   8.052  13.915  10.233  0.3787 -0.0483 -0.1695
  414loPI   GL1 6613   7.991  13.632   9.972  0.1182  0.1570  0.0017
  414loPI   GL2 6614   8.158  13.307   9.864  0.3051  0.4496  0.0275
  414loPI   C1A 6615   7.788  13.520   9.578  0.1791  0.0152  0.1345
  414loPI   C2A 6616   7.846  13.394   9.225  0.0724 -0.2038 -0.1034
  414loPI   C3A 6617   7.827  13.500   8.754  0.0098 -0.1608  0.2724
  414loPI   C4A 6618   7.818  13.554   8.366  0.2789  0.1874  0.0988
  414loPI   C5A 6619   7.911  13.572   7.921  0.0039  0.2414 -0.2854
  414loPI   C6A 6620   8.082  13.218   7.686  0.0134 -0.0892 -0.0231
  414loPI   C1B 6621   8.196  13.098   9.456  0.1738  0.0816 -0.3813
  414loPI   C2B 6622   8.269  13.051   9.086 -0.0793 -0.2865  0.1325
  414loPI   C3B 6623   8.168  13.136   8.656  0.0187 -0.2488 -0.1269
  414loPI   C4B 6624   8.203  13.197   8.201  0.1423  0.3779  0.0570
  415loPI    C1 6625  12.171  17.537  10.967 -0.3030  0.0423 -0.0465
  415loPI    C2 6626  12.063  17.310  11.278 -0.0845 -0.2518 -0.1802
  415loPI    C3 6627  12.437  17.292  11.137 -0.1278  0.0248 -0.3391
  415loPI   PO4 6628  11.972  17.468  10.749 -0.0497  0.1331  0.1512
  415loPI   GL1 6629  12.143  17.403  10.270  0.0144  0.2910  0.2406
  415loPI   GL2 6630  11.946  17.142  10.014 -0.2664 -0.0309  0.1818
  415loPI   C1A 6631  12.354  17.374   9.960 -0.3686  0.0950  0.0040
  415loPI   C2A 6632  12.490  17.352   9.561 -0.0879  0.1464 -0.0575
  415loPI   C3A 6633  12.479  17.559   9.246 -0.0943  0.1432 -0.0939
  415loPI   C4A 6634  12.398  17.502   8.809 -0.3073  0.0861 -0.1098
  415loPI   C5A 6635  12.560  17.479   8.403 -0.2700 -0.0919  0.2721
  415loPI   C6A 6636  12.498  17.521   7.981  0.0185 -0.1173  0.4248
  415loPI   C1B 6637  11.998  17.284   9.610  0.1014  0.2234  0.0906
  415loPI   C2B 6638  11.959  17.442   9.106  0.3087 -0.1353  0.3654
  415loPI   C3B 6639  11.965  17.660   8.709 -0.0208  0.0213 -0.0340
  415loPI   C4B 6640  11.640  17.673   8.399 -0.3443  0.0988  0.3980
  416loPI    C1 6641  17.252   2.538  11.242 -0.1058 -0.1058 -0.1391
  416loPI    C2 6642  16.881   2.688  11.259 -0.0346  0.0445  0.1578
  416loPI    C3 6643  16.949   2.308  11.365 -0.1222 -0.0214 -0.0191
  416loPI   PO4 6644  17.334   2.696  11.022 -0.0456  0.0961 -0.1907
  416loPI   GL1 6645  17.503   2.613  10.678  0.0397 -0.0881  0.2167
  416loPI   GL2 6646  17.772   2.649  10.780 -0.1485 -0.0694  0.1436
  416loPI   C1A 6647  17.411   2.453  10.201 -0.0576 -0.1164  0.1953
  416loPI   C2A 6648  17.400   2.436   9.721 -0.3532 -0.0697  0.0216
  416loPI   C3A 6649  17.391   2.495   9.309  0.0518 -0.1822 -0.0989
  416loPI   C4A 6650  17.387   2.617   8.848  0.0828 -0.0952 -0.3763
  416loPI   C5A 6651  17.734   2.669   8.658  0.1194 -0.1171  0.2067
  416loPI   C6A 6652  17.953   3.103   8.664 -0.1757 -0.0802  0.0580
  416loPI   C1B 6653  17.904   2.712  10.308  0.2527  0.1597  0.0176
  416loPI   C2B 6654  17.874   2.628   9.850  0.1920 -0.0753 -0.0456
  416loPI   C3B 6655  17.850   2.647   9.437 -0.4232 -0.1323  0.0265
  416loPI   C4B 6656  18.004   2.705   9.044  0.2497 -0.4067  0.0762
  417loPI    C1 6657   8.681   3.249  10.832  0.3015 -0.0134 -0.0426
  417loPI    C2 6658   8.758   2.862  10.766  0.2358  0.0102 -0.2631
  417loPI    C3 6659   9.059   3.123  10.804  0.2791 -0.0520 -0.1761
  417loPI   PO4 6660   8.447   3.273  10.607 -0.0130  0.3029 -0.1817
  417loPI   GL1 6661   8.385   3.511  10.290  0.1983 -0.1149  0.1066
  417loPI   GL2 6662   8.108   3.642  10.350  0.1016  0.1584 -0.3237
  417loPI   C1A 6663   8.248   3.525   9.834  0.0602  0.0929 -0.0932
  417loPI   C2A 6664   8.200   3.731   9.454  0.0280 -0.0849  0.1980
  417loPI   C3A 6665   8.289   3.807   9.019 -0.1185  0.0583 -0.2180
  417loPI   C4A 6666   8.189   3.766   8.654  0.2322  0.0253 -0.2548
  417loPI   C5A 6667   7.878   3.527   8.364  0.2098 -0.1386 -0.0061
  417loPI   C6A 6668   7.864   3.039   8.190 -0.2895  0.1449 -0.2381
  417loPI   C1B 6669   8.090   3.985   9.952 -0.1562  0.0620  0.1493
  417loPI   C2B 6670   8.066   4.111   9.638 -0.0426 -0.1063  0.0421
  417loPI   C3B 6671   7.824   4.038   9.204 -0.2284  0.2183 -0.0963
  417loPI   C4B 6672   7.833   4.091   8.808  0.1047 -0.0457  0.0923
  418loPI    C1 6673  17.153  15.396  10.997 -0.1791  0.0538  0.0195
  418loPI    C2 6674  17.537  15.394  11.107 -0.2343 -0.2781  0.2223
  418loPI    C3 6675  17.269  15.598  11.322 -0.1747 -0.0489  0.0825
  418loPI   PO4 6676  17.178  15.433  10.677 -0.0823  0.1407 -0.2160
  418loPI   GL1 6677  17.330  15.468  10.374  0.0997 -0.2256  0.0112
  418loPI   GL2 6678  17.588  15.596  10.274 -0.3149 -0.4179 -0.1827
  418loPI   C1A 6679  17.173  15.489   9.993  0.2751  0.0061 -0.4651
  418loPI   C2A 6680  17.041  15.474   9.588  0.3099  0.0866 -0.0169
  418loPI   C3A 6681  17.136  15.457   9.121  0.2791 -0.2009  0.0403
  418loPI   C4A 6682  17.113  15.596   8.691  0.1802 -0.0573  0.1340
  418loPI   C5A 6683  17.114  15.344   8.366  0.1022  0.1126 -0.2487
  418loPI   C6A 6684  17.334  15.245   8.038 -0.0113 -0.0290  0.1363
  418loPI   C1B 6685  17.668  15.580   9.853 -0.1842  0.0152  0.3105
  418loPI   C2B 6686  17.531  15.568   9.402  0.2577 -0.3171 -0.0337
  418loPI   C3B 6687  17.601  15.701   9.031 -0.0899 -0.0792 -0.0494
  418loPI   C4B 6688  17.556  15.857   8.541  0.2719  0.1379  0.2807
  419loPI    C1 6689   1.456   7.508  11.399 -0.1269  0.2336  0.2217
  419loPI    C2 6690   1.565   7.668  11.749  0.1078 -0.0395  0.2776
  419loPI    C3 6691   1.425   7.294  11.736 -0.1408  0.0565  0.1090
  419loPI   PO4 6692   1.694   7.607  11.164 -0.0984 -0.0689 -0.1043
  419loPI   GL1 6693   1.794   7.609  10.776 -0.0593  0.0875 -0.1500
  419loPI   GL2 6694   2.081   7.708  10.853 -0.0730  0.0646  0.0636
  419loPI   C1A 6695   1.744   7.836  10.459 -0.0363  0.1225  0.1841
  419loPI   C2A 6696   1.671   7.997  10.113  0.1232  0.1065  0.1902
  419loPI   C3A 6697   1.623   8.104   9.814 -0.0550 -0.4699 -0.0039
  419loPI   C4A 6698   1.620   8.101   9.436 -0.0936  0.0220 -0.0225
  419loPI   C5A 6699   1.610   7.920   9.128  0.2729  0.1901 -0.0779
  419loPI   C6A 6700   1.532   7.826   8.748 -0.1148  0.1942  0.0395
  419loPI   C1B 6701   2.210   7.694  10.444 -0.0431  0.2663  0.0477
  419loPI   C2B 6702   2.103   7.741  10.042 -0.0147  0.0862  0.2719
  419loPI   C3B 6703   2.054   7.714   9.628 -0.2047 -0.2271  0.2493
  419loPI   C4B 6704   2.065   7.791   9.224  0.1701 -0.0684 -0.0419
  420loPI    C1 6705  14.596   7.351  11.554  0.1298  0.0307 -0.0856
  420loPI    C2 6706  14.323   7.603  11.702 -0.0512 -0.1257 -0.1492
  420loPI    C3 6707  14.574   7.414  11.949 -0.1708 -0.1767 -0.0656
  420loPI   PO4 6708  14.669   7.543  11.343 -0.1467  0.1266 -0.2937
  420loPI   GL1 6709  15.024   7.591  11.179  0.0026 -0.0461 -0.4645
  420loPI   GL2 6710  15.048   7.347  10.885 -0.1781 -0.0108  0.2643
  420loPI   C1A 6711  15.100   7.860  10.787  0.2401  0.0207 -0.0413
  420loPI   C2A 6712  15.121   7.804  10.350  0.0865  0.2140 -0.0260
  420loPI   C3A 6713  15.173   7.863   9.941 -0.0508 -0.0089  0.2134
  420loPI   C4A 6714  15.201   7.945   9.466  0.0278  0.0417  0.0037
  420loPI   C5A 6715  15.136   7.831   9.081 -0.0830 -0.1677  0.0526
  420loPI   C6A 6716  15.127   7.619   8.722 -0.0691  0.0039 -0.1355
  420loPI   C1B 6717  15.130   7.330  10.448 -0.2269 -0.2090  0.1753
  420loPI   C2B 6718  15.219   7.343  10.063  0.1181 -0.1240 -0.0084
  420loPI   C3B 6719  15.124   7.390   9.577 -0.0566  0.0281 -0.2693
  420loPI   C4B 6720  15.041   7.376   9.181  0.0247 -0.0520 -0.2680
  421loPI    C1 6721  13.127   4.946  11.758 -0.0214  0.1316 -0.1785
  421loPI    C2 6722  12.780   5.024  11.941 -0.0581 -0.0846 -0.1539
  421loPI    C3 6723  12.890   4.645  11.874  0.3110 -0.0283  0.1064
  421loPI   PO4 6724  13.152   5.088  11.482  0.1482  0.1470  0.2359
  421loPI   GL1 6725  13.263   4.934  11.077  0.1283 -0.0932 -0.0273
  421loPI   GL2 6726  13.589   4.796  11.020  0.0613 -0.1012 -0.1739
  421loPI   C1A 6727  13.142   4.789  10.689 -0.2122 -0.0297 -0.0314
  421loPI   C2A 6728  13.134   4.725  10.224 -0.1540  0.1969 -0.0779
  421loPI   C3A 6729  13.031   4.848   9.767  0.1479  0.3621 -0.3000
  421loPI   C4A 6730  13.113   4.823   9.313 -0.2739 -0.2256  0.1737
  421loPI   C5A 6731  13.081   5.014   8.867  0.1620 -0.2194  0.0458
  421loPI   C6A 6732  12.998   5.115   8.396 -0.0124  0.0779 -0.3374
  421loPI   C1B 6733  13.613   4.883  10.693  0.0549  0.1231  0.0277
  421loPI   C2B 6734  13.692   4.877  10.241 -0.1889  0.2122  0.0552
  421loPI   C3B 6735  13.601   5.018   9.926 -0.0184 -0.0274  0.0164
  421loPI   C4B 6736  13.494   5.062   9.530  0.0056  0.2179  0.3297
  422loPI    C1 6737   5.136  14.571  11.229  0.0949 -0.0125  0.0771
  422loPI    C2 6738   4.966  14.253  11.402  0.1838 -0.0651  0.0685
  422loPI    C3 6739   5.293  14.418  11.563  0.0502  0.1167  0.1580
  422loPI   PO4 6740   5.163  14.535  10.915  0.0202  0.0317 -0.1093
  422loPI   GL1 6741   4.963  14.543  10.534  0.1277 -0.0329  0.0232
  422loPI   GL2 6742   4.742  14.775  10.476  0.1840  0.0687 -0.0296
  422loPI   C1A 6743   5.142  14.346  10.240  0.0616 -0.5775  0.3324
  422loPI   C2A 6744   5.257  14.236   9.764  0.0156  0.2777 -0.2778
  422loPI   C3A 6745   5.252  14.332   9.451  0.0008  0.0906  0.1242
  422loPI   C4A 6746   5.226  14.424   8.946  0.2802 -0.1433  0.0529
  422loPI   C5A 6747   5.319  14.505   8.473  0.3059 -0.2716  0.0302
  422loPI   C6A 6748   5.400  14.505   8.002  0.0471  0.0597 -0.1555
  422loPI   C1B 6749   4.672  14.712   9.952 -0.1962 -0.1283 -0.1865
  422loPI   C2B 6750   4.768  14.691   9.472 -0.2213 -0.1161  0.0782
  422loPI   C3B 6751   4.836  14.761   9.096 -0.0701  0.1153 -0.0284
  422loPI   C4B 6752   4.916  14.942   8.701 -0.2102  0.1171  0.2310
  423loPI    C1 6753  13.804  15.775  10.965 -0.1412  0.1627  0.0468
  423loPI    C2 6754  13.458  15.630  10.825 -0.1510  0.2625 -0.0330
  423loPI    C3 6755  13.766  15.384  10.891 -0.2199  0.1813 -0.0132
  423loPI   PO4 6756  13.874  15.923  10.771 -0.3608 -0.0810  0.4183
  423loPI   GL1 6757  13.711  15.831  10.260 -0.1687  0.4352 -0.2398
  423loPI   GL2 6758  13.886  16.115  10.265 -0.2350 -0.0524  0.1016
  423loPI   C1A 6759  13.934  15.706   9.870 -0.1614 -0.2331  0.0900
  423loPI   C2A 6760  13.856  15.599   9.529 -0.0435 -0.1924  0.1002
  423loPI   C3A 6761  13.981  15.640   9.051  0.1729  0.2571  0.0703
  423loPI   C4A 6762  14.025  15.663   8.601 -0.1240 -0.1847 -0.1862
  423loPI   C5A 6763  14.328  15.949   8.362  0.1648  0.0804 -0.2155
  423loPI   C6A 6764  14.616  16.050   8.091  0.2264 -0.0302  0.2799
  423loPI   C1B 6765  13.964  16.244   9.917 -0.0758 -0.0602 -0.2041
  423loPI   C2B 6766  13.991  16.118   9.520  0.1913 -0.3665 -0.1010
  423loPI   C3B 6767  14.049  16.146   9.074  0.1632  0.3258 -0.1326
  423loPI   C4B 6768  13.951  16.150   8.698 -0.1148 -0.0691 -0.0720
  424loPI    C1 6769   6.960  10.386  11.422  0.0854  0.0439 -0.1381
  424loPI    C2 6770   7.228  10.644  11.568 -0.1434  0.1966  0.0192
  424loPI    C3 6771   7.206  10.273  11.717  0.1215  0.1133 -0.1417
  424loPI   PO4 6772   6.888  10.708  11.110  0.1095  0.4525  0.0553
  424loPI   GL1 6773   7.068  10.739  10.693 -0.2559  0.1532  0.0751
  424loPI   GL2 6774   7.040  10.427  10.642  0.2157  0.0322  0.2744
  424loPI   C1A 6775   7.028  10.778  10.257  0.0878  0.1146  0.1863
  424loPI   C2A 6776   7.006  10.657   9.885  0.0884 -0.0946  0.2707
  424loPI   C3A 6777   7.016  10.704   9.511 -0.2374 -0.2076 -0.1874
  424loPI   C4A 6778   6.895  10.734   9.129  0.0759  0.1035  0.1640
  424loPI   C5A 6779   6.891  10.573   8.732 -0.1340 -0.1162  0.2902
  424loPI   C6A 6780   7.188  10.218   8.765 -0.5131  0.0265 -0.1265
  424loPI   C1B 6781   6.995  10.275  10.281  0.1977 -0.2185  0.0173
  424loPI   C2B 6782   6.933  10.119   9.913 -0.0237  0.0326  0.1806
  424loPI   C3B 6783   6.895  10.166   9.551 -0.1427 -0.0337 -0.1698
  424loPI   C4B 6784   6.867  10.211   9.146  0.1447 -0.3100 -0.0428
  425loPI    C1 6785  14.486  10.313  11.362  0.0286 -0.1904  0.0341
  425loPI    C2 6786  14.579   9.977  11.558 -0.1159 -0.2338  0.0303
  425loPI    C3 6787  14.565  10.326  11.754  0.2381 -0.1944 -0.0071
  425loPI   PO4 6788  14.258  10.230  11.233  0.1359 -0.1325 -0.2301
  425loPI   GL1 6789  14.016  10.328  10.882 -0.1129 -0.2072  0.1899
  425loPI   GL2 6790  13.984   9.948  10.798 -0.0703 -0.1896 -0.0135
  425loPI   C1A 6791  14.065  10.338  10.396  0.0019 -0.0225 -0.1822
  425loPI   C2A 6792  14.208  10.269  10.020  0.3080 -0.0262 -0.2332
  425loPI   C3A 6793  14.171  10.319   9.562  0.0474 -0.0304 -0.0894
  425loPI   C4A 6794  14.214  10.325   9.153 -0.1488  0.0537  0.1979
  425loPI   C5A 6795  14.132  10.509   8.648  0.0310 -0.1839  0.1511
  425loPI   C6A 6796  14.190  10.259   8.212  0.0978 -0.1092 -0.0622
  425loPI   C1B 6797  14.078   9.799  10.365 -0.1223  0.0892 -0.3287
  425loPI   C2B 6798  14.088   9.821   9.923  0.2075 -0.0622 -0.2384
  425loPI   C3B 6799  14.114   9.829   9.481 -0.1021  0.1165 -0.2932
  425loPI   C4B 6800  14.105   9.708   9.128  0.2167 -0.1650 -0.0182
  426loPI    C1 6801  14.826   0.043  11.438 -0.1105 -0.1201 -0.0748
  426loPI    C2 6802  15.199   0.007  11.577 -0.1275  0.2470  0.0773
  426loPI    C3 6803  14.923  -0.267  11.671  0.0829  0.0140  0.0258
  426loPI   PO4 6804  14.918   0.178  11.205 -0.3048 -0.3164 -0.0640
  426loPI   GL1 6805  14.871   0.382  10.793 -0.2367  0.0389  0.1944
  426loPI   GL2 6806  14.946   0.122  10.602 -0.0105 -0.1746 -0.0653
  426loPI   C1A 6807  14.691   0.508  10.418  0.0236 -0.1027 -0.1126
  426loPI   C2A 6808  14.633   0.489   9.999  0.0682  0.2631  0.0019
  426loPI   C3A 6809  14.749   0.475   9.609  0.0445 -0.1825 -0.1658
  426loPI   C4A 6810  14.840   0.386   9.164 -0.0441  0.2809  0.0966
  426loPI   C5A 6811  15.015   0.441   8.800 -0.2215 -0.0603  0.0913
  426loPI   C6A 6812  15.338   0.690   8.655 -0.1206  0.0878 -0.1067
  426loPI   C1B 6813  14.963   0.112  10.219 -0.4576 -0.1502 -0.0597
  426loPI   C2B 6814  15.016   0.066   9.881  0.4709 -0.0210 -0.3187
  426loPI   C3B 6815  15.189   0.096   9.536  0.0223 -0.2752  0.4131
  426loPI   C4B 6816  15.274   0.045   9.095 -0.1342  0.1552  0.1767
  427loPI    C1 6817  17.064  16.481  11.085 -0.1208  0.2677  0.1762
  427loPI    C2 6818  16.839  16.248  11.321  0.0088  0.0377  0.0766
  427loPI    C3 6819  17.032  16.563  11.475 -0.1029  0.0327  0.2284
  427loPI   PO4 6820  17.168  16.267  10.898 -0.0024 -0.3812 -0.3095
  427loPI   GL1 6821  17.074  16.004  10.485  0.1294  0.0136 -0.1124
  427loPI   GL2 6822  16.904  16.263  10.405  0.1216  0.1661 -0.1508
  427loPI   C1A 6823  17.313  15.984  10.110  0.0592 -0.1703  0.1382
  427loPI   C2A 6824  17.374  15.920   9.694  0.3229  0.0848 -0.0134
  427loPI   C3A 6825  17.238  15.980   9.263  0.1267  0.2228  0.3496
  427loPI   C4A 6826  17.282  16.030   8.860 -0.0329  0.0534 -0.0133
  427loPI   C5A 6827  16.958  16.044   8.519 -0.1890  0.1874 -0.2871
  427loPI   C6A 6828  16.666  16.183   8.405  0.1598  0.1957  0.3477
  427loPI   C1B 6829  16.811  16.411  10.126  0.1427 -0.0510  0.1156
  427loPI   C2B 6830  16.738  16.364   9.703  0.1376  0.0423  0.0608
  427loPI   C3B 6831  16.738  16.298   9.349 -0.0355  0.1767 -0.0672
  427loPI   C4B 6832  16.863  16.329   8.902 -0.0593  0.3858  0.0266
  428loPI    C1 6833   0.076   6.908  11.835 -0.1292  0.0510 -0.0521
  428loPI    C2 6834   0.304   6.800  12.145 -0.1849  0.0177 -0.0225
  428loPI    C3 6835   0.015   7.072  12.194 -0.2045  0.0005 -0.0415
  428loPI   PO4 6836   0.217   6.989  11.614 -0.2671  0.0777 -0.0019
  428loPI   GL1 6837   0.283   6.851  11.180  0.0931  0.2372 -0.1860
  428loPI   GL2 6838   0.021   6.966  11.163  0.1628  0.2755 -0.0261
  428loPI   C1A 6839   0.474   6.663  10.857  0.0895 -0.1810 -0.0214
  428loPI   C2A 6840   0.401   6.495  10.485  0.0441  0.0877  0.1382
  428loPI   C3A 6841   0.518   6.527  10.083  0.0169  0.1299  0.0258
  428loPI   C4A 6842   0.540   6.583   9.649  0.1118  0.2663 -0.0078
  428loPI   C5A 6843   0.465   6.674   9.369 -0.2559  0.2189 -0.0340
  428loPI   C6A 6844   0.204   6.837   9.107 -0.0872 -0.1371  0.3976
  428loPI   C1B 6845   0.010   6.900  10.759 -0.0405  0.0299  0.0487
  428loPI   C2B 6846   0.096   6.892  10.376  0.2009  0.0498  0.0980
  428loPI   C3B 6847   0.113   6.920   9.930 -0.0974 -0.1470 -0.0628
  428loPI   C4B 6848   0.105   7.004   9.573  0.1497 -0.0426 -0.0056
  429loPI    C1 6849   0.009   2.756  11.504  0.0689 -0.0508  0.0200
  429loPI    C2 6850   0.125   2.759  11.887 -0.1080 -0.1146  0.0752
  429loPI    C3 6851   0.270   2.483  11.636  0.0968 -0.0013  0.0676
  429loPI   PO4 6852   0.113   2.965  11.348  0.0483 -0.2433 -0.0424
  429loPI   GL1 6853  -0.023   3.183  10.880 -0.2378 -0.0745 -0.4019
  429loPI   GL2 6854   0.314   3.124  10.890  0.0216 -0.0829 -0.1034
  429loPI   C1A 6855  -0.114   3.093  10.521 -0.0072  0.0198  0.2986
  429loPI   C2A 6856  -0.193   3.031  10.129 -0.0613 -0.1095 -0.0414
  429loPI   C3A 6857  -0.134   2.919   9.793 -0.0693 -0.3357  0.0974
  429loPI   C4A 6858  -0.163   2.986   9.427  0.2942 -0.2006  0.1970
  429loPI   C5A 6859  -0.001   3.048   9.099 -0.1073  0.3244  0.0863
  429loPI   C6A 6860  -0.214   3.102   8.726  0.0108 -0.1060  0.0735
  429loPI   C1B 6861   0.445   3.196  10.430  0.1638 -0.1170 -0.0495
  429loPI   C2B 6862   0.319   3.201   9.998  0.0101 -0.0803 -0.2836
  429loPI   C3B 6863   0.362   3.171   9.590 -0.1189 -0.1393 -0.1845
  429loPI   C4B 6864   0.496   3.195   9.102  0.1717 -0.2992 -0.1525
  430loPI    C1 6865  16.373  13.687  11.170  0.0445  0.0071  0.0512
  430loPI    C2 6866  16.124  13.409  11.313  0.0377  0.0322  0.0886
  430loPI    C3 6867  16.406  13.566  11.549  0.0740  0.0206  0.0532
  430loPI   PO4 6868  16.449  13.579  10.920 -0.0013  0.0053 -0.0652
  430loPI   GL1 6869  16.724  13.744  10.540  0.1888  0.0814 -0.1722
  430loPI   GL2 6870  16.508  13.567  10.414 -0.0881  0.0348 -0.0838
  430loPI   C1A 6871  16.829  13.851  10.168 -0.2863 -0.1364 -0.1189
  430loPI   C2A 6872  16.923  13.889   9.670  0.1283  0.2431  0.2492
  430loPI   C3A 6873  16.933  13.888   9.222 -0.2564  0.2108 -0.1424
  430loPI   C4A 6874  17.088  13.925   8.714  0.0782  0.2803 -0.0319
  430loPI   C5A 6875  16.782  14.117   8.427  0.2356  0.3840 -0.0130
  430loPI   C6A 6876  16.596  13.924   8.079  0.1608  0.2248  0.2037
  430loPI   C1B 6877  16.396  13.599   9.954  0.0825 -0.0406 -0.0398
  430loPI   C2B 6878  16.460  13.619   9.573 -0.1770 -0.4106  0.2451
  430loPI   C3B 6879  16.454  13.729   9.140  0.5130  0.0619 -0.1954
  430loPI   C4B 6880  16.482  13.734   8.709 -0.1836 -0.0141 -0.0600
  431loPI    C1 6881   8.497  10.886  11.267  0.0352  0.1030 -0.0901
  431loPI    C2 6882   8.306  10.536  11.230  0.2146 -0.0070  0.0113
  431loPI    C3 6883   8.133  10.839  11.426  0.1298 -0.0943  0.0724
  431loPI   PO4 6884   8.537  10.996  11.039 -0.2139 -0.0276  0.2809
  431loPI   GL1 6885   8.510  10.787  10.646  0.0976  0.0803 -0.1582
  431loPI   GL2 6886   8.893  10.723  10.574 -0.0969  0.3141  0.1542
  431loPI   C1A 6887   8.434  10.846  10.297  0.0587  0.0153  0.0625
  431loPI   C2A 6888   8.429  10.674   9.876  0.1016  0.0924  0.1050
  431loPI   C3A 6889   8.289  10.721   9.533 -0.0901 -0.1827  0.1320
  431loPI   C4A 6890   8.288  10.688   9.106 -0.3132 -0.0237 -0.2307
  431loPI   C5A 6891   8.382  10.749   8.679 -0.0155 -0.0601 -0.0111
  431loPI   C6A 6892   8.844  10.758   8.564  0.1518 -0.1119  0.1748
  431loPI   C1B 6893   8.819  10.532  10.194 -0.3618 -0.0400  0.0448
  431loPI   C2B 6894   8.814  10.432   9.747 -0.2066  0.1716  0.1807
  431loPI   C3B 6895   8.670  10.352   9.342 -0.2672 -0.0632  0.0211
  431loPI   C4B 6896   8.725  10.358   8.894  0.2644 -0.0471  0.0299
  432loPI    C1 6897  17.237  14.379  11.018  0.0370 -0.1433  0.0208
  432loPI    C2 6898  17.307  13.986  11.004 -0.3685 -0.2165 -0.0910
  432loPI    C3 6899  17.131  14.146  11.326  0.1300 -0.0622  0.1150
  432loPI   PO4 6900  17.126  14.470  10.830  0.0445 -0.0196  0.5128
  432loPI   GL1 6901  16.879  14.428  10.495 -0.1136 -0.3482  0.0522
  432loPI   GL2 6902  16.604  14.425  10.554 -0.0541 -0.2048 -0.1085
  432loPI   C1A 6903  16.897  14.476  10.215  0.0400 -0.0528  0.3091
  432loPI   C2A 6904  16.881  14.307   9.924  0.0514 -0.0821  0.1581
  432loPI   C3A 6905  16.998  14.360   9.479 -0.0976  0.1287  0.3125
  432loPI   C4A 6906  17.028  14.446   9.029 -0.0060  0.0479  0.0943
  432loPI   C5A 6907  16.952  14.522   8.649 -0.0150  0.1377  0.0442
  432loPI   C6A 6908  16.804  14.918   8.473  0.1788 -0.0789 -0.1379
  432loPI   C1B 6909  16.430  14.249  10.172  0.0668  0.0675 -0.1880
  432loPI   C2B 6910  16.467  14.117   9.765 -0.2207 -0.2098  0.1062
  432loPI   C3B 6911  16.466  14.171   9.419  0.0435  0.0656 -0.0379
  432loPI   C4B 6912  16.600  14.219   8.979  0.0466  0.0451  0.0209
  433loPI    C1 6913  16.369   4.071  11.444  0.0760  0.2133  0.1362
  433loPI    C2 6914  16.219   4.406  11.284  0.0354  0.0974 -0.0729
  433loPI    C3 6915  16.063   4.257  11.621  0.1112  0.3355  0.0701
  433loPI   PO4 6916  16.437   3.947  11.228  0.3284  0.1011  0.1759
  433loPI   GL1 6917  16.667   3.897  10.815  0.0854  0.1559 -0.3484
  433loPI   GL2 6918  16.693   3.612  10.640  0.0053  0.0380  0.2453
  433loPI   C1A 6919  16.725   4.202  10.525  0.1659  0.2417 -0.1672
  433loPI   C2A 6920  16.801   4.184  10.018 -0.3066 -0.1098 -0.2188
  433loPI   C3A 6921  16.773   4.157   9.593 -0.2852 -0.0840  0.2451
  433loPI   C4A 6922  16.775   4.220   9.141  0.3250 -0.1986 -0.1789
  433loPI   C5A 6923  16.664   4.016   8.727 -0.1984 -0.2350  0.1995
  433loPI   C6A 6924  16.489   3.735   8.421  0.0830 -0.1990  0.1139
  433loPI   C1B 6925  16.723   3.750  10.320  0.2004 -0.3568  0.0156
  433loPI   C2B 6926  16.781   3.723   9.854 -0.0150  0.4456  0.1291
  433loPI   C3B 6927  16.755   3.724   9.397 -0.0096  0.1581  0.1466
  433loPI   C4B 6928  16.643   3.578   9.012 -0.0444  0.0654  0.2110
  434loPI    C1 6929  17.246   5.284  11.521 -0.0789  0.1747  0.0851
  434loPI    C2 6930  17.261   4.922  11.691  0.1576  0.0447 -0.2019
  434loPI    C3 6931  17.039   5.212  11.855  0.1148 -0.1733  0.1351
  434loPI   PO4 6932  17.474   5.266  11.414 -0.1631  0.2803 -0.1488
  434loPI   GL1 6933  17.655   5.032  10.965  0.3411  0.1560  0.0550
  434loPI   GL2 6934  17.359   5.225  10.948 -0.0142 -0.2404 -0.2389
  434loPI   C1A 6935  17.830   4.956  10.537  0.0309  0.2175 -0.2458
  434loPI   C2A 6936  17.865   5.033  10.116 -0.0997  0.2615  0.0542
  434loPI   C3A 6937  17.937   5.057   9.650  0.2111  0.0581 -0.0401
  434loPI   C4A 6938  17.837   5.007   9.192  0.1838 -0.0421  0.0384
  434loPI   C5A 6939  17.773   5.224   8.866  0.0961 -0.2051 -0.3390
  434loPI   C6A 6940  17.327   5.330   8.712  0.3280  0.1856 -0.0387
  434loPI   C1B 6941  17.463   5.249  10.471 -0.1821 -0.1853 -0.4713
  434loPI   C2B 6942  17.540   5.412  10.037 -0.4888  0.0660 -0.2332
  434loPI   C3B 6943  17.504   5.312   9.653 -0.0216  0.0993  0.1603
  434loPI   C4B 6944  17.394   5.356   9.204  0.2762  0.0166  0.2407
  435loPI    C1 6945  14.425   0.194  11.090  0.1084  0.1022  0.0434
  435loPI    C2 6946  14.318   0.507  10.865  0.0570 -0.0134 -0.0938
  435loPI    C3 6947  14.088   0.394  11.172 -0.1191 -0.1422 -0.2695
  435loPI   PO4 6948  14.496   0.018  10.892 -0.0258  0.2751  0.0689
  435loPI   GL1 6949  14.256   0.130  10.458 -0.1762 -0.2194 -0.0977
  435loPI   GL2 6950  14.547  -0.100  10.327 -0.0839  0.1760 -0.0120
  435loPI   C1A 6951  14.188   0.271  10.102 -0.2239  0.2304  0.1556
  435loPI   C2A 6952  14.187   0.268   9.701 -0.0620  0.1512 -0.1299
  435loPI   C3A 6953  14.328   0.235   9.235 -0.0083  0.0818 -0.1905
  435loPI   C4A 6954  14.516   0.168   8.795  0.2929  0.0721  0.0530
  435loPI   C5A 6955  14.670   0.352   8.369 -0.2400 -0.1816  0.0224
  435loPI   C6A 6956  14.701   0.569   7.912 -0.1923 -0.1320  0.0324
  435loPI   C1B 6957  14.558  -0.061   9.846 -0.1507 -0.1454 -0.0259
  435loPI   C2B 6958  14.704  -0.052   9.521  0.3528 -0.1649  0.2965
  435loPI   C3B 6959  14.743  -0.089   9.156 -0.2704  0.1096  0.0307
  435loPI   C4B 6960  14.591  -0.260   8.595 -0.1463  0.3103  0.0131
  436loPI    C1 6961   6.960   2.542  10.664  0.0206  0.2756 -0.3266
  436loPI    C2 6962   6.593   2.701  10.642 -0.0321  0.1715 -0.2087
  436loPI    C3 6963   6.790   2.699  10.991 -0.0740 -0.1126 -0.1844
  436loPI   PO4 6964   6.909   2.327  10.410 -0.0485  0.1710  0.2163
  436loPI   GL1 6965   6.617   2.502  10.109 -0.0255  0.0937  0.0809
  436loPI   GL2 6966   6.318   2.657  10.198  0.0109 -0.0280  0.3087
  436loPI   C1A 6967   6.656   2.493   9.701 -0.3268 -0.3031 -0.0750
  436loPI   C2A 6968   6.678   2.543   9.328  0.0573 -0.0499  0.3054
  436loPI   C3A 6969   6.661   2.737   8.933 -0.2398 -0.1962 -0.1100
  436loPI   C4A 6970   6.513   2.864   8.510 -0.0127  0.2318 -0.1574
  436loPI   C5A 6971   6.149   2.828   8.308  0.0032  0.0671  0.1794
  436loPI   C6A 6972   5.938   2.464   8.086 -0.2564  0.1391 -0.1290
  436loPI   C1B 6973   6.165   2.667   9.853  0.2505 -0.1506 -0.2351
  436loPI   C2B 6974   6.214   2.731   9.490 -0.1411  0.0971 -0.0107
  436loPI   C3B 6975   6.269   3.009   9.194  0.1357 -0.2999 -0.2523
  436loPI   C4B 6976   6.255   3.159   8.866  0.0174  0.0908  0.2324
  437loPI    C1 6977  13.433  11.611  11.540 -0.1548 -0.0152  0.0298
  437loPI    C2 6978  13.760  11.734  11.736 -0.0664 -0.4089  0.1382
  437loPI    C3 6979  13.423  11.658  11.938 -0.2644  0.0986  0.0144
  437loPI   PO4 6980  13.544  11.448  11.353 -0.0802 -0.1186  0.0450
  437loPI   GL1 6981  13.735  11.600  10.922  0.1361 -0.3795 -0.0124
  437loPI   GL2 6982  13.647  11.243  10.934  0.0515 -0.0819  0.2646
  437loPI   C1A 6983  13.899  11.748  10.592 -0.0703  0.0000  0.0696
  437loPI   C2A 6984  13.959  11.789  10.204 -0.0889  0.0357 -0.1264
  437loPI   C3A 6985  13.903  11.667   9.877 -0.1034  0.1054 -0.1795
  437loPI   C4A 6986  13.871  11.693   9.434  0.4918 -0.4046 -0.0382
  437loPI   C5A 6987  13.869  11.524   8.979 -0.0730  0.1793  0.0739
  437loPI   C6A 6988  13.897  11.403   8.529  0.1863 -0.2204  0.0915
  437loPI   C1B 6989  13.783  11.218  10.529  0.0624 -0.0630  0.0732
  437loPI   C2B 6990  13.825  11.159  10.081  0.0360 -0.1902  0.0993
  437loPI   C3B 6991  13.805  11.226   9.638 -0.0022  0.0818  0.0001
  437loPI   C4B 6992  13.764  11.066   9.221 -0.1477  0.0453 -0.0574
  438loPI    C1 6993  15.467  16.482  11.160 -0.0183  0.2812  0.0899
  438loPI    C2 6994  15.071  16.505  11.207 -0.0511 -0.0563  0.0073
  438loPI    C3 6995  15.311  16.521  11.526 -0.1645 -0.4022  0.1144
  438loPI   PO4 6996  15.628  16.610  10.964  0.2573 -0.2813 -0.0624
  438loPI   GL1 6997  15.861  16.691  10.532 -0.0416  0.2729  0.3384
  438loPI   GL2 6998  15.657  16.938  10.575 -0.1647 -0.1354  0.1587
  438loPI   C1A 6999  15.967  16.535  10.208 -0.1335  0.0172  0.0038
  438loPI   C2A 7000  15.824  16.467   9.836 -0.1346 -0.1103 -0.2037
  438loPI   C3A 7001  15.931  16.528   9.400 -0.0014 -0.0466 -0.2405
  438loPI   C4A 7002  16.001  16.551   9.050  0.1922  0.0269 -0.1472
  438loPI   C5A 7003  15.881  16.667   8.583  0.2629  0.1129  0.1710
  438loPI   C6A 7004  15.798  16.586   8.208  0.2629 -0.0760  0.0179
  438loPI   C1B 7005  15.916  17.049  10.188 -0.2943 -0.1265  0.1267
  438loPI   C2B 7006  16.021  17.130   9.694  0.1581 -0.1392 -0.0725
  438loPI   C3B 7007  16.063  17.061   9.240  0.0367  0.0863 -0.2723
  438loPI   C4B 7008  16.181  17.063   8.837 -0.0649 -0.3974  0.0596
  439loPI    C1 7009  12.935  13.417  11.464  0.2537  0.0377  0.0289
  439loPI    C2 7010  13.147  13.443  11.802 -0.0942 -0.0700  0.2612
  439loPI    C3 7011  12.749  13.478  11.813 -0.1033  0.0083 -0.1516
  439loPI   PO4 7012  13.132  13.381  11.243 -0.2022  0.1121 -0.0688
  439loPI   GL1 7013  13.146  13.439  10.789 -0.1333  0.1699 -0.0879
  439loPI   GL2 7014  13.299  13.092  10.850  0.0691 -0.2558 -0.2565
  439loPI   C1A 7015  13.299  13.431  10.436 -0.0533 -0.0430 -0.0341
  439loPI   C2A 7016  13.224  13.400  10.033  0.0689  0.0689  0.0185
  439loPI   C3A 7017  13.290  13.383   9.558  0.1538 -0.2229 -0.1134
  439loPI   C4A 7018  13.209  13.457   9.074  0.2453 -0.3995  0.2258
  439loPI   C5A 7019  13.296  13.221   8.784  0.0964  0.1121 -0.0281
  439loPI   C6A 7020  13.695  12.965   8.729 -0.1089 -0.3871 -0.1861
  439loPI   C1B 7021  13.465  12.924  10.496 -0.0713  0.0759 -0.1574
  439loPI   C2B 7022  13.623  13.060  10.131  0.0685 -0.0889  0.2735
  439loPI   C3B 7023  13.652  13.100   9.718  0.0394  0.2959  0.0869
  439loPI   C4B 7024  13.516  13.106   9.255  0.1132  0.0710  0.1015
  440loPI    C1 7025   6.338   6.142  11.432  0.0869 -0.0219  0.0972
  440loPI    C2 7026   6.586   6.312  11.697  0.0816  0.1579 -0.0118
  440loPI    C3 7027   6.420   5.957  11.777  0.2682  0.0992  0.1207
  440loPI   PO4 7028   6.479   6.172  11.151 -0.1601 -0.1319  0.0756
  440loPI   GL1 7029   6.477   6.404  10.698 -0.0262  0.0800  0.2322
  440loPI   GL2 7030   6.218   6.226  10.721  0.3988 -0.2669  0.1432
  440loPI   C1A 7031   6.402   6.389  10.212 -0.2238 -0.0472  0.3089
  440loPI   C2A 7032   6.389   6.478   9.724  0.1170 -0.0019 -0.1075
  440loPI   C3A 7033   6.287   6.427   9.314 -0.0179 -0.0167 -0.0541
  440loPI   C4A 7034   6.206   6.398   8.902  0.0575 -0.2463 -0.0245
  440loPI   C5A 7035   5.913   6.303   8.646  0.1752 -0.1586  0.0074
  440loPI   C6A 7036   5.480   6.221   8.411 -0.0807 -0.0513  0.0046
  440loPI   C1B 7037   5.950   6.279  10.380 -0.1002  0.4497  0.0646
  440loPI   C2B 7038   5.936   6.330   9.947 -0.0148  0.0461  0.0794
  440loPI   C3B 7039   5.806   6.386   9.557  0.0364 -0.1494 -0.0206
  440loPI   C4B 7040   5.849   6.162   9.246 -0.0666  0.0000 -0.0064
  441loPI    C1 7041   6.841   4.958  10.981  0.3380  0.0915 -0.0808
  441loPI    C2 7042   6.896   4.996  11.375 -0.1591 -0.0387  0.0090
  441loPI    C3 7043   6.858   5.322  11.146  0.2907  0.0404  0.0377
  441loPI   PO4 7044   6.980   4.753  10.900  0.0528  0.1684  0.0567
  441loPI   GL1 7045   7.055   4.465  10.558 -0.2239  0.1906 -0.0964
  441loPI   GL2 7046   7.308   4.563  10.428 -0.0769 -0.0669 -0.1715
  441loPI   C1A 7047   6.917   4.204  10.177  0.3505  0.2216 -0.0862
  441loPI   C2A 7048   6.969   4.293   9.751 -0.0716  0.0852  0.3679
  441loPI   C3A 7049   6.962   4.267   9.197  0.3682  0.0640  0.1955
  441loPI   C4A 7050   6.927   4.271   8.704  0.0837  0.2712  0.0768
  441loPI   C5A 7051   7.135   4.110   8.345  0.1176  0.0683  0.2269
  441loPI   C6A 7052   7.127   3.999   8.022 -0.1648  0.1476  0.0832
  441loPI   C1B 7053   7.209   4.815  10.076 -0.1646  0.0898  0.0054
  441loPI   C2B 7054   7.149   4.719   9.659 -0.0631 -0.0213  0.0691
  441loPI   C3B 7055   7.072   4.841   9.230 -0.1021  0.1030 -0.0548
  441loPI   C4B 7056   7.043   4.779   8.834 -0.2997 -0.1467  0.1794
  442loPI    C1 7057   6.596   7.926  11.264  0.0813  0.2423  0.1651
  442loPI    C2 7058   6.973   7.948  11.396  0.1124  0.0426  0.1123
  442loPI    C3 7059   6.740   7.641  11.505 -0.0578  0.2013  0.2002
  442loPI   PO4 7060   6.638   7.941  11.047  0.0976 -0.0151  0.3986
  442loPI   GL1 7061   6.918   7.777  10.705  0.1160  0.0969  0.0805
  442loPI   GL2 7062   7.186   7.860  10.487 -0.0326 -0.0185  0.0202
  442loPI   C1A 7063   6.680   7.656  10.276 -0.1427  0.0212 -0.1135
  442loPI   C2A 7064   6.511   7.568   9.914 -0.0776 -0.1257 -0.3474
  442loPI   C3A 7065   6.489   7.441   9.543 -0.1026 -0.0259 -0.2110
  442loPI   C4A 7066   6.420   7.463   9.085 -0.2274  0.2113  0.0899
  442loPI   C5A 7067   6.633   7.250   8.787 -0.1655  0.2763  0.0448
  442loPI   C6A 7068   6.956   7.023   8.721  0.2104  0.0062 -0.0037
  442loPI   C1B 7069   7.112   7.846  10.067  0.0233 -0.2113  0.3284
  442loPI   C2B 7070   7.025   7.705   9.637 -0.2199  0.0041  0.1917
  442loPI   C3B 7071   6.880   7.614   9.176 -0.0366  0.0647  0.0208
  442loPI   C4B 7072   6.817   7.703   8.672  0.0075  0.4861  0.2987
  443loPI    C1 7073  14.505  13.773  11.017 -0.1391  0.3071  0.0643
  443loPI    C2 7074  14.753  13.928  11.289  0.2122 -0.0030 -0.0713
  443loPI    C3 7075  14.524  13.614  11.383  0.1725  0.0268 -0.0687
  443loPI   PO4 7076  14.631  13.726  10.809  0.2648  0.1688  0.0615
  443loPI   GL1 7077  14.349  13.478  10.526  0.1343 -0.1409  0.0323
  443loPI   GL2 7078  14.539  13.515  10.266  0.1190  0.0245  0.1707
  443loPI   C1A 7079  14.098  13.182  10.182 -0.1302 -0.2946  0.0163
  443loPI   C2A 7080  14.095  13.234   9.781 -0.1614 -0.3100  0.0590
  443loPI   C3A 7081  14.172  13.282   9.381  0.0834  0.4085 -0.2391
  443loPI   C4A 7082  14.184  13.203   8.931 -0.1210  0.0737  0.0597
  443loPI   C5A 7083  14.162  13.072   8.462 -0.0792  0.0492  0.3336
  443loPI   C6A 7084  13.895  12.918   8.141 -0.2573 -0.0585  0.0179
  443loPI   C1B 7085  14.549  13.449   9.829  0.1758 -0.0561 -0.4176
  443loPI   C2B 7086  14.640  13.405   9.438 -0.2425  0.5183 -0.1379
  443loPI   C3B 7087  14.664  13.445   8.962  0.0655 -0.1924  0.5398
  443loPI   C4B 7088  14.666  13.199   8.644  0.1489  0.0120 -0.2730
  444loPI    C1 7089  13.761  17.210  11.189  0.1801 -0.2079  0.2364
  444loPI    C2 7090  13.662  16.880  11.392 -0.1446 -0.1439  0.1878
  444loPI    C3 7091  13.805  17.199  11.586 -0.0165 -0.2432  0.2582
  444loPI   PO4 7092  13.807  17.097  10.926 -0.0114  0.1251  0.0860
  444loPI   GL1 7093  13.964  17.048  10.519  0.1039 -0.1040 -0.0048
  444loPI   GL2 7094  13.750  16.945  10.420 -0.2696 -0.0335 -0.1620
  444loPI   C1A 7095  14.133  17.226  10.230 -0.3075  0.1414 -0.1568
  444loPI   C2A 7096  14.096  17.373   9.882  0.0358 -0.0349  0.2434
  444loPI   C3A 7097  14.195  17.358   9.380  0.2498 -0.1235  0.1272
  444loPI   C4A 7098  14.227  17.188   8.982  0.2577  0.2835  0.2248
  444loPI   C5A 7099  14.089  17.246   8.581 -0.3809  0.4519  0.2612
  444loPI   C6A 7100  13.919  17.108   8.166 -0.2121 -0.2239 -0.1030
  444loPI   C1B 7101  13.659  17.083  10.056  0.1018 -0.1801 -0.0978
  444loPI   C2B 7102  13.713  17.190   9.584 -0.0414 -0.1008  0.0132
  444loPI   C3B 7103  13.710  17.131   9.103 -0.0172 -0.1186  0.0340
  444loPI   C4B 7104  13.811  16.854   8.862 -0.1608 -0.0646 -0.0768
  445loPI    C1 7105  14.623   5.689  11.717  0.1054  0.2536  0.0588
  445loPI    C2 7106  14.813   5.731  12.066 -0.0731  0.1427  0.1709
  445loPI    C3 7107  14.481   5.510  12.045  0.0252  0.0172 -0.1026
  445loPI   PO4 7108  14.757   5.599  11.437  0.2780  0.0286 -0.2272
  445loPI   GL1 7109  14.861   5.684  10.975  0.0289 -0.0506  0.2957
  445loPI   GL2 7110  14.570   5.492  10.845 -0.1487 -0.0387 -0.0900
  445loPI   C1A 7111  14.814   5.781  10.487 -0.0635 -0.0085 -0.0043
  445loPI   C2A 7112  14.793   5.871  10.081  0.0126  0.0275 -0.1411
  445loPI   C3A 7113  14.791   5.999   9.734  0.1508 -0.1430  0.1574
  445loPI   C4A 7114  14.805   6.111   9.200  0.1582  0.1162 -0.0291
  445loPI   C5A 7115  14.626   6.202   8.890 -0.3708  0.1264 -0.2191
  445loPI   C6A 7116  14.481   6.050   8.531  0.1085  0.0552  0.1049
  445loPI   C1B 7117  14.375   5.187  10.641  0.2814  0.0629 -0.0888
  445loPI   C2B 7118  14.219   5.115  10.221  0.1158 -0.1721  0.0623
  445loPI   C3B 7119  14.082   5.167   9.763  0.1352 -0.0875 -0.0941
  445loPI   C4B 7120  13.930   5.214   9.428 -0.2018 -0.0478  0.0946
  446loPI    C1 7121   4.364   9.201  11.441 -0.0247 -0.1026 -0.0579
  446loPI    C2 7122   4.646   9.043  11.677 -0.0257 -0.0852 -0.0448
  446loPI    C3 7123   4.269   9.074  11.808 -0.0112 -0.0067 -0.0207
  446loPI   PO4 7124   4.552   9.209  11.155 -0.2543  0.1822 -0.0534
  446loPI   GL1 7125   4.793   9.171  10.784  0.0934 -0.0255  0.0952
  446loPI   GL2 7126   4.680   8.832  10.871 -0.3199 -0.1205  0.4066
  446loPI   C1A 7127   4.624   9.094  10.412 -0.3067 -0.0472  0.0300
  446loPI   C2A 7128   4.625   9.307  10.020  0.0283 -0.1942  0.4616
  446loPI   C3A 7129   4.521   9.215   9.652 -0.2028  0.0722 -0.1007
  446loPI   C4A 7130   4.513   9.311   9.253  0.0660  0.1623  0.1330
  446loPI   C5A 7131   4.779   9.398   8.996  0.0949 -0.3600  0.0805
  446loPI   C6A 7132   4.818   9.446   8.536  0.0466 -0.3947  0.0219
  446loPI   C1B 7133   4.610   8.602  10.606  0.3018 -0.1611  0.0645
  446loPI   C2B 7134   4.482   8.656  10.224 -0.0007 -0.2113 -0.2655
  446loPI   C3B 7135   4.418   8.686   9.742 -0.0070 -0.0552  0.0546
  446loPI   C4B 7136   4.563   8.658   9.307 -0.0266 -0.1228 -0.2219
  447loPI    C1 7137   2.095   5.972  11.811  0.0310  0.3566  0.1141
  447loPI    C2 7138   2.364   5.874  12.090 -0.1229  0.0425  0.1569
  447loPI    C3 7139   2.088   6.153  12.168 -0.0353  0.1062  0.2422
  447loPI   PO4 7140   2.149   5.765  11.634  0.1916 -0.0507 -0.1288
  447loPI   GL1 7141   2.077   5.690  11.192 -0.1047 -0.0414  0.0745
  447loPI   GL2 7142   1.922   5.517  11.127  0.2938 -0.3444  0.3212
  447loPI   C1A 7143   2.257   5.804  10.847  0.0524  0.0954  0.2307
  447loPI   C2A 7144   2.191   5.769  10.410  0.0616 -0.2383  0.1551
  447loPI   C3A 7145   2.089   5.730  10.080 -0.1285 -0.0564  0.2543
  447loPI   C4A 7146   2.179   5.751   9.697  0.0746 -0.3633 -0.0065
  447loPI   C5A 7147   2.159   5.959   9.285 -0.2190  0.0668  0.1177
  447loPI   C6A 7148   2.413   5.957   8.952  0.3530 -0.3359 -0.2477
  447loPI   C1B 7149   1.762   5.579  10.722  0.3472 -0.4183  0.3067
  447loPI   C2B 7150   1.691   5.556  10.344 -0.0391  0.0614  0.0669
  447loPI   C3B 7151   1.705   5.585   9.809 -0.2568 -0.0217 -0.3079
  447loPI   C4B 7152   1.713   5.598   9.363 -0.0428  0.1117 -0.4713
  448loPI    C1 7153   1.578  12.028  11.518  0.3088  0.2830 -0.1014
  448loPI    C2 7154   1.433  12.237  11.826  0.0747 -0.0640  0.0292
  448loPI    C3 7155   1.782  12.045  11.862  0.1218  0.0207  0.0258
  448loPI   PO4 7156   1.452  12.145  11.311  0.0969 -0.1338  0.0247
  448loPI   GL1 7157   1.680  12.241  10.845 -0.2435 -0.0783 -0.1184
  448loPI   GL2 7158   1.586  12.413  10.593 -0.1704  0.1686 -0.1498
  448loPI   C1A 7159   1.822  11.990  10.454 -0.2514 -0.1250 -0.2887
  448loPI   C2A 7160   1.855  11.905   9.968  0.2539 -0.2967 -0.1928
  448loPI   C3A 7161   1.708  11.885   9.528 -0.1249  0.2397 -0.3077
  448loPI   C4A 7162   1.865  12.068   9.141 -0.4807  0.0338  0.0331
  448loPI   C5A 7163   2.030  12.197   8.744 -0.1651 -0.3030  0.2464
  448loPI   C6A 7164   2.204  12.667   8.562 -0.0475 -0.3171 -0.0822
  448loPI   C1B 7165   1.474  12.285  10.170  0.1823  0.0469 -0.0104
  448loPI   C2B 7166   1.379  12.230   9.721 -0.1160  0.4339  0.0683
  448loPI   C3B 7167   1.461  12.275   9.279 -0.2556  0.0076 -0.3945
  448loPI   C4B 7168   1.359  12.088   8.872 -0.3520 -0.0772 -0.1612
  449loPI    C1 7169   2.788   8.386  11.564 -0.0418 -0.2778  0.1269
  449loPI    C2 7170   3.110   8.604  11.659 -0.1216 -0.0824 -0.0426
  449loPI    C3 7171   2.823   8.541  11.931 -0.1181  0.0602 -0.0051
  449loPI   PO4 7172   2.698   8.514  11.388  0.0883 -0.2150 -0.3190
  449loPI   GL1 7173   2.729   8.754  10.980  0.0193  0.0416  0.0237
  449loPI   GL2 7174   2.826   9.075  10.977  0.0161 -0.2673 -0.0291
  449loPI   C1A 7175   2.671   8.901  10.510 -0.0674 -0.1513  0.0975
  449loPI   C2A 7176   2.650   8.927  10.093 -0.2152 -0.0700  0.0353
  449loPI   C3A 7177   2.654   8.968   9.637  0.1068  0.1163 -0.0207
  449loPI   C4A 7178   2.644   8.962   9.268  0.3273 -0.3000  0.0978
  449loPI   C5A 7179   2.726   8.578   8.861 -0.0025 -0.1865  0.3416
  449loPI   C6A 7180   2.428   8.301   8.566 -0.0711  0.2826 -0.1061
  449loPI   C1B 7181   2.891   9.378  10.635 -0.1926 -0.0155  0.1438
  449loPI   C2B 7182   2.777   9.352  10.249 -0.3704  0.2103 -0.0121
  449loPI   C3B 7183   2.750   9.423   9.903 -0.1059 -0.2433  0.0560
  449loPI   C4B 7184   2.732   9.427   9.386 -0.2568 -0.0612 -0.3435
  450loPI    C1 7185   9.579  12.177  11.116 -0.2676  0.1714 -0.2014
  450loPI    C2 7186   9.538  12.519  10.914 -0.2501  0.2190 -0.1247
  450loPI    C3 7187   9.239  12.254  10.919 -0.3286  0.3080 -0.0459
  450loPI   PO4 7188   9.754  12.091  10.986  0.0929  0.0676  0.2793
  450loPI   GL1 7189   9.943  11.925  10.510 -0.1703  0.1294  0.0972
  450loPI   GL2 7190   9.749  12.206  10.436 -0.0071  0.0638  0.1460
  450loPI   C1A 7191   9.934  11.886  10.011  0.2032  0.0574  0.0346
  450loPI   C2A 7192   9.884  11.921   9.613  0.1950  0.0668 -0.1235
  450loPI   C3A 7193   9.925  11.740   9.195 -0.2314  0.3981 -0.4409
  450loPI   C4A 7194   9.786  11.748   8.745  0.1211 -0.0535  0.1255
  450loPI   C5A 7195   9.774  11.742   8.285  0.0300 -0.1155 -0.2228
  450loPI   C6A 7196   9.309  11.600   8.085 -0.1137 -0.3050  0.0505
  450loPI   C1B 7197   9.487  12.310  10.011 -0.2292  0.1842  0.0407
  450loPI   C2B 7198   9.458  12.239   9.549 -0.1873  0.1179  0.1134
  450loPI   C3B 7199   9.387  12.164   9.183 -0.1665  0.2149 -0.0624
  450loPI   C4B 7200   9.482  12.101   8.825 -0.3909 -0.1873  0.0953
  451loPI    C1 7201   4.597  16.007  11.544 -0.2023  0.0770 -0.0562
  451loPI    C2 7202   4.494  16.392  11.519 -0.2656  0.0583 -0.0859
  451loPI    C3 7203   4.390  16.178  11.840 -0.0978  0.1057  0.0010
  451loPI   PO4 7204   4.579  15.820  11.318 -0.1321  0.0307 -0.2611
  451loPI   GL1 7205   4.656  15.859  10.822  0.2892  0.0666  0.1259
  451loPI   GL2 7206   4.849  15.641  10.642  0.0875 -0.1258 -0.1558
  451loPI   C1A 7207   4.695  16.001  10.305  0.1641 -0.2717  0.3439
  451loPI   C2A 7208   4.595  16.096   9.922  0.0001 -0.1570  0.2969
  451loPI   C3A 7209   4.609  16.058   9.474  0.0269 -0.0422  0.0071
  451loPI   C4A 7210   4.557  16.171   8.953  0.2869 -0.0195 -0.1960
  451loPI   C5A 7211   4.486  16.121   8.605  0.1225 -0.0782  0.1321
  451loPI   C6A 7212   4.158  16.173   8.354  0.1020 -0.3005 -0.0484
  451loPI   C1B 7213   5.034  15.659  10.151 -0.3817 -0.0672  0.4175
  451loPI   C2B 7214   5.088  15.748   9.684 -0.1766 -0.1032 -0.2449
  451loPI   C3B 7215   5.001  15.697   9.352 -0.1504 -0.2413 -0.3062
  451loPI   C4B 7216   5.022  15.871   8.935  0.1811 -0.0446 -0.1598
  452loPI    C1 7217  15.077  14.588  10.879 -0.2027 -0.0917 -0.1639
  452loPI    C2 7218  15.428  14.398  10.903 -0.0988  0.0995 -0.1476
  452loPI    C3 7219  15.152  14.346  11.188 -0.1313 -0.1430 -0.2212
  452loPI   PO4 7220  14.930  14.537  10.663  0.0092  0.1702 -0.0852
  452loPI   GL1 7221  14.821  14.635  10.290  0.5836 -0.0831 -0.0456
  452loPI   GL2 7222  14.626  14.501  10.240  0.0875  0.0079  0.1596
  452loPI   C1A 7223  15.110  14.750   9.959  0.2183  0.1698  0.1306
  452loPI   C2A 7224  15.097  14.654   9.546  0.0785 -0.0561  0.0720
  452loPI   C3A 7225  15.285  14.638   9.106  0.0368  0.0572 -0.0274
  452loPI   C4A 7226  15.322  14.780   8.661 -0.0122  0.0797 -0.1872
  452loPI   C5A 7227  15.534  14.816   8.398 -0.1242 -0.1671 -0.0724
  452loPI   C6A 7228  15.936  14.907   8.205 -0.0528 -0.3631  0.0474
  452loPI   C1B 7229  14.686  14.516   9.788  0.1305  0.1392 -0.1698
  452loPI   C2B 7230  14.717  14.449   9.283  0.1099 -0.0208  0.2176
  452loPI   C3B 7231  14.758  14.432   8.873  0.0027 -0.1436  0.3195
  452loPI   C4B 7232  14.872  14.539   8.415 -0.2269  0.0155 -0.1846
  453loPI    C1 7233  14.331   5.312  11.624 -0.1820  0.1358  0.1733
  453loPI    C2 7234  14.387   5.019  11.890 -0.2057 -0.0445 -0.0178
  453loPI    C3 7235  14.698   5.165  11.686 -0.1859  0.1009  0.1145
  453loPI   PO4 7236  14.156   5.245  11.516  0.1182  0.0339  0.2235
  453loPI   GL1 7237  14.051   5.262  11.019  0.0399  0.0707  0.1879
  453loPI   GL2 7238  13.999   5.639  10.855  0.1091  0.0765  0.0660
  453loPI   C1A 7239  13.868   5.263  10.549  0.0014 -0.0379 -0.0850
  453loPI   C2A 7240  13.728   5.436  10.221 -0.1509  0.0076 -0.0767
  453loPI   C3A 7241  13.666   5.493   9.807 -0.2322  0.2279  0.0928
  453loPI   C4A 7242  13.609   5.615   9.425 -0.0402  0.0695 -0.1597
  453loPI   C5A 7243  13.495   5.606   9.027  0.0494 -0.1505 -0.0333
  453loPI   C6A 7244  13.170   5.533   8.696 -0.1296  0.2356 -0.0459
  453loPI   C1B 7245  14.257   5.637  10.457  0.0600  0.4630 -0.0710
  453loPI   C2B 7246  14.168   5.591  10.042  0.0062  0.1963 -0.2937
  453loPI   C3B 7247  14.108   5.677   9.555  0.1243  0.0296  0.0865
  453loPI   C4B 7248  14.043   5.625   9.126 -0.1867 -0.0085  0.0520
  454loPI    C1 7249   8.799  11.845  11.220  0.0156 -0.0244  0.1840
  454loPI    C2 7250   9.125  11.999  11.394  0.1078 -0.0959  0.0767
  454loPI    C3 7251   8.868  11.780  11.609  0.0974  0.0124  0.1759
  454loPI   PO4 7252   8.910  11.831  10.949  0.0950 -0.2453  0.1747
  454loPI   GL1 7253   8.845  11.654  10.527 -0.0010  0.1361 -0.1682
  454loPI   GL2 7254   8.654  11.971  10.532  0.1195  0.3380 -0.2136
  454loPI   C1A 7255   8.845  11.608  10.187  0.0541 -0.0384 -0.0202
  454loPI   C2A 7256   8.912  11.501   9.824  0.2495  0.1306  0.1446
  454loPI   C3A 7257   8.892  11.399   9.394  0.1855 -0.2528 -0.3294
  454loPI   C4A 7258   8.967  11.464   8.901  0.1252 -0.0701 -0.2827
  454loPI   C5A 7259   8.932  11.327   8.442  0.0449  0.2694 -0.3215
  454loPI   C6A 7260   8.841  11.581   8.048 -0.2699 -0.1749  0.0835
  454loPI   C1B 7261   8.490  11.931  10.098 -0.0444  0.1420 -0.1079
  454loPI   C2B 7262   8.523  11.829   9.711  0.2872  0.4015  0.0025
  454loPI   C3B 7263   8.468  11.748   9.253  0.0925 -0.2015 -0.2330
  454loPI   C4B 7264   8.476  11.653   8.924 -0.0242  0.1064 -0.0113
  455loPI    C1 7265  13.755  10.302  11.511  0.1195  0.1016 -0.4234
  455loPI    C2 7266  14.093  10.486  11.620  0.0128  0.1318 -0.1359
  455loPI    C3 7267  14.044  10.096  11.696 -0.1544  0.2037  0.1384
  455loPI   PO4 7268  13.705  10.411  11.292  0.0892  0.1646 -0.1409
  455loPI   GL1 7269  13.555  10.641  10.910 -0.0783 -0.0807  0.2579
  455loPI   GL2 7270  13.268  10.537  10.733  0.0687 -0.3207 -0.0667
  455loPI   C1A 7271  13.664  10.716  10.502 -0.2208 -0.3039 -0.2416
  455loPI   C2A 7272  13.802  10.670  10.046 -0.1171  0.0151  0.1459
  455loPI   C3A 7273  13.739  10.562   9.542 -0.1113  0.3814 -0.1718
  455loPI   C4A 7274  13.787  10.523   9.130 -0.0054 -0.2584 -0.0359
  455loPI   C5A 7275  13.724  10.731   8.767  0.1343  0.0224 -0.0981
  455loPI   C6A 7276  13.481  10.930   8.368 -0.0422 -0.0779  0.0102
  455loPI   C1B 7277  13.290  10.499  10.361 -0.2430 -0.4832 -0.2145
  455loPI   C2B 7278  13.268  10.427   9.906 -0.2668 -0.0589 -0.0479
  455loPI   C3B 7279  13.276  10.389   9.475  0.0699 -0.2485 -0.2212
  455loPI   C4B 7280  13.190  10.434   9.108  0.0455  0.0944 -0.0165
  456loPI    C1 7281  15.996   2.351  11.220  0.0370 -0.0683  0.0801
  456loPI    C2 7282  15.765   2.340  11.546  0.1089 -0.0406  0.1322
  456loPI    C3 7283  16.154   2.426  11.579  0.0765  0.1549  0.0177
  456loPI   PO4 7284  15.929   2.468  11.094 -0.1246 -0.2780  0.1274
  456loPI   GL1 7285  15.977   2.287  10.662 -0.0618 -0.0981 -0.1942
  456loPI   GL2 7286  15.690   2.473  10.633 -0.1177  0.1278  0.2413
  456loPI   C1A 7287  16.257   2.115  10.400 -0.2195  0.0835 -0.2313
  456loPI   C2A 7288  16.390   2.111  10.008  0.0071 -0.0013 -0.1785
  456loPI   C3A 7289  16.409   2.134   9.678  0.0489  0.3601  0.4217
  456loPI   C4A 7290  16.461   2.049   9.274 -0.1524  0.0814  0.0513
  456loPI   C5A 7291  16.376   1.925   8.837 -0.2313  0.1663 -0.1576
  456loPI   C6A 7292  16.025   1.942   8.591  0.3451  0.2084  0.2350
  456loPI   C1B 7293  15.822   2.584  10.254  0.0752  0.0543  0.1201
  456loPI   C2B 7294  16.081   2.565   9.819  0.0580  0.2939 -0.1255
  456loPI   C3B 7295  16.025   2.461   9.428 -0.0965  0.0499  0.2224
  456loPI   C4B 7296  16.088   2.273   9.054  0.0478 -0.1157  0.0105
  457loPI    C1 7297   3.882   3.972  11.353  0.3467 -0.0045 -0.0371
  457loPI    C2 7298   3.865   4.163  11.704 -0.0743 -0.1989  0.0544
  457loPI    C3 7299   3.915   3.766  11.694  0.3633 -0.1451 -0.1228
  457loPI   PO4 7300   3.754   4.220  11.216 -0.4275  0.1434 -0.1979
  457loPI   GL1 7301   3.675   4.401  10.916  0.0684 -0.2092 -0.0233
  457loPI   GL2 7302   3.859   4.247  10.732 -0.0894  0.2112  0.1409
  457loPI   C1A 7303   3.547   4.636  10.569  0.0899  0.0396 -0.0184
  457loPI   C2A 7304   3.384   4.772  10.156 -0.3443  0.4070 -0.0703
  457loPI   C3A 7305   3.342   4.775   9.733 -0.0485  0.0563  0.1736
  457loPI   C4A 7306   3.431   4.905   9.353 -0.1819 -0.1136  0.0196
  457loPI   C5A 7307   3.420   5.104   8.975 -0.0070 -0.0394 -0.2197
  457loPI   C6A 7308   3.434   5.327   8.695 -0.0553 -0.1777 -0.1416
  457loPI   C1B 7309   3.882   4.451  10.299  0.1131  0.1540 -0.3109
  457loPI   C2B 7310   3.761   4.471   9.823 -0.1823 -0.2484  0.1778
  457loPI   C3B 7311   3.771   4.614   9.468 -0.3518 -0.0334 -0.2531
  457loPI   C4B 7312   3.653   4.548   8.993 -0.3564 -0.0307 -0.2650
  458loPI    C1 7313   7.245   6.486  11.555  0.1092 -0.0511 -0.0419
  458loPI    C2 7314   7.607   6.411  11.708  0.1272  0.0925 -0.0125
  458loPI    C3 7315   7.282   6.245  11.873  0.1857 -0.0994 -0.0870
  458loPI   PO4 7316   7.357   6.540  11.237  0.1359  0.1346  0.0611
  458loPI   GL1 7317   7.419   6.668  10.768 -0.0933  0.0468  0.3476
  458loPI   GL2 7318   7.787   6.772  10.792 -0.2801  0.0101 -0.1464
  458loPI   C1A 7319   7.210   6.753  10.451 -0.2289  0.2944 -0.0618
  458loPI   C2A 7320   7.157   6.672  10.049 -0.2229  0.1533  0.1155
  458loPI   C3A 7321   6.878   6.767   9.751  0.1796  0.2262  0.1078
  458loPI   C4A 7322   6.823   6.665   9.257 -0.1662 -0.0785  0.3099
  458loPI   C5A 7323   6.748   6.504   8.816 -0.3142  0.1340  0.0564
  458loPI   C6A 7324   6.591   6.137   8.669  0.0968  0.1418 -0.1585
  458loPI   C1B 7325   7.765   6.659  10.299 -0.2385 -0.0515  0.1908
  458loPI   C2B 7326   7.826   6.606   9.740 -0.2751  0.1200  0.1557
  458loPI   C3B 7327   7.737   6.642   9.330  0.2810 -0.0329  0.3562
  458loPI   C4B 7328   7.696   6.390   8.922 -0.1980 -0.0910 -0.1116
  459loPI    C1 7329   0.984  12.853  11.260  0.1953  0.1578 -0.2296
  459loPI    C2 7330   0.726  13.055  11.490  0.0960 -0.2487  0.0275
  459loPI    C3 7331   0.595  12.858  11.167  0.1338 -0.2084 -0.0127
  459loPI   PO4 7332   1.215  12.993  11.124 -0.0763 -0.0039  0.3008
  459loPI   GL1 7333   1.200  13.048  10.666 -0.0784  0.0609  0.3036
  459loPI   GL2 7334   1.293  12.823  10.652 -0.0803 -0.0361  0.1584
  459loPI   C1A 7335   1.024  13.058  10.256  0.1267 -0.0949 -0.1379
  459loPI   C2A 7336   1.114  13.081   9.804 -0.0771  0.0051  0.2357
  459loPI   C3A 7337   0.980  13.120   9.365  0.2139  0.1216 -0.2274
  459loPI   C4A 7338   1.033  13.040   8.931 -0.0564 -0.0855 -0.2447
  459loPI   C5A 7339   0.933  12.741   8.609 -0.0324  0.1704 -0.0921
  459loPI   C6A 7340   1.033  12.396   8.522  0.1882 -0.2074 -0.1079
  459loPI   C1B 7341   1.453  12.813  10.193  0.1408  0.0215 -0.4726
  459loPI   C2B 7342   1.480  12.785   9.704  0.1493  0.0264  0.0274
  459loPI   C3B 7343   1.376  12.816   9.322  0.0132  0.1925  0.2338
  459loPI   C4B 7344   1.431  12.777   8.877  0.1137 -0.3418 -0.0429
  460loPI    C1 7345  10.999   1.645  10.664  0.0605 -0.0874 -0.1299
  460loPI    C2 7346  11.241   1.796  10.945  0.0311 -0.1110 -0.0918
  460loPI    C3 7347  11.250   1.405  10.862 -0.1433 -0.1487  0.0590
  460loPI   PO4 7348  10.975   1.812  10.469 -0.0945 -0.1334  0.1554
  460loPI   GL1 7349  11.070   1.609  10.114  0.0955  0.4019 -0.2140
  460loPI   GL2 7350  11.366   1.743  10.084 -0.0167 -0.3320  0.0136
  460loPI   C1A 7351  10.973   1.544   9.660  0.1534  0.0897 -0.2537
  460loPI   C2A 7352  11.021   1.643   9.229  0.0801  0.2165  0.0489
  460loPI   C3A 7353  11.063   1.810   8.831 -0.0104 -0.0575 -0.1711
  460loPI   C4A 7354  11.051   1.854   8.396  0.2388 -0.1673  0.4648
  460loPI   C5A 7355  10.956   2.312   8.215  0.1692  0.0635 -0.1789
  460loPI   C6A 7356  11.024   2.407   7.730 -0.0550  0.1927 -0.1541
  460loPI   C1B 7357  11.425   1.851   9.705  0.0726  0.0601  0.0793
  460loPI   C2B 7358  11.499   1.954   9.242  0.1818 -0.0777  0.2492
  460loPI   C3B 7359  11.561   2.089   8.871 -0.0684  0.0553 -0.3006
  460loPI   C4B 7360  11.541   2.083   8.431 -0.2164 -0.0967 -0.1044
  461loPI    C1 7361  14.016   8.057  11.801 -0.2843 -0.1195  0.2892
  461loPI    C2 7362  14.412   8.069  11.856 -0.2216  0.0786 -0.1646
  461loPI    C3 7363  14.166   8.096  12.170  0.1196  0.3088  0.0908
  461loPI   PO4 7364  14.036   8.256  11.569  0.0611  0.2818  0.0194
  461loPI   GL1 7365  13.862   8.195  11.148  0.0188  0.0661 -0.0398
  461loPI   GL2 7366  14.118   8.293  11.078  0.0956  0.1515  0.0554
  461loPI   C1A 7367  13.821   8.291  10.670 -0.2438 -0.0040 -0.1640
  461loPI   C2A 7368  13.898   8.199  10.118 -0.0871 -0.1792 -0.0754
  461loPI   C3A 7369  13.934   8.325   9.748  0.2557 -0.1334 -0.0895
  461loPI   C4A 7370  13.882   8.267   9.284  0.1712  0.2134 -0.4407
  461loPI   C5A 7371  13.734   8.482   8.755 -0.0828 -0.1321  0.0605
  461loPI   C6A 7372  13.425   8.802   8.552  0.1212  0.1291  0.1665
  461loPI   C1B 7373  14.225   7.968  10.681  0.1237 -0.1984 -0.0161
  461loPI   C2B 7374  14.320   7.950  10.302 -0.1668  0.1123 -0.0715
  461loPI   C3B 7375  14.312   7.977   9.872  0.1109  0.0070 -0.2675
  461loPI   C4B 7376  14.256   8.001   9.460  0.2289  0.0530 -0.1402
  462loPI    C1 7377  12.018  10.128  11.403 -0.0639 -0.1187 -0.0160
  462loPI    C2 7378  11.664  10.154  11.589 -0.0494 -0.0104 -0.0032
  462loPI    C3 7379  11.990  10.047  11.794 -0.0809 -0.1439 -0.0223
  462loPI   PO4 7380  11.961  10.039  11.199 -0.0377 -0.2091  0.2513
  462loPI   GL1 7381  12.135   9.735  10.919  0.0583  0.0768 -0.0202
  462loPI   GL2 7382  11.802   9.893  10.776  0.0663 -0.0221  0.0258
  462loPI   C1A 7383  12.323   9.461  10.554  0.2535  0.0123  0.0071
  462loPI   C2A 7384  12.249   9.440  10.081 -0.2077  0.0321  0.1309
  462loPI   C3A 7385  12.302   9.434   9.636 -0.1735  0.0974 -0.0549
  462loPI   C4A 7386  12.111   9.430   9.220 -0.1919  0.3393 -0.1607
  462loPI   C5A 7387  12.153   9.348   8.809  0.1390 -0.0964 -0.0804
  462loPI   C6A 7388  11.886   9.245   8.485  0.0203  0.1307 -0.0112
  462loPI   C1B 7389  11.946   9.763  10.408  0.2336 -0.0652  0.2676
  462loPI   C2B 7390  11.797   9.748  10.016 -0.3016  0.0494 -0.1979
  462loPI   C3B 7391  11.753   9.731   9.563 -0.0781 -0.0568 -0.0031
  462loPI   C4B 7392  11.708   9.825   9.152  0.2532  0.0738  0.1179
  463loPI    C1 7393  17.070   9.608  11.462  0.2073  0.0554 -0.1341
  463loPI    C2 7394  16.948   9.824  11.776  0.2703 -0.0632 -0.0271
  463loPI    C3 7395  17.183   9.990  11.497  0.0408  0.1044 -0.1236
  463loPI   PO4 7396  16.867   9.490  11.398  0.0717 -0.2702  0.0668
  463loPI   GL1 7397  16.671   9.394  10.979  0.0357 -0.2157 -0.0875
  463loPI   GL2 7398  16.582   9.119  11.013 -0.0811 -0.1617  0.1341
  463loPI   C1A 7399  16.760   9.394  10.521  0.3526 -0.0267 -0.0631
  463loPI   C2A 7400  16.735   9.424  10.133  0.0858 -0.5081  0.0313
  463loPI   C3A 7401  16.883   9.377   9.829 -0.1645  0.1466  0.0533
  463loPI   C4A 7402  16.782   9.461   9.425 -0.1740 -0.0271 -0.0873
  463loPI   C5A 7403  16.820   9.504   9.010  0.1778 -0.0193 -0.0457
  463loPI   C6A 7404  17.021   9.500   8.624 -0.1877 -0.3099 -0.0399
  463loPI   C1B 7405  16.622   8.903  10.646  0.0039 -0.3160  0.1947
  463loPI   C2B 7406  16.713   8.946  10.283 -0.2275 -0.2259 -0.0752
  463loPI   C3B 7407  16.666   8.919   9.920  0.0210 -0.0677 -0.1448
  463loPI   C4B 7408  16.700   8.903   9.519  0.0469  0.1391  0.1836
  464loPI    C1 7409   7.403  16.565  10.933 -0.0780 -0.1047 -0.0425
  464loPI    C2 7410   7.149  16.355  11.160 -0.1408  0.0166  0.0007
  464loPI    C3 7411   7.382  16.634  11.327 -0.1744  0.0941 -0.0814
  464loPI   PO4 7412   7.286  16.550  10.647  0.1039 -0.1491  0.0837
  464loPI   GL1 7413   7.080  16.449  10.339  0.0310  0.0451  0.1480
  464loPI   GL2 7414   6.859  16.338  10.341  0.1799 -0.0461 -0.0661
  464loPI   C1A 7415   6.955  16.491   9.811  0.2220  0.2728 -0.2090
  464loPI   C2A 7416   6.911  16.471   9.378 -0.1637  0.1006  0.1118
  464loPI   C3A 7417   6.906  16.528   8.943  0.5790 -0.0470 -0.2013
  464loPI   C4A 7418   6.874  16.489   8.535  0.1891 -0.1189 -0.0124
  464loPI   C5A 7419   7.067  16.676   8.280 -0.1109  0.0641 -0.2813
  464loPI   C6A 7420   7.341  16.960   8.214  0.1965 -0.3049 -0.5005
  464loPI   C1B 7421   6.771  16.040   9.956  0.0219 -0.0883  0.2656
  464loPI   C2B 7422   6.836  15.953   9.521 -0.1514  0.1091  0.1486
  464loPI   C3B 7423   6.890  16.008   9.103  0.1240 -0.0604  0.2111
  464loPI   C4B 7424   6.943  16.029   8.752  0.0971 -0.5547  0.2898
  465loPI    C1 7425  10.040   0.162  10.522 -0.0018 -0.0762  0.2472
  465loPI    C2 7426  10.186  -0.155  10.325  0.1344  0.0238  0.1855
  465loPI    C3 7427  10.200  -0.144  10.725  0.1014 -0.0613  0.1892
  465loPI   PO4 7428  10.161   0.396  10.366 -0.0296 -0.2435  0.0414
  465loPI   GL1 7429  10.085   0.390   9.997  0.0647  0.1703 -0.2320
  465loPI   GL2 7430   9.985   0.138   9.959 -0.0503 -0.0464  0.2678
  465loPI   C1A 7431  10.046   0.543   9.590 -0.1245 -0.0233 -0.2921
  465loPI   C2A 7432   9.988   0.587   9.082 -0.1056  0.1235  0.0126
  465loPI   C3A 7433  10.193   0.676   8.764  0.0182 -0.2515  0.3519
  465loPI   C4A 7434  10.351   0.623   8.344 -0.2373 -0.0470 -0.1408
  465loPI   C5A 7435  10.211   0.392   8.031 -0.3399  0.2526  0.3008
  465loPI   C6A 7436   9.871   0.081   7.783  0.0216 -0.1646  0.0582
  465loPI   C1B 7437  10.027   0.078   9.558 -0.0847 -0.1068 -0.0645
  465loPI   C2B 7438   9.967   0.082   9.184 -0.1722  0.1551 -0.0913
  465loPI   C3B 7439  10.011   0.181   8.752 -0.0943 -0.1186  0.1690
  465loPI   C4B 7440   9.866   0.140   8.283  0.1105 -0.2435 -0.0317
  466loPI    C1 7441  17.249  17.072  11.301  0.2428  0.2081  0.0883
  466loPI    C2 7442  16.876  17.207  11.350  0.1159 -0.0553 -0.1221
  466loPI    C3 7443  17.185  17.414  11.497 -0.1318  0.0109  0.3232
  466loPI   PO4 7444  17.207  16.961  11.031 -0.1429 -0.1522  0.0781
  466loPI   GL1 7445  17.214  17.011  10.640 -0.1869  0.0959  0.2212
  466loPI   GL2 7446  17.120  16.668  10.634  0.0368 -0.1083 -0.1647
  466loPI   C1A 7447  17.386  16.982  10.212  0.0218  0.0690 -0.4281
  466loPI   C2A 7448  17.434  16.929   9.862  0.2324  0.2446  0.0224
  466loPI   C3A 7449  17.382  16.994   9.360  0.0270  0.1706  0.0176
  466loPI   C4A 7450  17.452  17.095   8.976 -0.0697 -0.1088 -0.1530
  466loPI   C5A 7451  17.333  17.023   8.597 -0.0279 -0.1271  0.1038
  466loPI   C6A 7452  17.316  17.137   8.147  0.1980  0.0847 -0.1808
  466loPI   C1B 7453  17.394  16.492  10.266  0.0386  0.0379  0.1848
  466loPI   C2B 7454  17.222  16.423   9.853 -0.0138 -0.3800 -0.1801
  466loPI   C3B 7455  17.214  16.430   9.502 -0.0686  0.0414 -0.1285
  466loPI   C4B 7456  17.375  16.563   9.119 -0.3448 -0.0765 -0.1342
  467loPI    C1 7457   4.437  10.038  11.502  0.2230  0.2844  0.0431
  467loPI    C2 7458   4.192  10.145  11.800  0.1076  0.1154  0.0101
  467loPI    C3 7459   4.538   9.962  11.881  0.1068  0.1287  0.0437
  467loPI   PO4 7460   4.305  10.145  11.241  0.3621 -0.1693  0.1225
  467loPI   GL1 7461   4.348  10.115  10.809 -0.0012  0.0548 -0.0524
  467loPI   GL2 7462   4.382   9.873  10.610  0.0948 -0.0432 -0.0532
  467loPI   C1A 7463   4.053  10.314  10.658  0.1672  0.3899  0.2273
  467loPI   C2A 7464   3.891  10.368  10.252 -0.0491  0.2553 -0.3121
  467loPI   C3A 7465   3.765  10.370   9.833 -0.0879  0.1954 -0.0640
  467loPI   C4A 7466   3.755  10.377   9.423 -0.2086 -0.1571 -0.2100
  467loPI   C5A 7467   3.713  10.506   8.991  0.0029  0.2839  0.1587
  467loPI   C6A 7468   3.712  10.751   8.554  0.1761 -0.4379  0.4410
  467loPI   C1B 7469   4.303  10.064  10.286 -0.2416 -0.0814  0.1230
  467loPI   C2B 7470   4.201  10.076   9.876 -0.1876  0.0203  0.0777
  467loPI   C3B 7471   4.177  10.095   9.451  0.2226  0.0661  0.3522
  467loPI   C4B 7472   4.040  10.073   9.027  0.2740 -0.0202 -0.1268
  468loPI    C1 7473   3.783   8.134  11.690 -0.3853  0.3061 -0.1415
  468loPI    C2 7474   3.836   8.328  12.037  0.0973 -0.0779  0.0097
  468loPI    C3 7475   3.781   7.931  12.035 -0.1071 -0.0524 -0.3448
  468loPI   PO4 7476   3.984   8.170  11.502  0.0817  0.1064  0.0614
  468loPI   GL1 7477   3.898   8.263  11.150  0.0524  0.1976  0.0406
  468loPI   GL2 7478   3.637   8.377  11.003  0.1561 -0.0379  0.1036
  468loPI   C1A 7479   4.085   8.442  10.782 -0.1763 -0.2177 -0.0662
  468loPI   C2A 7480   4.033   8.415  10.309 -0.0548 -0.3280  0.3971
  468loPI   C3A 7481   3.972   8.481   9.885 -0.0990 -0.1779 -0.1381
  468loPI   C4A 7482   4.037   8.512   9.409  0.2275  0.3146  0.0633
  468loPI   C5A 7483   3.997   8.662   9.040 -0.3755 -0.0581  0.1501
  468loPI   C6A 7484   4.052   8.876   8.668 -0.1424 -0.0335 -0.1102
  468loPI   C1B 7485   3.586   8.315  10.531 -0.0329 -0.0074 -0.0162
  468loPI   C2B 7486   3.567   8.257  10.111  0.3615 -0.0602  0.0297
  468loPI   C3B 7487   3.546   8.360   9.672 -0.4520  0.0729 -0.2090
  468loPI   C4B 7488   3.589   8.448   9.282 -0.3983  0.0053  0.2088
  469loPI    C1 7489   5.630  10.354  11.091  0.1194  0.1233 -0.2651
  469loPI    C2 7490   5.959  10.455  11.294 -0.0346  0.0341  0.0337
  469loPI    C3 7491   5.609  10.629  11.380 -0.1502 -0.1881  0.0195
  469loPI   PO4 7492   5.663  10.471  10.845  0.0598 -0.0913  0.0222
  469loPI   GL1 7493   5.722  10.516  10.490 -0.1517  0.2097  0.1463
  469loPI   GL2 7494   5.993  10.403  10.337  0.0352  0.1832 -0.0631
  469loPI   C1A 7495   5.642  10.514  10.056  0.2109  0.2229  0.2411
  469loPI   C2A 7496   5.600  10.613   9.665  0.0046 -0.1290 -0.3269
  469loPI   C3A 7497   5.580  10.587   9.188 -0.0431 -0.1202 -0.0987
  469loPI   C4A 7498   5.543  10.528   8.772 -0.1663  0.1528  0.2152
  469loPI   C5A 7499   5.240  10.280   8.505 -0.1419  0.2529  0.2572
  469loPI   C6A 7500   5.252  10.121   8.041  0.1008 -0.2333  0.0578
  469loPI   C1B 7501   6.107  10.218   9.929 -0.0090  0.0076 -0.1542
  469loPI   C2B 7502   6.057  10.314   9.441  0.1508 -0.0556 -0.1918
  469loPI   C3B 7503   5.945  10.228   8.979 -0.1472  0.1623  0.1068
  469loPI   C4B 7504   6.033  10.178   8.555  0.0396  0.0314 -0.3459
  470loPI    C1 7505  10.024   8.237  11.546  0.1051  0.1153 -0.1676
  470loPI    C2 7506   9.652   8.237  11.693  0.1422  0.2991 -0.0710
  470loPI    C3 7507   9.958   8.122  11.923  0.0706 -0.5308 -0.3594
  470loPI   PO4 7508  10.017   8.148  11.325  0.2681 -0.0967  0.0491
  470loPI   GL1 7509   9.773   8.261  10.895  0.0006 -0.1195  0.0957
  470loPI   GL2 7510   9.929   8.515  10.691  0.2001 -0.0059 -0.0985
  470loPI   C1A 7511   9.552   8.228  10.556  0.1616  0.0835 -0.1708
  470loPI   C2A 7512   9.421   8.252   9.992 -0.1486  0.0826 -0.0603
  470loPI   C3A 7513   9.404   8.325   9.605 -0.0913  0.0721 -0.3708
  470loPI   C4A 7514   9.351   8.255   9.189  0.1040 -0.0722  0.1509
  470loPI   C5A 7515   9.418   8.347   8.717 -0.1178 -0.2751 -0.1985
  470loPI   C6A 7516   9.575   8.425   8.361 -0.1120  0.4144 -0.0420
  470loPI   C1B 7517   9.847   8.484  10.202 -0.1630 -0.1620 -0.0858
  470loPI   C2B 7518   9.882   8.545   9.740 -0.0771  0.0359  0.1008
  470loPI   C3B 7519   9.832   8.553   9.266  0.0092  0.1269  0.1566
  470loPI   C4B 7520   9.920   8.547   8.888  0.1339  0.2403  0.2941
  471loPI    C1 7521   1.388   6.148  11.504  0.2983 -0.2380  0.0047
  471loPI    C2 7522   1.286   6.119  11.890 -0.0879  0.3429 -0.0407
  471loPI    C3 7523   1.636   6.283  11.788  0.0377  0.1416  0.0590
  471loPI   PO4 7524   1.191   6.273  11.376  0.1420  0.2359 -0.1830
  471loPI   GL1 7525   1.204   6.593  11.082  0.0414 -0.0260 -0.1332
  471loPI   GL2 7526   1.523   6.364  10.999 -0.0635  0.0962  0.0809
  471loPI   C1A 7527   0.960   6.706  10.758  0.1522  0.1777  0.1506
  471loPI   C2A 7528   0.942   6.774  10.416 -0.1270  0.0164 -0.0193
  471loPI   C3A 7529   0.976   6.797  10.009  0.1054  0.1025 -0.0471
  471loPI   C4A 7530   0.981   6.865   9.530  0.2815 -0.3242  0.2073
  471loPI   C5A 7531   0.941   6.618   9.222 -0.0319  0.1038 -0.0470
  471loPI   C6A 7532   0.708   6.685   8.797 -0.0416 -0.0242  0.1184
  471loPI   C1B 7533   1.404   6.387  10.645 -0.2449 -0.2469  0.0195
  471loPI   C2B 7534   1.389   6.433  10.273 -0.2609 -0.1255 -0.0997
  471loPI   C3B 7535   1.394   6.446   9.777  0.1377  0.2156  0.0800
  471loPI   C4B 7536   1.393   6.385   9.329  0.4372  0.1896 -0.0792
  472loPI    C1 7537   7.153  16.980  11.047  0.0418 -0.1707  0.1090
  472loPI    C2 7538   7.483  17.156  11.189 -0.1418  0.2952 -0.0239
  472loPI    C3 7539   7.157  17.127  11.419 -0.0128 -0.1704  0.1096
  472loPI   PO4 7540   7.145  17.037  10.747 -0.1533 -0.0175  0.0954
  472loPI   GL1 7541   7.032  16.965  10.287 -0.1667  0.0842 -0.1502
  472loPI   GL2 7542   7.341  17.115  10.330 -0.0485  0.0906 -0.2383
  472loPI   C1A 7543   7.133  17.255   9.892  0.0472 -0.1877  0.1652
  472loPI   C2A 7544   7.098  17.415   9.415 -0.1873  0.2039 -0.0050
  472loPI   C3A 7545   7.166  17.517   8.999 -0.2910 -0.1432  0.3371
  472loPI   C4A 7546   7.108  17.626   8.610 -0.0219  0.0842 -0.3335
  472loPI   C5A 7547   7.312  17.507   8.263  0.0450  0.2506 -0.0186
  472loPI   C6A 7548   6.988  17.366   7.960  0.1232  0.0658  0.5435
  472loPI   C1B 7549   7.382  16.788  10.058  0.1885  0.1051 -0.0909
  472loPI   C2B 7550   7.279  16.793   9.634  0.0432  0.2248  0.0988
  472loPI   C3B 7551   7.189  16.882   9.232  0.0462 -0.3704 -0.1036
  472loPI   C4B 7552   6.956  17.083   9.009 -0.0784 -0.4631  0.3265
  473loPI    C1 7553   4.098   3.093  11.690  0.0423  0.0133 -0.1215
  473loPI    C2 7554   4.480   2.988  11.751 -0.0299 -0.0707  0.2057
  473loPI    C3 7555   4.355   3.356  11.848 -0.0380 -0.0502  0.1189
  473loPI   PO4 7556   4.004   3.042  11.401 -0.3905 -0.0991 -0.1375
  473loPI   GL1 7557   3.826   3.117  11.011  0.0177  0.0151  0.1102
  473loPI   GL2 7558   4.054   2.856  10.906 -0.0938 -0.1465 -0.1423
  473loPI   C1A 7559   3.606   2.874  10.667 -0.1372  0.1164 -0.1007
  473loPI   C2A 7560   3.591   2.868  10.196  0.0169  0.0478  0.1792
  473loPI   C3A 7561   3.581   2.902   9.803 -0.1242 -0.3199  0.1160
  473loPI   C4A 7562   3.525   2.886   9.387 -0.1141 -0.3180  0.2617
  473loPI   C5A 7563   3.635   2.960   8.907 -0.1114 -0.1306 -0.0475
  473loPI   C6A 7564   4.022   3.060   8.664  0.1141 -0.0723  0.2520
  473loPI   C1B 7565   4.051   3.079  10.542  0.2126 -0.0775 -0.4624
  473loPI   C2B 7566   4.039   3.118  10.052  0.1576  0.0588 -0.1546
  473loPI   C3B 7567   3.974   3.106   9.592  0.0078 -0.0211  0.0005
  473loPI   C4B 7568   4.009   3.114   9.175 -0.0113 -0.1625  0.1783
  474loPI    C1 7569   3.081   3.266  11.625  0.0824  0.0369 -0.1392
  474loPI    C2 7570   2.768   3.108  11.817  0.1390  0.0910 -0.0009
  474loPI    C3 7571   3.023   3.346  12.013  0.2418  0.0831 -0.1240
  474loPI   PO4 7572   2.969   3.310  11.348 -0.0414 -0.0107 -0.1080
  474loPI   GL1 7573   2.684   3.190  11.096  0.0122 -0.3904  0.4841
  474loPI   GL2 7574   2.684   2.860  10.868 -0.0508 -0.0097  0.1353
  474loPI   C1A 7575   2.711   3.405  10.667 -0.0271  0.1981 -0.2838
  474loPI   C2A 7576   2.815   3.464  10.251  0.0960 -0.1333 -0.1215
  474loPI   C3A 7577   2.729   3.560   9.808  0.1238 -0.2262  0.0312
  474loPI   C4A 7578   2.657   3.577   9.442  0.0091  0.0973 -0.0155
  474loPI   C5A 7579   2.684   3.603   8.906  0.0378  0.0330 -0.0097
  474loPI   C6A 7580   2.460   3.750   8.608  0.4227  0.1136 -0.2719
  474loPI   C1B 7581   2.678   2.970  10.346 -0.2880  0.1027  0.2529
  474loPI   C2B 7582   2.635   3.052   9.965  0.0700 -0.3755 -0.2126
  474loPI   C3B 7583   2.643   2.991   9.565  0.1643  0.1142  0.1658
  474loPI   C4B 7584   2.607   3.164   9.092 -0.1643  0.0096 -0.1964
  475loPI    C1 7585  12.428   4.764  11.216  0.3928  0.0654  0.1033
  475loPI    C2 7586  12.578   4.431  11.053  0.1799  0.1225 -0.2197
  475loPI    C3 7587  12.700   4.789  10.924  0.1610  0.1699 -0.1073
  475loPI   PO4 7588  12.194   4.705  11.185 -0.0452 -0.3385 -0.0767
  475loPI   GL1 7589  11.988   4.636  10.828 -0.0160  0.0265 -0.1479
  475loPI   GL2 7590  12.273   4.738  10.694  0.1780  0.1590  0.0834
  475loPI   C1A 7591  11.852   4.987  10.597 -0.2722 -0.0804  0.1475
  475loPI   C2A 7592  11.802   5.198  10.210  0.1405 -0.3965  0.0288
  475loPI   C3A 7593  11.834   5.264   9.748 -0.1037  0.1622  0.2920
  475loPI   C4A 7594  11.752   5.300   9.277  0.0650 -0.1117 -0.0541
  475loPI   C5A 7595  11.662   5.335   8.838  0.1613 -0.0748 -0.0488
  475loPI   C6A 7596  11.988   5.314   8.543  0.1547 -0.1225 -0.3890
  475loPI   C1B 7597  12.281   4.936  10.215  0.1524  0.1504 -0.0474
  475loPI   C2B 7598  12.205   4.905   9.801  0.2131  0.0889 -0.2462
  475loPI   C3B 7599  12.212   4.976   9.428  0.1942 -0.1655  0.1035
  475loPI   C4B 7600  12.100   5.052   8.972  0.0161  0.0517 -0.0170
  476loPI    C1 7601  12.591  16.708  10.772  0.1635  0.0699 -0.0878
  476loPI    C2 7602  12.818  17.031  10.835  0.1966  0.0421 -0.0646
  476loPI    C3 7603  12.782  16.753  11.120 -0.1203  0.1992  0.0542
  476loPI   PO4 7604  12.660  16.649  10.541  0.1705 -0.2266 -0.0832
  476loPI   GL1 7605  12.365  16.692  10.229  0.1053  0.4383  0.4849
  476loPI   GL2 7606  12.412  16.981  10.228 -0.1235  0.0419  0.3400
  476loPI   C1A 7607  12.582  16.483   9.747 -0.0298  0.1175  0.1152
  476loPI   C2A 7608  12.518  16.461   9.260  0.1273 -0.3227  0.2825
  476loPI   C3A 7609  12.654  16.679   8.917 -0.0463 -0.1891 -0.3637
  476loPI   C4A 7610  12.570  16.589   8.438 -0.2690  0.1188  0.1606
  476loPI   C5A 7611  12.284  16.711   8.182  0.1006  0.3973  0.0323
  476loPI   C6A 7612  12.171  17.069   7.879  0.1343  0.0128 -0.0856
  476loPI   C1B 7613  12.234  16.816   9.753 -0.0118  0.1319  0.0134
  476loPI   C2B 7614  12.311  16.886   9.430 -0.3424  0.0105  0.3410
  476loPI   C3B 7615  12.281  17.069   9.016  0.0259 -0.0746  0.0098
  476loPI   C4B 7616  12.516  17.057   8.598  0.1171 -0.1811 -0.1223
  477loPI    C1 7617   1.569   5.748  11.734 -0.1587  0.0072  0.1945
  477loPI    C2 7618   1.716   5.469  11.980 -0.0514  0.0193  0.1449
  477loPI    C3 7619   1.727   5.854  12.086  0.3844  0.0688 -0.0573
  477loPI   PO4 7620   1.645   5.691  11.519  0.2117  0.0127 -0.3814
  477loPI   GL1 7621   1.555   5.851  11.101  0.4906  0.1846  0.0469
  477loPI   GL2 7622   1.230   5.899  11.039 -0.0113  0.1088  0.1098
  477loPI   C1A 7623   1.829   6.031  10.805 -0.0171  0.1797 -0.0478
  477loPI   C2A 7624   1.810   6.134  10.339  0.2219 -0.2490 -0.2399
  477loPI   C3A 7625   1.764   6.099   9.946  0.4090 -0.0750 -0.0051
  477loPI   C4A 7626   1.780   6.188   9.564  0.1901  0.2113  0.1554
  477loPI   C5A 7627   1.759   6.098   9.121  0.1899  0.1959  0.1404
  477loPI   C6A 7628   1.939   6.277   8.796  0.1167 -0.1165 -0.1953
  477loPI   C1B 7629   1.408   5.918  10.547  0.1202  0.4060 -0.2556
  477loPI   C2B 7630   1.374   5.889  10.102 -0.1209 -0.2837  0.2507
  477loPI   C3B 7631   1.347   5.933   9.612 -0.0778  0.0260  0.1143
  477loPI   C4B 7632   1.257   5.861   9.200 -0.6478 -0.0559  0.0256
  478loPI    C1 7633  10.011  15.093  10.464 -0.0740  0.2161 -0.0543
  478loPI    C2 7634   9.883  15.452  10.342  0.2080  0.3731  0.0993
  478loPI    C3 7635   9.914  15.373  10.733 -0.2808  0.0220  0.0765
  478loPI   PO4 7636  10.264  15.013  10.333  0.1736  0.1210  0.1738
  478loPI   GL1 7637  10.406  14.835  10.023 -0.1292  0.1745  0.0326
  478loPI   GL2 7638  10.548  15.084   9.862  0.0945  0.0300  0.3105
  478loPI   C1A 7639  10.258  14.888   9.513 -0.1068  0.0426  0.0758
  478loPI   C2A 7640  10.348  14.847   9.166  0.0709 -0.0276  0.1018
  478loPI   C3A 7641  10.242  14.938   8.743  0.1148  0.0687  0.0169
  478loPI   C4A 7642   9.952  14.807   8.375  0.1188 -0.1865 -0.0499
  478loPI   C5A 7643  10.152  14.555   7.961  0.1385  0.0122 -0.0250
  478loPI   C6A 7644  10.003  14.521   7.607  0.3699 -0.2067 -0.0956
  478loPI   C1B 7645  10.620  15.331   9.507 -0.1365 -0.1798  0.2885
  478loPI   C2B 7646  10.696  15.258   9.108  0.1176 -0.1813  0.0291
  478loPI   C3B 7647  10.717  15.123   8.665 -0.1662  0.1051 -0.0814
  478loPI   C4B 7648  10.947  15.113   8.402  0.4526 -0.2332  0.2333
  479loPI    C1 7649   7.384  12.870  10.764  0.1264 -0.1777  0.1216
  479loPI    C2 7650   7.497  13.028  11.113 -0.0147  0.0513  0.0655
  479loPI    C3 7651   7.144  12.842  11.082 -0.0112  0.0489  0.0398
  479loPI   PO4 7652   7.556  12.847  10.625  0.4308 -0.0178  0.2346
  479loPI   GL1 7653   7.773  12.716  10.341  0.3038 -0.0145  0.2346
  479loPI   GL2 7654   8.044  12.796  10.438 -0.1697 -0.2555 -0.0643
  479loPI   C1A 7655   7.673  12.535  10.019 -0.2714 -0.1303  0.1035
  479loPI   C2A 7656   7.694  12.376   9.677 -0.0553 -0.1928 -0.0896
  479loPI   C3A 7657   7.730  12.387   9.189  0.2055  0.1731 -0.0401
  479loPI   C4A 7658   7.635  12.301   8.703  0.1000 -0.1065  0.2285
  479loPI   C5A 7659   7.743  12.208   8.298  0.2448  0.0226 -0.0649
  479loPI   C6A 7660   7.564  12.378   7.920 -0.1532  0.0445 -0.0965
  479loPI   C1B 7661   8.171  12.742   9.888  0.0643  0.2013  0.0902
  479loPI   C2B 7662   8.164  12.591   9.472 -0.1752 -0.3666 -0.1075
  479loPI   C3B 7663   8.207  12.488   8.969  0.1016 -0.0044  0.1046
  479loPI   C4B 7664   8.140  12.488   8.543 -0.1519 -0.0509  0.1643
  480loPI    C1 7665   8.111  17.029  10.672 -0.0602  0.0041  0.0645
  480loPI    C2 7666   8.375  16.845  10.909 -0.0057  0.0432  0.0343
  480loPI    C3 7667   8.135  17.127  11.060  0.0442  0.0839  0.0384
  480loPI   PO4 7668   8.251  16.973  10.454 -0.0381 -0.0717  0.1975
  480loPI   GL1 7669   8.265  16.988  10.026  0.0991  0.0588 -0.2112
  480loPI   GL2 7670   8.126  17.178   9.900  0.0077  0.0198  0.3417
  480loPI   C1A 7671   8.333  16.858   9.577  0.1521 -0.0762 -0.0369
  480loPI   C2A 7672   8.369  16.630   9.247 -0.0779  0.3812  0.1135
  480loPI   C3A 7673   8.331  16.666   8.783  0.0544 -0.0468 -0.1029
  480loPI   C4A 7674   8.329  16.644   8.379 -0.1600 -0.1033 -0.1207
  480loPI   C5A 7675   8.535  16.937   8.066  0.3983  0.0245 -0.0316
  480loPI   C6A 7676   8.704  16.947   7.589 -0.0305 -0.0005  0.1461
  480loPI   C1B 7677   8.158  17.295   9.512  0.2065 -0.0661  0.0843
  480loPI   C2B 7678   8.178  17.056   9.075 -0.1433 -0.3691 -0.0824
  480loPI   C3B 7679   8.000  16.988   8.629  0.0007 -0.0857  0.1333
  480loPI   C4B 7680   7.827  17.113   8.169 -0.1021 -0.1319  0.0594
  481loPI    C1 7681  10.880   7.498  11.172 -0.1980  0.1749  0.0138
  481loPI    C2 7682  10.688   7.586  11.511  0.1105  0.0450  0.2267
  481loPI    C3 7683  11.088   7.588  11.501  0.1107 -0.3296 -0.0326
  481loPI   PO4 7684  10.776   7.388  11.059 -0.0949 -0.2306  0.2176
  481loPI   GL1 7685  10.499   7.310  10.788  0.0142 -0.1675  0.0904
  481loPI   GL2 7686  10.454   7.089  10.561 -0.1294  0.0535  0.0931
  481loPI   C1A 7687  10.308   7.603  10.456  0.0137 -0.5215 -0.0185
  481loPI   C2A 7688  10.201   7.614  10.039 -0.3625 -0.2057  0.1848
  481loPI   C3A 7689  10.186   7.619   9.656 -0.1038 -0.0903 -0.3755
  481loPI   C4A 7690  10.136   7.658   9.237 -0.0961 -0.1382 -0.1591
  481loPI   C5A 7691  10.102   7.633   8.717 -0.1197  0.1787  0.0711
  481loPI   C6A 7692   9.748   7.352   8.505  0.1359  0.2586  0.0276
  481loPI   C1B 7693  10.266   7.122  10.145 -0.2144 -0.2387 -0.2304
  481loPI   C2B 7694  10.166   7.110   9.665 -0.0001  0.0434 -0.0001
  481loPI   C3B 7695  10.183   7.123   9.224 -0.0700  0.2851 -0.1837
  481loPI   C4B 7696   9.990   7.164   8.880 -0.0426 -0.1766  0.1669
  482loPI    C1 7697  13.851   7.565  11.755  0.0151 -0.0231  0.0649
  482loPI    C2 7698  13.595   7.792  11.961 -0.0706 -0.1011  0.0450
  482loPI    C3 7699  13.569   7.393  11.980  0.1151 -0.1106  0.1247
  482loPI   PO4 7700  13.846   7.734  11.483 -0.2595 -0.0834  0.0711
  482loPI   GL1 7701  13.968   7.645  11.098 -0.0026 -0.0385 -0.0490
  482loPI   GL2 7702  14.221   7.490  10.981 -0.2344  0.1876 -0.1987
  482loPI   C1A 7703  13.797   7.745  10.686  0.2544 -0.0115  0.3041
  482loPI   C2A 7704  13.816   7.696  10.271 -0.0785  0.0120  0.0127
  482loPI   C3A 7705  13.834   7.759   9.841 -0.0446  0.2134 -0.0738
  482loPI   C4A 7706  13.730   7.691   9.324 -0.0319 -0.1817 -0.0645
  482loPI   C5A 7707  13.865   7.888   8.878  0.4147  0.2488 -0.0978
  482loPI   C6A 7708  13.889   7.599   8.538 -0.1408 -0.2495 -0.1067
  482loPI   C1B 7709  14.188   7.445  10.545 -0.1602  0.0724 -0.1317
  482loPI   C2B 7710  14.251   7.507   9.977 -0.2823  0.1704 -0.2934
  482loPI   C3B 7711  14.255   7.521   9.505 -0.1716 -0.0044  0.1248
  482loPI   C4B 7712  14.172   7.490   8.997 -0.0613 -0.2699 -0.1332
  483loPI    C1 7713   8.025   2.356  10.958  0.0153  0.0029  0.1068
  483loPI    C2 7714   8.391   2.515  10.985 -0.0082  0.0850 -0.0459
  483loPI    C3 7715   8.327   2.138  11.105  0.0882  0.1272  0.1425
  483loPI   PO4 7716   7.915   2.410  10.670 -0.0240  0.1404 -0.1530
  483loPI   GL1 7717   7.794   2.547  10.201 -0.1641 -0.0701 -0.1900
  483loPI   GL2 7718   8.137   2.526  10.264  0.0785 -0.0863 -0.0109
  483loPI   C1A 7719   7.618   2.583   9.728  0.2358 -0.3821  0.0097
  483loPI   C2A 7720   7.680   2.644   9.342  0.0766  0.0715 -0.2316
  483loPI   C3A 7721   7.581   2.600   9.041  0.1045  0.2892 -0.0426
  483loPI   C4A 7722   7.523   2.243   8.874 -0.0024  0.2525  0.0154
  483loPI   C5A 7723   7.480   2.095   8.444 -0.1345 -0.2778  0.0810
  483loPI   C6A 7724   7.370   2.285   8.102 -0.0016  0.0800  0.0939
  483loPI   C1B 7725   8.142   2.530   9.777  0.5059 -0.0078 -0.0024
  483loPI   C2B 7726   8.146   2.771   9.362  0.0461 -0.0407  0.2976
  483loPI   C3B 7727   8.016   2.912   9.060  0.3030 -0.2708  0.1211
  483loPI   C4B 7728   7.979   2.768   8.645 -0.0768 -0.0587 -0.2277
  484loPI    C1 7729   6.961   7.170  11.337  0.1805 -0.0756  0.1029
  484loPI    C2 7730   7.045   7.492  11.114  0.0652  0.0113  0.1837
  484loPI    C3 7731   7.255   7.418  11.446  0.1471 -0.0438  0.1204
  484loPI   PO4 7732   6.759   7.052  11.217  0.2858  0.0503  0.1708
  484loPI   GL1 7733   6.520   6.963  10.835 -0.0463  0.1815 -0.0531
  484loPI   GL2 7734   6.397   7.176  10.567  0.0657  0.1745 -0.1308
  484loPI   C1A 7735   6.760   6.797  10.499  0.3590 -0.0833 -0.0985
  484loPI   C2A 7736   6.597   6.876  10.173 -0.1706 -0.0532  0.3416
  484loPI   C3A 7737   6.425   7.025   9.844 -0.2179 -0.1207 -0.1223
  484loPI   C4A 7738   6.437   6.928   9.492  0.2983 -0.3846 -0.1016
  484loPI   C5A 7739   6.412   6.838   9.035  0.3451  0.1453  0.2429
  484loPI   C6A 7740   6.401   6.774   8.557 -0.4162 -0.0304  0.2719
  484loPI   C1B 7741   6.238   7.341  10.285 -0.2526 -0.0869  0.0524
  484loPI   C2B 7742   6.048   7.350   9.862  0.1029  0.3473 -0.1599
  484loPI   C3B 7743   6.051   7.286   9.330 -0.0865  0.2765  0.0086
  484loPI   C4B 7744   6.065   7.256   8.879  0.0273  0.3816  0.1508
  485loPI    C1 7745   7.617  11.168  11.048 -0.0573 -0.2333 -0.2745
  485loPI    C2 7746   7.275  10.984  11.146 -0.0129 -0.0594  0.2391
  485loPI    C3 7747   7.619  10.870  11.316  0.1397 -0.0271 -0.0418
  485loPI   PO4 7748   7.657  11.137  10.820 -0.1613 -0.0103  0.1697
  485loPI   GL1 7749   7.420  11.006  10.539  0.1616 -0.0114  0.1685
  485loPI   GL2 7750   7.601  10.659  10.702  0.1761  0.0574 -0.4300
  485loPI   C1A 7751   7.541  10.989  10.059  0.2125  0.3016 -0.1146
  485loPI   C2A 7752   7.452  10.978   9.675  0.1227  0.1197  0.0319
  485loPI   C3A 7753   7.408  10.887   9.291  0.3502  0.0540 -0.2201
  485loPI   C4A 7754   7.379  10.780   8.945  0.1788  0.2603 -0.0842
  485loPI   C5A 7755   7.271  10.708   8.505 -0.2439  0.1038 -0.1513
  485loPI   C6A 7756   7.182  10.690   8.070 -0.2726  0.0634 -0.0793
  485loPI   C1B 7757   7.444  10.537  10.328 -0.3504  0.2464  0.0640
  485loPI   C2B 7758   7.478  10.428   9.996 -0.1938 -0.2192 -0.0743
  485loPI   C3B 7759   7.372  10.315   9.575  0.1236 -0.2956  0.0961
  485loPI   C4B 7760   7.325  10.355   9.230  0.1024  0.0933 -0.0274
  486loPI    C1 7761   4.510   6.093  11.455 -0.0206 -0.1036 -0.1192
  486loPI    C2 7762   4.785   6.064  11.745 -0.1510 -0.0198  0.0146
  486loPI    C3 7763   4.414   6.186  11.833 -0.0765  0.4235 -0.2551
  486loPI   PO4 7764   4.470   5.837  11.334  0.0068 -0.0022 -0.0667
  486loPI   GL1 7765   4.404   5.805  10.939 -0.0579  0.2373  0.2814
  486loPI   GL2 7766   4.455   5.589  10.898 -0.2523  0.0046  0.3475
  486loPI   C1A 7767   4.021   5.923  10.718 -0.1767  0.0224  0.0326
  486loPI   C2A 7768   3.993   5.991  10.277  0.3366  0.0001 -0.0467
  486loPI   C3A 7769   4.042   6.032   9.792  0.1401  0.2301  0.1596
  486loPI   C4A 7770   3.983   6.162   9.260  0.2366 -0.0189  0.2086
  486loPI   C5A 7771   4.071   6.192   8.757  0.0522 -0.0871 -0.3541
  486loPI   C6A 7772   3.940   6.096   8.383 -0.1038 -0.0921 -0.0170
  486loPI   C1B 7773   4.414   5.736  10.483 -0.1098  0.0181 -0.4201
  486loPI   C2B 7774   4.393   5.764   9.987 -0.2197 -0.0208 -0.1887
  486loPI   C3B 7775   4.429   5.774   9.538  0.0166  0.0469 -0.2239
  486loPI   C4B 7776   4.379   5.894   9.035  0.0105  0.6084  0.1951
  487loPI    C1 7777  13.360   6.266  11.310  0.0931  0.0408 -0.0593
  487loPI    C2 7778  13.252   6.243  11.694 -0.1158  0.0915 -0.1136
  487loPI    C3 7779  13.275   5.911  11.472  0.2917  0.0269  0.0167
  487loPI   PO4 7780  13.195   6.472  11.178 -0.2210 -0.1731 -0.4162
  487loPI   GL1 7781  13.189   6.813  10.872  0.2193  0.3052 -0.0720
  487loPI   GL2 7782  13.002   6.518  10.703 -0.1032  0.3699  0.0749
  487loPI   C1A 7783  13.357   6.860  10.588  0.2413 -0.3445 -0.0476
  487loPI   C2A 7784  13.305   6.788  10.176 -0.1765 -0.1784 -0.1451
  487loPI   C3A 7785  13.245   6.955   9.783  0.2270  0.0719  0.0273
  487loPI   C4A 7786  13.171   6.871   9.354 -0.1940  0.2831 -0.3024
  487loPI   C5A 7787  13.191   6.900   8.951 -0.0650 -0.0402 -0.0427
  487loPI   C6A 7788  12.961   6.990   8.611  0.2299 -0.0850 -0.2020
  487loPI   C1B 7789  12.878   6.561  10.332  0.0066 -0.0149  0.0430
  487loPI   C2B 7790  12.912   6.622   9.944  0.1630  0.0403 -0.0106
  487loPI   C3B 7791  12.745   6.740   9.543 -0.2036 -0.1132  0.2196
  487loPI   C4B 7792  12.716   6.894   9.148 -0.1224 -0.0640 -0.0672
  488loPI    C1 7793   5.095   1.242  11.288 -0.2312 -0.1589 -0.1629
  488loPI    C2 7794   4.980   1.039  11.613 -0.4600  0.0135 -0.1333
  488loPI    C3 7795   5.091   1.422  11.646  0.1559 -0.1521 -0.1581
  488loPI   PO4 7796   5.213   1.094  11.173 -0.0827  0.2385  0.0485
  488loPI   GL1 7797   4.983   0.774  10.818 -0.2207 -0.0968 -0.3005
  488loPI   GL2 7798   4.654   0.779  10.662 -0.0109 -0.0948 -0.0412
  488loPI   C1A 7799   5.023   0.967  10.422  0.2287 -0.0436 -0.1651
  488loPI   C2A 7800   5.069   1.052   9.936  0.1903  0.0289 -0.2280
  488loPI   C3A 7801   5.004   1.107   9.572  0.1793 -0.1915 -0.1388
  488loPI   C4A 7802   5.040   1.201   9.141  0.2992 -0.1714  0.0905
  488loPI   C5A 7803   5.129   1.354   8.747  0.2458 -0.1824  0.0607
  488loPI   C6A 7804   5.317   1.186   8.391 -0.1002 -0.1581 -0.0408
  488loPI   C1B 7805   4.501   0.838  10.331  0.0003  0.2695  0.3875
  488loPI   C2B 7806   4.534   0.916   9.922  0.1006  0.2812  0.0252
  488loPI   C3B 7807   4.518   0.973   9.460  0.0500 -0.0202  0.3926
  488loPI   C4B 7808   4.542   1.055   9.042  0.0358  0.0553 -0.6737
  489loPI    C1 7809   2.767   9.981  11.758  0.4358 -0.1766  0.0156
  489loPI    C2 7810   2.488   9.722  11.880  0.1874 -0.0423 -0.2560
  489loPI    C3 7811   2.808   9.794  12.109 -0.0630 -0.1018  0.1203
  489loPI   PO4 7812   2.846   9.926  11.468  0.2129  0.0182 -0.1979
  489loPI   GL1 7813   2.754  10.143  11.128  0.3715  0.1332  0.2917
  489loPI   GL2 7814   2.718  10.332  11.054 -0.0113 -0.1900 -0.2776
  489loPI   C1A 7815   2.958   9.891  10.792 -0.0882 -0.1754  0.0873
  489loPI   C2A 7816   2.873   9.886  10.298 -0.1798 -0.0694  0.0981
  489loPI   C3A 7817   2.793  10.015   9.925  0.0771  0.2087  0.0739
  489loPI   C4A 7818   2.851  10.025   9.438  0.1674 -0.1084 -0.0992
  489loPI   C5A 7819   2.804   9.992   8.990 -0.2756 -0.1074 -0.0234
  489loPI   C6A 7820   2.585  10.086   8.641 -0.2274  0.3352 -0.0017
  489loPI   C1B 7821   2.571  10.262  10.624 -0.0099 -0.0999 -0.4109
  489loPI   C2B 7822   2.508  10.284  10.218 -0.0082  0.3414  0.3781
  489loPI   C3B 7823   2.405  10.326   9.813 -0.2146  0.2845 -0.1415
  489loPI   C4B 7824   2.504  10.366   9.368 -0.0111  0.3235 -0.4240
  490loPI    C1 7825  11.557   7.486  11.307 -0.1489  0.0151  0.0720
  490loPI    C2 7826  11.444   7.245  11.606 -0.0738 -0.0128  0.0780
  490loPI    C3 7827  11.725   7.523  11.668 -0.0952  0.0158  0.0471
  490loPI   PO4 7828  11.690   7.342  11.111 -0.2261 -0.2475  0.2183
  490loPI   GL1 7829  11.611   7.236  10.673 -0.0302 -0.1035 -0.1443
  490loPI   GL2 7830  11.652   7.620  10.697  0.4581  0.5133  0.0258
  490loPI   C1A 7831  11.606   7.069  10.290  0.2659  0.0407  0.0712
  490loPI   C2A 7832  11.539   7.140   9.912 -0.0020  0.1047 -0.0400
  490loPI   C3A 7833  11.498   7.185   9.467 -0.1864  0.0566  0.1270
  490loPI   C4A 7834  11.406   7.214   8.991 -0.0758 -0.0980  0.0274
  490loPI   C5A 7835  11.421   7.260   8.529  0.2227  0.1067 -0.1171
  490loPI   C6A 7836  11.350   7.520   8.129  0.3745 -0.0228 -0.1323
  490loPI   C1B 7837  11.634   7.547  10.250  0.0468 -0.0885 -0.0914
  490loPI   C2B 7838  11.627   7.632   9.857 -0.4183  0.0995  0.1211
  490loPI   C3B 7839  11.515   7.655   9.386  0.0466  0.1965  0.1577
  490loPI   C4B 7840  11.483   7.767   8.986  0.4482  0.1438 -0.2056
  491loPI    C1 7841  17.478   7.679  11.843  0.0100  0.0066 -0.1817
  491loPI    C2 7842  17.418   7.313  11.695 -0.0267  0.0003 -0.1515
  491loPI    C3 7843  17.249   7.418  12.042 -0.1945  0.1182 -0.2677
  491loPI   PO4 7844  17.475   7.811  11.516  0.3085 -0.1331  0.2286
  491loPI   GL1 7845  17.610   7.792  11.086 -0.1149  0.2212  0.2939
  491loPI   GL2 7846  17.732   7.589  10.937 -0.0001  0.2034  0.1679
  491loPI   C1A 7847  17.352   7.720  10.666  0.1773 -0.1118  0.0792
  491loPI   C2A 7848  17.448   7.741  10.235  0.0460 -0.0724  0.0501
  491loPI   C3A 7849  17.411   7.787   9.830  0.0022  0.1608 -0.3516
  491loPI   C4A 7850  17.473   7.766   9.377  0.0141  0.0269  0.1835
  491loPI   C5A 7851  17.369   7.660   8.979  0.2222 -0.4850  0.0806
  491loPI   C6A 7852  17.506   7.280   8.768  0.0104 -0.1832  0.0891
  491loPI   C1B 7853  17.760   7.392  10.614  0.2044  0.1336 -0.0426
  491loPI   C2B 7854  17.759   7.372  10.191  0.1490 -0.0257 -0.1892
  491loPI   C3B 7855  17.819   7.458   9.716 -0.2172 -0.1274  0.1508
  491loPI   C4B 7856  17.742   7.396   9.232  0.0912 -0.0320  0.0110
  492loPI    C1 7857  12.812  14.325  11.425 -0.1372  0.2811  0.1793
  492loPI    C2 7858  12.596  14.033  11.592  0.0825 -0.1063 -0.1926
  492loPI    C3 7859  12.433  14.393  11.532 -0.2040 -0.1556  0.2411
  492loPI   PO4 7860  12.966  14.260  11.135  0.0268  0.2640 -0.0981
  492loPI   GL1 7861  13.016  14.346  10.682  0.1372 -0.3239 -0.2787
  492loPI   GL2 7862  13.145  14.139  10.630  0.0436  0.1544 -0.1486
  492loPI   C1A 7863  12.840  14.206  10.322  0.3540 -0.0397 -0.3762
  492loPI   C2A 7864  12.765  14.162   9.958 -0.1682  0.1674  0.1582
  492loPI   C3A 7865  12.758  14.184   9.517  0.0782 -0.0333  0.1257
  492loPI   C4A 7866  12.682  14.288   9.067 -0.0709  0.0121  0.1841
  492loPI   C5A 7867  12.541  14.324   8.680  0.2050 -0.2699  0.3659
  492loPI   C6A 7868  12.326  14.388   8.368  0.0653 -0.1283 -0.0949
  492loPI   C1B 7869  13.142  13.848  10.262  0.2123 -0.1242 -0.0433
  492loPI   C2B 7870  13.321  13.852   9.814 -0.1403  0.3542 -0.3085
  492loPI   C3B 7871  13.330  13.882   9.376  0.1601  0.1140  0.4205
  492loPI   C4B 7872  13.156  13.959   8.997  0.2700  0.3763  0.0490
  493loPI    C1 7873  12.760   0.217  11.143 -0.2983 -0.1434 -0.2597
  493loPI    C2 7874  12.392   0.192  11.297 -0.1081 -0.2614  0.1930
  493loPI    C3 7875  12.697   0.008  11.478  0.1881 -0.1085 -0.1386
  493loPI   PO4 7876  12.689   0.318  10.845  0.1022 -0.2225 -0.1392
  493loPI   GL1 7877  12.788   0.264  10.385 -0.1637  0.0467  0.0796
  493loPI   GL2 7878  12.655   0.551  10.260 -0.2495 -0.0500  0.0346
  493loPI   C1A 7879  12.663   0.159   9.977 -0.0486  0.0469 -0.0051
  493loPI   C2A 7880  12.774   0.156   9.541  0.1207  0.2192 -0.1375
  493loPI   C3A 7881  12.949   0.170   9.145 -0.1677  0.1676 -0.1887
  493loPI   C4A 7882  12.902   0.077   8.708  0.1300  0.0290 -0.0651
  493loPI   C5A 7883  13.075  -0.215   8.390 -0.1222  0.1719  0.0959
  493loPI   C6A 7884  13.438  -0.534   8.628 -0.0571 -0.0563 -0.0778
  493loPI   C1B 7885  12.778   0.609   9.839 -0.0354 -0.2425  0.0104
  493loPI   C2B 7886  12.951   0.646   9.520  0.4021 -0.1006  0.0648
  493loPI   C3B 7887  12.941   0.699   9.099 -0.1002 -0.2425 -0.0463
  493loPI   C4B 7888  13.080   0.575   8.706  0.1029  0.0243  0.0871
  494loPI    C1 7889   8.837  15.905  10.106 -0.0016  0.0323  0.0186
  494loPI    C2 7890   9.150  15.986   9.870 -0.0175  0.0202 -0.0069
  494loPI    C3 7891   8.910  16.281   9.993 -0.1164  0.0031 -0.1566
  494loPI   PO4 7892   8.751  15.651   9.963  0.2875  0.0177  0.1278
  494loPI   GL1 7893   8.904  15.251   9.738 -0.0472  0.0205 -0.1186
  494loPI   GL2 7894   9.193  15.449   9.835  0.0780 -0.0472 -0.2339
  494loPI   C1A 7895   8.737  15.307   9.273 -0.0858 -0.1712  0.3187
  494loPI   C2A 7896   8.612  15.278   8.833  0.1769 -0.0676 -0.0656
  494loPI   C3A 7897   8.543  15.183   8.366  0.2608 -0.0117 -0.2852
  494loPI   C4A 7898   8.624  15.142   7.996  0.0097 -0.1558 -0.1816
  494loPI   C5A 7899   8.988  14.868   7.858 -0.2762 -0.2240  0.1013
  494loPI   C6A 7900   9.073  14.419   8.131 -0.1510 -0.1195  0.0448
  494loPI   C1B 7901   9.190  15.499   9.385  0.0130  0.1319  0.2184
  494loPI   C2B 7902   9.182  15.320   9.044 -0.0382  0.0115  0.3533
  494loPI   C3B 7903   9.050  15.300   8.639  0.2358 -0.0691 -0.0294
  494loPI   C4B 7904   9.019  15.002   8.396 -0.2120  0.1801 -0.2822
  495loPI    C1 7905   1.211   8.409  11.599  0.0161 -0.0596  0.1252
  495loPI    C2 7906   1.103   8.175  11.906  0.3560 -0.0107  0.2863
  495loPI    C3 7907   1.491   8.230  11.822  0.2741  0.2733  0.0770
  495loPI   PO4 7908   1.107   8.454  11.385 -0.1102 -0.0312  0.1018
  495loPI   GL1 7909   0.947   8.721  11.136  0.1440  0.0499  0.0864
  495loPI   GL2 7910   0.703   8.527  11.104  0.0263 -0.0107 -0.1201
  495loPI   C1A 7911   0.575   8.857  10.769 -0.1483  0.2233 -0.0679
  495loPI   C2A 7912   0.467   8.994  10.308 -0.5126 -0.0884  0.3338
  495loPI   C3A 7913   0.421   8.942   9.858 -0.0863 -0.3633  0.0662
  495loPI   C4A 7914   0.324   8.952   9.460  0.0943 -0.1474 -0.0298
  495loPI   C5A 7915   0.277   9.098   9.025 -0.0131  0.0745 -0.2951
  495loPI   C6A 7916  -0.100   9.012   8.874  0.1680  0.1837  0.0259
  495loPI   C1B 7917   0.635   8.350  10.728  0.0550 -0.0188 -0.3679
  495loPI   C2B 7918   0.819   8.067  10.424  0.3103 -0.1219 -0.2072
  495loPI   C3B 7919   0.767   8.095   9.956  0.2713 -0.0566  0.1403
  495loPI   C4B 7920   0.781   8.248   9.516  0.0676 -0.0621 -0.0162
  496loPI    C1 7921   5.016   2.375  11.563 -0.1758 -0.0525  0.0020
  496loPI    C2 7922   4.633   2.491  11.559 -0.1210  0.1304 -0.4249
  496loPI    C3 7923   4.917   2.744  11.681 -0.1650 -0.1281  0.2534
  496loPI   PO4 7924   5.015   2.358  11.287 -0.4364 -0.2056 -0.0881
  496loPI   GL1 7925   4.973   2.320  10.794  0.1709 -0.0114 -0.1708
  496loPI   GL2 7926   4.679   2.451  10.941 -0.4603 -0.3157  0.2124
  496loPI   C1A 7927   4.878   2.416  10.459  0.2050 -0.2009  0.0537
  496loPI   C2A 7928   4.818   2.430  10.047  0.1645  0.4077  0.0167
  496loPI   C3A 7929   4.805   2.437   9.582  0.0609 -0.0756  0.0717
  496loPI   C4A 7930   4.861   2.547   9.219 -0.0825  0.1622 -0.2205
  496loPI   C5A 7931   4.828   2.708   8.828  0.0719  0.1639 -0.3220
  496loPI   C6A 7932   4.909   2.652   8.461 -0.0991  0.2133  0.2205
  496loPI   C1B 7933   4.474   2.738  10.607  0.0732 -0.1037  0.0353
  496loPI   C2B 7934   4.432   2.795  10.161 -0.1787  0.2534  0.1344
  496loPI   C3B 7935   4.420   2.843   9.708  0.1800  0.3474 -0.1480
  496loPI   C4B 7936   4.435   2.879   9.344 -0.3349  0.1515 -0.1545
  497loPI    C1 7937   9.998   4.202  11.255  0.0857  0.1782 -0.1506
  497loPI    C2 7938  10.337   4.017  11.358 -0.0052 -0.0654 -0.2803
  497loPI    C3 7939  10.275   4.397  11.468  0.1878 -0.1066 -0.0178
  497loPI   PO4 7940   9.975   4.218  10.961 -0.1233  0.0231  0.0396
  497loPI   GL1 7941   9.899   4.554  10.661 -0.1637 -0.0452 -0.1682
  497loPI   GL2 7942   9.545   4.657  10.518 -0.2138  0.0407 -0.3403
  497loPI   C1A 7943   9.902   4.513  10.189 -0.0483  0.1078 -0.2149
  497loPI   C2A 7944   9.887   4.527   9.732  0.2298 -0.1948 -0.0455
  497loPI   C3A 7945   9.858   4.520   9.281  0.0696  0.3180  0.0823
  497loPI   C4A 7946   9.862   4.336   8.768 -0.4012  0.1384  0.0962
  497loPI   C5A 7947  10.125   4.395   8.492 -0.0059 -0.2526 -0.0330
  497loPI   C6A 7948  10.190   4.524   8.129  0.2092 -0.0856 -0.0453
  497loPI   C1B 7949   9.469   4.714  10.143 -0.1347  0.2654 -0.1194
  497loPI   C2B 7950   9.528   4.874   9.739 -0.1965 -0.0286 -0.1121
  497loPI   C3B 7951   9.166   5.196   9.642 -0.0090 -0.4162 -0.0856
  497loPI   C4B 7952   8.951   5.112   9.306  0.0380  0.0240  0.0263
  498loPI    C1 7953  14.826   7.852  11.834 -0.3158  0.3565  0.2128
  498loPI    C2 7954  15.006   8.105  12.086  0.2373  0.1984 -0.0069
  498loPI    C3 7955  14.990   7.714  12.171 -0.1119  0.2240  0.0622
  498loPI   PO4 7956  14.781   7.966  11.560 -0.3314 -0.1526  0.2452
  498loPI   GL1 7957  14.749   8.006  11.125  0.0054  0.4317  0.0246
  498loPI   GL2 7958  14.658   8.221  11.017  0.0443  0.0132  0.1179
  498loPI   C1A 7959  14.633   7.686  10.757  0.0835 -0.0932  0.0529
  498loPI   C2A 7960  14.663   7.608  10.349 -0.0943 -0.0122  0.0670
  498loPI   C3A 7961  14.729   7.722  10.052  0.0901 -0.2773 -0.1627
  498loPI   C4A 7962  14.694   7.686   9.679 -0.2522 -0.1725 -0.2667
  498loPI   C5A 7963  14.649   7.674   9.153 -0.1173  0.2518 -0.2494
  498loPI   C6A 7964  14.648   7.447   8.755  0.0067 -0.0820 -0.1684
  498loPI   C1B 7965  14.689   8.144  10.581 -0.1535 -0.0379  0.0756
  498loPI   C2B 7966  14.773   8.164  10.157  0.3022 -0.0449 -0.0610
  498loPI   C3B 7967  14.737   8.228   9.706  0.2585 -0.1989 -0.0142
  498loPI   C4B 7968  14.784   8.190   9.303  0.4368  0.1090  0.2334
  499loPI    C1 7969   8.305   0.758  10.496  0.0144  0.0536  0.0120
  499loPI    C2 7970   8.128   0.485  10.728  0.0141  0.0281 -0.0182
  499loPI    C3 7971   8.179   0.858  10.862  0.0866 -0.0073  0.0540
  499loPI   PO4 7972   8.245   0.701  10.244  0.0801 -0.0285  0.5017
  499loPI   GL1 7973   8.143   1.011   9.904 -0.3224 -0.1530 -0.0685
  499loPI   GL2 7974   7.873   1.097   9.905  0.2202 -0.0735  0.1485
  499loPI   C1A 7975   8.352   0.819   9.523  0.0271  0.2052  0.0310
  499loPI   C2A 7976   8.271   0.954   9.141  0.1918 -0.1683 -0.0760
  499loPI   C3A 7977   8.350   0.851   8.646 -0.0339  0.0467 -0.1222
  499loPI   C4A 7978   8.571   0.890   8.155 -0.1572 -0.0144 -0.0645
  499loPI   C5A 7979   8.923   1.191   8.034 -0.0128  0.0549 -0.0513
  499loPI   C6A 7980   8.776   1.626   7.926  0.0704 -0.1054  0.1935
  499loPI   C1B 7981   8.001   1.223   9.478 -0.4626  0.0907  0.4070
  499loPI   C2B 7982   7.925   1.251   8.979 -0.1193  0.1999  0.0252
  499loPI   C3B 7983   7.842   1.173   8.577 -0.0244  0.0785  0.3337
  499loPI   C4B 7984   8.147   1.069   8.246  0.1898  0.0777 -0.1993
  500loPI    C1 7985   7.381  13.944  10.762  0.2419 -0.1534  0.1453
  500loPI    C2 7986   7.209  14.083  11.095 -0.3084 -0.1109 -0.1455
  500loPI    C3 7987   7.388  14.336  10.841 -0.1035 -0.1129 -0.0047
  500loPI   PO4 7988   7.202  13.800  10.655  0.1093  0.1415  0.1082
  500loPI   GL1 7989   7.088  13.674  10.234 -0.0584  0.0166  0.0274
  500loPI   GL2 7990   6.727  13.535  10.155  0.2300 -0.0326 -0.0364
  500loPI   C1A 7991   7.060  13.551   9.796 -0.3510 -0.2957  0.2101
  500loPI   C2A 7992   6.904  13.556   9.467 -0.2522 -0.2484 -0.2988
  500loPI   C3A 7993   6.954  13.586   8.956  0.3700  0.1206 -0.1548
  500loPI   C4A 7994   7.128  13.594   8.455 -0.2430  0.0012 -0.1076
  500loPI   C5A 7995   7.315  13.407   8.093 -0.1475  0.0480 -0.0531
  500loPI   C6A 7996   7.732  13.081   8.042  0.2090 -0.1240 -0.0042
  500loPI   C1B 7997   6.601  13.334   9.889  0.1773 -0.1479  0.1429
  500loPI   C2B 7998   6.456  13.320   9.533 -0.1598 -0.1720  0.0347
  500loPI   C3B 7999   6.435  13.446   9.112  0.1006 -0.0441 -0.2164
  500loPI   C4B 8000   6.433  13.507   8.699 -0.0180  0.0319 -0.0479
  501loPI    C1 8001  14.051   2.696  11.088 -0.0400  0.1589  0.1181
  501loPI    C2 8002  13.657   2.663  11.146 -0.0316  0.0779  0.1301
  501loPI    C3 8003  13.879   2.875  11.402 -0.0861  0.2295  0.0530
  501loPI   PO4 8004  14.010   2.644  10.751 -0.0962  0.1160  0.2092
  501loPI   GL1 8005  14.288   2.726  10.503 -0.1114 -0.0151 -0.0121
  501loPI   GL2 8006  14.065   2.964  10.392 -0.3157  0.1227  0.2242
  501loPI   C1A 8007  14.440   2.844  10.022 -0.1816  0.0485 -0.2196
  501loPI   C2A 8008  14.578   2.973   9.664 -0.1843 -0.0133  0.0017
  501loPI   C3A 8009  14.770   3.038   9.288 -0.1346 -0.1870 -0.5129
  501loPI   C4A 8010  14.755   2.900   8.850  0.0364 -0.3469  0.2263
  501loPI   C5A 8011  14.468   2.769   8.479 -0.0661  0.3457  0.3794
  501loPI   C6A 8012  14.286   2.563   8.181  0.0825  0.1105 -0.1600
  501loPI   C1B 8013  13.890   3.139  10.125 -0.2303  0.0114  0.0587
  501loPI   C2B 8014  13.918   3.220   9.670  0.6650  0.0290  0.3596
  501loPI   C3B 8015  13.840   3.171   9.245 -0.0169  0.0202  0.0418
  501loPI   C4B 8016  13.605   3.100   8.880 -0.2345 -0.0962 -0.2568
  502loPI    C1 8017  15.208  15.384  10.836 -0.1029 -0.2832 -0.2353
  502loPI    C2 8018  15.226  15.765  10.955 -0.0475 -0.2434 -0.3694
  502loPI    C3 8019  15.519  15.511  11.053 -0.0793 -0.2492 -0.2890
  502loPI   PO4 8020  15.111  15.471  10.562 -0.1233 -0.2019  0.0626
  502loPI   GL1 8021  15.290  15.404  10.232  0.0820 -0.2140  0.1002
  502loPI   GL2 8022  15.186  15.286   9.925 -0.0731 -0.1072  0.1335
  502loPI   C1A 8023  15.330  15.793   9.938  0.0489  0.0110 -0.1202
  502loPI   C2A 8024  15.366  15.803   9.459  0.0118  0.1588 -0.1002
  502loPI   C3A 8025  15.484  15.762   9.034  0.3276 -0.2342 -0.0924
  502loPI   C4A 8026  15.508  15.833   8.480  0.0670 -0.1287 -0.0112
  502loPI   C5A 8027  15.502  16.222   8.167  0.1300 -0.1112  0.1732
  502loPI   C6A 8028  15.468  16.487   7.893 -0.1256  0.2080 -0.1560
  502loPI   C1B 8029  15.196  15.234   9.521  0.0178  0.1333  0.0979
  502loPI   C2B 8030  15.361  15.171   9.051  0.0289 -0.0102  0.0406
  502loPI   C3B 8031  15.597  15.296   8.639  0.1728 -0.1182 -0.0442
  502loPI   C4B 8032  15.946  15.511   8.329  0.0267 -0.0827 -0.1892
  503loPI    C1 8033   1.463  11.521  11.434 -0.0589  0.1283 -0.0685
  503loPI    C2 8034   1.782  11.612  11.210  0.0562  0.1684  0.1095
  503loPI    C3 8035   1.817  11.588  11.608 -0.1752  0.2237  0.1348
  503loPI   PO4 8036   1.331  11.349  11.252  0.0173 -0.0624 -0.0726
  503loPI   GL1 8037   1.382  11.253  10.866 -0.0317  0.0206  0.0355
  503loPI   GL2 8038   1.220  11.090  10.731 -0.0568 -0.1026 -0.1339
  503loPI   C1A 8039   1.733  11.505  10.716  0.2388  0.1028  0.1237
  503loPI   C2A 8040   1.782  11.457  10.220 -0.0306 -0.1407 -0.0545
  503loPI   C3A 8041   1.750  11.408   9.757 -0.0790 -0.0907 -0.0554
  503loPI   C4A 8042   1.695  11.399   9.345 -0.4086  0.0505  0.1092
  503loPI   C5A 8043   1.740  11.588   8.961 -0.0412 -0.1763  0.1043
  503loPI   C6A 8044   1.605  11.562   8.547  0.1202  0.2801  0.1335
  503loPI   C1B 8045   1.287  11.198  10.343 -0.2003 -0.1086  0.0528
  503loPI   C2B 8046   1.277  11.250   9.897 -0.1612 -0.2648  0.0242
  503loPI   C3B 8047   1.170  11.278   9.523 -0.2026 -0.3141 -0.2909
  503loPI   C4B 8048   1.189  11.133   9.084 -0.4781  0.0739  0.5401
  504loPI    C1 8049  11.219   4.318  11.110 -0.1419  0.0428 -0.0213
  504loPI    C2 8050  11.292   3.931  11.039 -0.2384  0.0451 -0.1367
  504loPI    C3 8051  11.292   4.069  11.414 -0.2030 -0.0664 -0.0953
  504loPI   PO4 8052  11.054   4.342  10.865 -0.0976  0.2286  0.0098
  504loPI   GL1 8053  10.921   4.556  10.562 -0.0173  0.2870 -0.0422
  504loPI   GL2 8054  10.930   4.825  10.478 -0.1392 -0.2677 -0.1892
  504loPI   C1A 8055  11.306   4.491  10.233  0.1031 -0.0104 -0.0870
  504loPI   C2A 8056  11.375   4.579   9.787 -0.0205 -0.0646 -0.0629
  504loPI   C3A 8057  11.257   4.661   9.423  0.1573 -0.0106 -0.1065
  504loPI   C4A 8058  11.094   4.621   9.075  0.1769 -0.0726 -0.3083
  504loPI   C5A 8059  11.051   4.592   8.626  0.0010 -0.0077 -0.1292
  504loPI   C6A 8060  10.887   4.707   8.223 -0.0627 -0.0696 -0.1993
  504loPI   C1B 8061  10.895   4.761  10.141 -0.2092  0.2903  0.0267
  504loPI   C2B 8062  10.832   4.884   9.699  0.1547 -0.1149 -0.0679
  504loPI   C3B 8063  10.846   5.011   9.275 -0.1237 -0.1058 -0.1696
  504loPI   C4B 8064  10.640   4.908   8.904 -0.1951  0.4146 -0.1953
  505loPI    C1 8065   4.886  12.723  11.139  0.0973 -0.0175  0.0416
  505loPI    C2 8066   4.880  12.325  11.109 -0.2396 -0.0087 -0.0481
  505loPI    C3 8067   4.757  12.502  11.446 -0.0859  0.0202 -0.0066
  505loPI   PO4 8068   4.803  12.804  10.894  0.0507  0.1145 -0.0422
  505loPI   GL1 8069   4.828  12.587  10.572  0.1081  0.0407  0.2041
  505loPI   GL2 8070   4.993  12.228  10.630  0.0902 -0.0550 -0.3064
  505loPI   C1A 8071   4.600  12.599  10.077 -0.0185  0.2275  0.2119
  505loPI   C2A 8072   4.651  12.529   9.638  0.0329  0.1850 -0.2178
  505loPI   C3A 8073   4.643  12.600   9.283 -0.0401 -0.2493 -0.0360
  505loPI   C4A 8074   4.589  12.668   8.882 -0.2302  0.1792  0.1896
  505loPI   C5A 8075   4.578  12.383   8.600 -0.0744  0.0198  0.0450
  505loPI   C6A 8076   4.919  12.289   8.434  0.0475 -0.0727  0.2206
  505loPI   C1B 8077   4.973  12.293  10.192  0.1557 -0.1535 -0.2024
  505loPI   C2B 8078   4.987  12.197   9.799  0.1238 -0.2292  0.1639
  505loPI   C3B 8079   5.035  12.220   9.347  0.3695  0.0241 -0.1746
  505loPI   C4B 8080   5.019  12.338   8.950 -0.1187  0.0668  0.1060
  506loPI    C1 8081   8.632   1.686  10.475  0.1516  0.4383 -0.0580
  506loPI    C2 8082   8.541   1.771  10.855  0.1584  0.2478 -0.0126
  506loPI    C3 8083   8.830   1.506  10.773  0.0883  0.2128 -0.1496
  506loPI   PO4 8084   8.290   1.615  10.376  0.1206 -0.0851  0.2713
  506loPI   GL1 8085   8.035   1.714  10.130  0.0727  0.0999 -0.1184
  506loPI   GL2 8086   7.938   1.956  10.209  0.1683 -0.2431 -0.0860
  506loPI   C1A 8087   7.957   1.697   9.688 -0.1029 -0.2331  0.1786
  506loPI   C2A 8088   7.980   1.674   9.312 -0.0926  0.3458  0.1486
  506loPI   C3A 8089   8.025   1.832   8.954 -0.2148 -0.2790  0.0698
  506loPI   C4A 8090   7.987   1.770   8.453 -0.1954  0.1595 -0.1654
  506loPI   C5A 8091   8.024   1.510   8.060 -0.3066  0.0701 -0.1008
  506loPI   C6A 8092   8.389   1.343   7.803 -0.0044 -0.1142 -0.0288
  506loPI   C1B 8093   7.803   2.170   9.852 -0.3085 -0.0486  0.0663
  506loPI   C2B 8094   7.835   2.165   9.331  0.2236  0.0818 -0.3094
  506loPI   C3B 8095   8.015   2.394   9.017  0.0688 -0.0236 -0.1201
  506loPI   C4B 8096   7.983   2.239   8.651  0.2852  0.0583  0.1326
  507loPI    C1 8097   4.394   7.382  11.753  0.0902 -0.0643 -0.0648
  507loPI    C2 8098   4.491   7.119  12.039  0.0903  0.0438  0.0355
  507loPI    C3 8099   4.441   7.505  12.131  0.0125  0.0660 -0.0971
  507loPI   PO4 8100   4.625   7.353  11.486 -0.1511 -0.1074 -0.1575
  507loPI   GL1 8101   4.508   7.442  11.042  0.0546  0.0158  0.1655
  507loPI   GL2 8102   4.555   7.109  10.889  0.0330 -0.0508 -0.2093
  507loPI   C1A 8103   4.372   7.562  10.659  0.0736  0.0602  0.1153
  507loPI   C2A 8104   4.354   7.580  10.237  0.2667 -0.0889  0.1921
  507loPI   C3A 8105   4.255   7.578   9.764 -0.0724 -0.0822  0.0878
  507loPI   C4A 8106   4.266   7.675   9.360 -0.0139  0.2641 -0.0004
  507loPI   C5A 8107   4.440   7.649   8.945 -0.1634  0.3584  0.1235
  507loPI   C6A 8108   4.698   7.803   8.777 -0.0113  0.2252 -0.0173
  507loPI   C1B 8109   4.367   7.082  10.462  0.2969 -0.1417  0.0610
  507loPI   C2B 8110   4.286   7.126  10.009 -0.0049 -0.0030  0.2552
  507loPI   C3B 8111   4.197   7.126   9.529 -0.2820 -0.4647 -0.2392
  507loPI   C4B 8112   4.021   7.141   9.134 -0.0305 -0.0232  0.0645
  508loPI    C1 8113  12.088   8.787  11.206 -0.0380 -0.1878  0.1268
  508loPI    C2 8114  12.479   8.864  11.171 -0.1439  0.2953 -0.0823
  508loPI    C3 8115  12.297   8.911  11.524 -0.0372  0.1753 -0.0103
  508loPI   PO4 8116  12.028   8.860  10.956 -0.1554  0.1530  0.2155
  508loPI   GL1 8117  12.314   8.865  10.676  0.2000 -0.0643 -0.0052
  508loPI   GL2 8118  12.516   8.627  10.691 -0.0625  0.1120 -0.0097
  508loPI   C1A 8119  12.204   8.976  10.314 -0.1768  0.2640  0.2214
  508loPI   C2A 8120  12.241   8.999   9.907  0.1850 -0.1401  0.1832
  508loPI   C3A 8121  12.134   8.952   9.490 -0.0338 -0.2408  0.0530
  508loPI   C4A 8122  12.136   8.928   9.117 -0.0891 -0.1008 -0.0559
  508loPI   C5A 8123  11.860   8.787   8.744  0.0248 -0.2150  0.0305
  508loPI   C6A 8124  11.871   8.645   8.327 -0.0262 -0.1671 -0.5671
  508loPI   C1B 8125  12.566   8.696  10.267  0.1106 -0.0495  0.0840
  508loPI   C2B 8126  12.603   8.657   9.768  0.1925  0.0730  0.0337
  508loPI   C3B 8127  12.548   8.683   9.366  0.2085  0.2585 -0.2184
  508loPI   C4B 8128  12.527   8.669   8.988  0.1748  0.0882 -0.0639
  509loPI    C1 8129  16.653  10.294  11.500  0.0369  0.2862 -0.1754
  509loPI    C2 8130  16.904  10.316  11.810  0.0309  0.2027 -0.1642
  509loPI    C3 8131  16.519  10.226  11.870  0.0984 -0.1408 -0.2259
  509loPI   PO4 8132  16.808  10.268  11.330 -0.0197  0.1514 -0.2732
  509loPI   GL1 8133  16.899   9.999  11.066 -0.0902  0.3445  0.0277
  509loPI   GL2 8134  17.152  10.112  10.962  0.0056  0.0669  0.0180
  509loPI   C1A 8135  16.874   9.873  10.680 -0.0342  0.0318 -0.0344
  509loPI   C2A 8136  16.871   9.872  10.189 -0.1620  0.0896  0.1056
  509loPI   C3A 8137  16.871   9.937   9.769  0.0239  0.0398 -0.2486
  509loPI   C4A 8138  16.834   9.963   9.302 -0.0623  0.4568  0.0311
  509loPI   C5A 8139  16.812   9.970   8.822 -0.2170 -0.2064 -0.1009
  509loPI   C6A 8140  17.112  10.011   8.556  0.4572 -0.2372 -0.1377
  509loPI   C1B 8141  17.282  10.046  10.466 -0.1608 -0.2327 -0.0871
  509loPI   C2B 8142  17.273  10.116  10.035 -0.0725 -0.0715  0.0704
  509loPI   C3B 8143  17.270  10.094   9.572 -0.0614 -0.2020  0.1910
  509loPI   C4B 8144  17.215  10.152   9.068 -0.2245 -0.1157 -0.1785
  510loPI    C1 8145  14.382  12.914  11.395  0.0309  0.0187 -0.1326
  510loPI    C2 8146  14.735  13.094  11.456  0.1073 -0.1040 -0.2082
  510loPI    C3 8147  14.693  12.704  11.535 -0.1419  0.0083  0.2447
  510loPI   PO4 8148  14.334  12.897  11.199 -0.1089  0.0381 -0.1247
  510loPI   GL1 8149  14.246  12.679  10.877 -0.0007  0.3514  0.0615
  510loPI   GL2 8150  14.388  12.939  10.736 -0.0428  0.3130  0.0535
  510loPI   C1A 8151  14.055  12.743  10.420 -0.0801  0.0712  0.0457
  510loPI   C2A 8152  14.080  12.773   9.932  0.0768 -0.0124  0.0324
  510loPI   C3A 8153  14.051  12.682   9.527 -0.0392 -0.3030 -0.0580
  510loPI   C4A 8154  13.950  12.716   9.095 -0.0148  0.2082 -0.0744
  510loPI   C5A 8155  14.198  12.728   8.788  0.1451  0.2440  0.0355
  510loPI   C6A 8156  14.539  12.616   8.579  0.0435 -0.2158  0.1031
  510loPI   C1B 8157  14.524  12.993  10.355 -0.0616  0.1394  0.0363
  510loPI   C2B 8158  14.556  12.968   9.954 -0.2344 -0.0747  0.2082
  510loPI   C3B 8159  14.472  12.871   9.522 -0.2268 -0.3055 -0.1108
  510loPI   C4B 8160  14.545  12.892   9.061  0.0829 -0.0778 -0.2713
  511loPI    C1 8161   0.315   6.481  11.808 -0.5493 -0.1411 -0.0007
  511loPI    C2 8162   0.235   6.096  11.886 -0.2509 -0.1769  0.1440
  511loPI    C3 8163   0.514   6.289  12.098 -0.2487  0.0601 -0.0697
  511loPI   PO4 8164   0.337   6.435  11.522  0.2493 -0.0084 -0.1455
  511loPI   GL1 8165   0.068   6.406  11.072 -0.1245  0.1795  0.1622
  511loPI   GL2 8166  -0.267   6.227  11.089 -0.0023  0.0240 -0.1121
  511loPI   C1A 8167  -0.019   6.298  10.637 -0.2059 -0.1729  0.0849
  511loPI   C2A 8168  -0.014   6.324  10.205 -0.1562  0.0203 -0.1384
  511loPI   C3A 8169   0.021   6.414   9.753 -0.1303 -0.2727 -0.1038
  511loPI   C4A 8170   0.008   6.300   9.290 -0.0867 -0.0261 -0.2049
  511loPI   C5A 8171   0.039   6.000   9.051  0.0525  0.0269  0.0867
  511loPI   C6A 8172  -0.289   5.861   9.152  0.1390 -0.0976  0.0496
  511loPI   C1B 8173  -0.499   6.062  10.848 -0.0279 -0.1820  0.1178
  511loPI   C2B 8174  -0.492   6.186  10.379  0.1718  0.1492  0.0329
  511loPI   C3B 8175  -0.426   6.180   9.898 -0.4723 -0.0009  0.0521
  511loPI   C4B 8176  -0.410   6.146   9.538 -0.2602  0.0807  0.0114
  512loPI    C1 8177  11.099  11.492  11.055  0.3133 -0.1442  0.1475
  512loPI    C2 8178  11.166  11.686  11.398  0.1590 -0.0305  0.1145
  512loPI    C3 8179  11.179  11.884  11.051  0.4036 -0.1632  0.0456
  512loPI   PO4 8180  11.262  11.332  10.985  0.2797  0.1075 -0.2336
  512loPI   GL1 8181  11.320  11.122  10.598 -0.2866 -0.0108 -0.2920
  512loPI   GL2 8182  11.551  11.248  10.511  0.1668  0.1925 -0.0858
  512loPI   C1A 8183  11.176  11.001  10.225  0.0586  0.0655  0.0006
  512loPI   C2A 8184  11.102  11.016   9.767 -0.1441 -0.0895  0.0245
  512loPI   C3A 8185  11.136  10.965   9.380 -0.0346  0.0008  0.2167
  512loPI   C4A 8186  11.112  10.887   8.938  0.0544  0.3314 -0.0591
  512loPI   C5A 8187  11.006  10.979   8.470 -0.0103 -0.1001  0.3138
  512loPI   C6A 8188  10.747  11.330   8.414  0.0777 -0.0328  0.1085
  512loPI   C1B 8189  11.658  11.200  10.091  0.4881  0.0118  0.1277
  512loPI   C2B 8190  11.596  11.175   9.646  0.0291  0.0735  0.0476
  512loPI   C3B 8191  11.589  11.085   9.179 -0.2119  0.0410 -0.1645
  512loPI   C4B 8192  11.608  11.005   8.712  0.1149  0.0158 -0.0557
  513loPI    C1 8193  14.553   3.424  11.599 -0.0881  0.2764 -0.1350
  513loPI    C2 8194  14.445   3.677  11.889  0.0960  0.0810  0.1087
  513loPI    C3 8195  14.541   3.300  11.979 -0.1297 -0.0659 -0.2444
  513loPI   PO4 8196  14.434   3.540  11.327  0.1595 -0.2642  0.0549
  513loPI   GL1 8197  14.495   3.456  10.951  0.5374 -0.0010  0.0899
  513loPI   GL2 8198  14.396   3.342  10.682 -0.0316  0.0456 -0.1457
  513loPI   C1A 8199  14.280   3.771  10.641 -0.2748 -0.1224 -0.0431
  513loPI   C2A 8200  14.346   3.828  10.116 -0.1579 -0.1568  0.2567
  513loPI   C3A 8201  14.251   3.860   9.638  0.2707 -0.1011  0.3460
  513loPI   C4A 8202  14.357   3.803   9.228 -0.2102  0.2757  0.1399
  513loPI   C5A 8203  14.380   3.705   8.841 -0.0417  0.0164 -0.2514
  513loPI   C6A 8204  14.775   3.720   8.610  0.0008 -0.1186  0.1710
  513loPI   C1B 8205  14.281   3.396  10.308 -0.3923 -0.0730  0.0448
  513loPI   C2B 8206  14.363   3.370   9.796 -0.1478 -0.0306  0.3845
  513loPI   C3B 8207  14.352   3.329   9.374  0.2225  0.2338 -0.0262
  513loPI   C4B 8208  14.334   3.104   8.953  0.0223  0.1051  0.1543
  514loPI    C1 8209  10.475  10.887  11.523 -0.0968 -0.2136  0.3247
  514loPI    C2 8210  10.107  10.883  11.680 -0.2112  0.2961  0.0904
  514loPI    C3 8211  10.406  11.065  11.874 -0.1549  0.1681  0.1250
  514loPI   PO4 8212  10.432  10.709  11.231  0.0465  0.0829  0.1256
  514loPI   GL1 8213  10.607  10.609  10.880  0.2753  0.3473 -0.0813
  514loPI   GL2 8214  10.752  10.338  10.789 -0.2982 -0.0345  0.3480
  514loPI   C1A 8215  10.781  10.833  10.522 -0.2391 -0.0803 -0.0516
  514loPI   C2A 8216  10.741  10.818  10.044 -0.0599  0.1271 -0.1533
  514loPI   C3A 8217  10.628  10.767   9.658  0.1124 -0.0909 -0.3078
  514loPI   C4A 8218  10.585  10.665   9.282  0.2223  0.0863  0.2569
  514loPI   C5A 8219  10.622  10.632   8.882 -0.0478  0.2457  0.0715
  514loPI   C6A 8220  10.795  10.545   8.440  0.4504 -0.0685 -0.3276
  514loPI   C1B 8221  10.594  10.279  10.373  0.1107 -0.0616 -0.2258
  514loPI   C2B 8222  10.586  10.358   9.939  0.2908  0.1200  0.0487
  514loPI   C3B 8223  10.592  10.236   9.583  0.2770 -0.3827  0.0817
  514loPI   C4B 8224  10.481  10.164   9.163 -0.3860 -0.0291 -0.3303
  515loPI    C1 8225   4.318  14.985  11.268  0.0332  0.1796  0.1875
  515loPI    C2 8226   4.663  14.812  11.373  0.0159 -0.0044 -0.0509
  515loPI    C3 8227   4.592  15.193  11.472  0.3036  0.0469 -0.0336
  515loPI   PO4 8228   4.347  14.935  10.984 -0.3506 -0.0856  0.0501
  515loPI   GL1 8229   4.119  14.973  10.622 -0.2134 -0.1317 -0.1093
  515loPI   GL2 8230   3.839  15.130  10.648  0.0147  0.2254  0.4197
  515loPI   C1A 8231   3.940  14.765  10.340 -0.0625 -0.1134  0.0492
  515loPI   C2A 8232   4.005  14.770   9.931 -0.1493 -0.2819 -0.1807
  515loPI   C3A 8233   4.010  14.823   9.499 -0.0372 -0.2500 -0.0849
  515loPI   C4A 8234   3.961  14.819   9.097 -0.0499  0.2946 -0.0854
  515loPI   C5A 8235   3.957  14.773   8.692 -0.1048  0.1647 -0.0950
  515loPI   C6A 8236   3.990  15.043   8.440 -0.0009 -0.2210  0.2576
  515loPI   C1B 8237   3.570  15.128  10.437 -0.0274 -0.2312  0.0306
  515loPI   C2B 8238   3.556  15.048   9.942 -0.4515  0.0519 -0.1613
  515loPI   C3B 8239   3.547  15.126   9.532 -0.0478  0.0212  0.0395
  515loPI   C4B 8240   3.566  15.223   9.037 -0.3946  0.1451  0.1304
  516loPI    C1 8241  13.056  11.267  11.706  0.0589 -0.0187  0.0783
  516loPI    C2 8242  13.139  11.085  12.052  0.0011  0.0772  0.1434
  516loPI    C3 8243  12.967  11.446  12.052  0.0700  0.1111  0.0150
  516loPI   PO4 8244  13.162  11.111  11.569 -0.2631  0.0394 -0.1459
  516loPI   GL1 8245  13.121  11.055  11.133  0.0662 -0.0901  0.2232
  516loPI   GL2 8246  12.864  11.057  10.912 -0.0675  0.0328 -0.1897
  516loPI   C1A 8247  13.323  11.019  10.688 -0.0620 -0.3195 -0.1444
  516loPI   C2A 8248  13.381  11.039  10.256  0.1610  0.2325  0.0112
  516loPI   C3A 8249  13.388  10.990   9.804  0.1397 -0.2633  0.0720
  516loPI   C4A 8250  13.328  10.920   9.446 -0.1516  0.2296  0.1340
  516loPI   C5A 8251  13.326  10.963   8.996  0.1725  0.0487 -0.2574
  516loPI   C6A 8252  12.946  10.934   8.754 -0.1634  0.0703 -0.1320
  516loPI   C1B 8253  12.904  10.875  10.495 -0.0975 -0.4296  0.1222
  516loPI   C2B 8254  12.908  10.809  10.189 -0.0861  0.0392 -0.2129
  516loPI   C3B 8255  12.883  10.733   9.740 -0.3067 -0.3421 -0.0909
  516loPI   C4B 8256  12.832  10.707   9.232 -0.1282 -0.1018 -0.2115
  517loPI    C1 8257  17.369   0.422  10.957 -0.0011 -0.1989 -0.0765
  517loPI    C2 8258  17.620   0.113  10.925  0.0724 -0.1599  0.1150
  517loPI    C3 8259  17.470   0.213  11.283  0.2429  0.1772  0.0956
  517loPI   PO4 8260  17.184   0.368  10.827 -0.3039 -0.0438  0.1015
  517loPI   GL1 8261  16.923   0.564  10.525  0.0285 -0.2123 -0.2736
  517loPI   GL2 8262  16.675   0.590  10.786 -0.2085  0.0392  0.0577
  517loPI   C1A 8263  16.988   0.346  10.178 -0.1499  0.1668  0.2972
  517loPI   C2A 8264  16.909   0.225   9.810  0.1131 -0.1251 -0.0378
  517loPI   C3A 8265  17.048   0.285   9.444  0.0514  0.0660  0.0611
  517loPI   C4A 8266  17.101   0.234   8.981  0.4620  0.0140 -0.1038
  517loPI   C5A 8267  17.127  -0.123   8.555 -0.0646 -0.3137  0.1602
  517loPI   C6A 8268  16.849  -0.433   8.526  0.0877  0.0524 -0.1205
  517loPI   C1B 8269  16.448   0.547  10.382 -0.2315  0.1151  0.1161
  517loPI   C2B 8270  16.483   0.655  10.023  0.0230 -0.1600 -0.1731
  517loPI   C3B 8271  16.539   0.698   9.589 -0.1483  0.0185 -0.0653
  517loPI   C4B 8272  16.706   0.582   9.203  0.1881 -0.1195 -0.2020
  518loPI    C1 8273  13.071   1.898  10.859  0.0650 -0.0649 -0.0094
  518loPI    C2 8274  13.015   1.924  11.255 -0.3868 -0.2674 -0.0532
  518loPI    C3 8275  12.888   2.218  11.015 -0.0224 -0.0975 -0.0439
  518loPI   PO4 8276  13.262   1.813  10.817  0.1872 -0.2294 -0.2739
  518loPI   GL1 8277  13.544   1.711  10.510  0.0845  0.2823 -0.1392
  518loPI   GL2 8278  13.685   1.448  10.311  0.0562  0.2891  0.1948
  518loPI   C1A 8279  13.849   1.920  10.228 -0.0526 -0.1419  0.5021
  518loPI   C2A 8280  13.903   2.099   9.883 -0.2938  0.1472 -0.0661
  518loPI   C3A 8281  13.973   2.099   9.416 -0.3329  0.0262 -0.4335
  518loPI   C4A 8282  14.038   2.156   9.002  0.0110 -0.0722 -0.3014
  518loPI   C5A 8283  14.211   2.122   8.648  0.2658  0.1572  0.0398
  518loPI   C6A 8284  14.518   1.939   8.471  0.2450 -0.1531 -0.2122
  518loPI   C1B 8285  13.911   1.534   9.878 -0.0047  0.2043  0.2516
  518loPI   C2B 8286  14.078   1.571   9.489  0.1068  0.0560  0.1000
  518loPI   C3B 8287  13.919   1.609   9.060  0.0926  0.1854  0.1105
  518loPI   C4B 8288  14.094   1.635   8.659 -0.0150 -0.2535 -0.0258
  519loPI    C1 8289  13.298   0.917  11.032 -0.2056  0.1185 -0.4050
  519loPI    C2 8290  13.115   0.632  11.245  0.1728  0.1971  0.0425
  519loPI    C3 8291  12.904   0.938  11.099 -0.1638 -0.0818 -0.0698
  519loPI   PO4 8292  13.470   0.782  10.802  0.2189 -0.1081 -0.1930
  519loPI   GL1 8293  13.485   0.566  10.449  0.2504  0.1999  0.0010
  519loPI   GL2 8294  13.681   0.401  10.221  0.0524 -0.2175  0.0133
  519loPI   C1A 8295  13.201   0.716  10.139  0.0612  0.2335 -0.3304
  519loPI   C2A 8296  13.340   0.853   9.781  0.4362 -0.1559  0.0962
  519loPI   C3A 8297  13.353   0.832   9.342  0.0051 -0.1467 -0.4210
  519loPI   C4A 8298  13.553   0.854   8.851  0.3704  0.0660 -0.0173
  519loPI   C5A 8299  13.542   0.900   8.417 -0.1789 -0.2169 -0.2103
  519loPI   C6A 8300  13.219   1.189   8.180 -0.1212 -0.2470  0.3207
  519loPI   C1B 8301  13.751   0.573   9.773 -0.0290 -0.0895 -0.3538
  519loPI   C2B 8302  13.900   0.581   9.355  0.1065  0.0140  0.1533
  519loPI   C3B 8303  14.019   0.569   8.992  0.0216 -0.2330  0.0021
  519loPI   C4B 8304  14.285   0.641   8.544 -0.2987  0.1389  0.2494
  520loPI    C1 8305   5.973   4.841  11.402  0.1092  0.1424 -0.3054
  520loPI    C2 8306   6.093   4.615  11.095 -0.0113 -0.1945 -0.1089
  520loPI    C3 8307   6.033   4.450  11.455 -0.0669  0.1590  0.0484
  520loPI   PO4 8308   5.933   5.053  11.222  0.1481 -0.0609 -0.0759
  520loPI   GL1 8309   6.119   5.128  10.792  0.3314  0.2082 -0.0388
  520loPI   GL2 8310   6.024   5.437  10.785 -0.0386 -0.0342  0.1351
  520loPI   C1A 8311   6.004   5.301  10.309  0.0998  0.2826  0.3386
  520loPI   C2A 8312   5.788   5.328   9.927  0.2290  0.3712  0.2212
  520loPI   C3A 8313   5.626   5.297   9.467 -0.0885 -0.2218  0.0606
  520loPI   C4A 8314   5.823   5.224   9.043  0.0463 -0.0814  0.1343
  520loPI   C5A 8315   5.762   4.862   8.734 -0.0323  0.2170 -0.0458
  520loPI   C6A 8316   5.694   4.384   8.612 -0.0251 -0.1670 -0.2916
  520loPI   C1B 8317   5.954   5.778  10.510  0.1326 -0.0279 -0.2056
  520loPI   C2B 8318   5.809   5.882  10.090  0.1625  0.1205  0.0863
  520loPI   C3B 8319   5.742   5.774   9.662  0.2728 -0.0236 -0.3765
  520loPI   C4B 8320   5.832   5.674   9.271 -0.1123  0.1542  0.2946
  521loPI    C1 8321  12.208   6.128  11.539 -0.2695  0.1101  0.1913
  521loPI    C2 8322  11.913   5.859  11.522 -0.0957 -0.0702 -0.0457
  521loPI    C3 8323  12.197   5.826  11.801 -0.1002 -0.1064 -0.0452
  521loPI   PO4 8324  12.265   6.126  11.246  0.1001 -0.0901 -0.4114
  521loPI   GL1 8325  12.431   6.108  10.860 -0.1079 -0.1977 -0.3438
  521loPI   GL2 8326  12.505   5.880  10.611  0.0376 -0.2040  0.0404
  521loPI   C1A 8327  12.437   6.407  10.453  0.1605  0.4638 -0.0725
  521loPI   C2A 8328  12.437   6.459  10.060  0.0804  0.0436  0.0045
  521loPI   C3A 8329  12.346   6.434   9.576 -0.1501 -0.1723 -0.3586
  521loPI   C4A 8330  12.304   6.582   9.177 -0.1277  0.0269 -0.3546
  521loPI   C5A 8331  12.388   6.801   8.771  0.2860  0.0608  0.0246
  521loPI   C6A 8332  12.410   7.120   8.555 -0.0430 -0.0526  0.1523
  521loPI   C1B 8333  12.343   5.940  10.200  0.0489 -0.0226  0.0216
  521loPI   C2B 8334  12.346   5.928   9.753  0.0921  0.0822  0.3251
  521loPI   C3B 8335  12.397   6.017   9.184 -0.0592  0.0783 -0.4597
  521loPI   C4B 8336  12.283   6.164   8.760 -0.0439 -0.3142 -0.3723
  522loPI    C1 8337   6.167   2.065  11.071  0.0150 -0.0552  0.0955
  522loPI    C2 8338   5.972   2.128  11.415 -0.1344  0.2835 -0.0465
  522loPI    C3 8339   6.345   2.265  11.368 -0.0287  0.0386  0.0589
  522loPI   PO4 8340   5.987   2.127  10.849  0.1719 -0.1546  0.1115
  522loPI   GL1 8341   5.963   2.357  10.465 -0.0357 -0.0834 -0.1690
  522loPI   GL2 8342   5.641   2.201  10.419  0.1397 -0.1387 -0.0500
  522loPI   C1A 8343   5.813   2.617  10.229  0.2292  0.0804 -0.0193
  522loPI   C2A 8344   5.713   2.786   9.871  0.1686 -0.0791 -0.0793
  522loPI   C3A 8345   5.741   2.849   9.455  0.0270 -0.2031  0.1638
  522loPI   C4A 8346   5.729   2.978   9.037 -0.0446 -0.1091 -0.1928
  522loPI   C5A 8347   5.762   2.976   8.612  0.0731 -0.2292  0.0388
  522loPI   C6A 8348   5.490   3.261   8.379  0.3099 -0.2359  0.0520
  522loPI   C1B 8349   5.763   2.255   9.952  0.0548 -0.1401  0.0371
  522loPI   C2B 8350   5.715   2.343   9.558  0.1968  0.0095  0.2566
  522loPI   C3B 8351   5.734   2.442   9.149 -0.0562 -0.1063 -0.3078
  522loPI   C4B 8352   5.707   2.518   8.731 -0.0247  0.1644 -0.0514
  523loPI    C1 8353   5.581  16.339  10.978  0.1019 -0.1997  0.3206
  523loPI    C2 8354   5.299  16.478  11.225 -0.0793 -0.1805  0.1062
  523loPI    C3 8355   5.684  16.564  11.292 -0.1620  0.1734  0.1468
  523loPI   PO4 8356   5.538  16.343  10.723 -0.0046 -0.1603  0.3384
  523loPI   GL1 8357   5.633  16.568  10.334 -0.0213 -0.1064 -0.1081
  523loPI   GL2 8358   5.344  16.767  10.392  0.1681  0.2580 -0.2922
  523loPI   C1A 8359   5.514  16.438  10.026  0.0761 -0.0856 -0.2163
  523loPI   C2A 8360   5.658  16.384   9.658  0.0414  0.2168 -0.3104
  523loPI   C3A 8361   5.536  16.438   9.229  0.1469  0.0396  0.0353
  523loPI   C4A 8362   5.469  16.553   8.841 -0.0760 -0.2875  0.0887
  523loPI   C5A 8363   5.248  16.809   8.456 -0.0998  0.0619  0.0409
  523loPI   C6A 8364   5.094  17.220   8.283 -0.1788 -0.3609 -0.0391
  523loPI   C1B 8365   5.144  16.774   9.959 -0.0754  0.0126  0.2096
  523loPI   C2B 8366   5.165  16.761   9.545 -0.1360 -0.2342 -0.3564
  523loPI   C3B 8367   5.028  16.817   9.042 -0.1697 -0.2093  0.3203
  523loPI   C4B 8368   4.821  16.990   8.659  0.0597 -0.1105  0.2310
  524loPI    C1 8369   1.525  17.316  11.025 -0.1149  0.0261 -0.0526
  524loPI    C2 8370   1.296  16.989  11.002  0.0503 -0.1056  0.1482
  524loPI    C3 8371   1.294  17.212  11.334  0.0802 -0.0078  0.0831
  524loPI   PO4 8372   1.752  17.205  10.830 -0.0575  0.1834  0.1006
  524loPI   GL1 8373   1.653  17.067  10.414  0.1992  0.1495  0.2142
  524loPI   GL2 8374   1.967  16.951  10.455  0.1275 -0.3350  0.0116
  524loPI   C1A 8375   1.722  17.319  10.126  0.0060 -0.0448 -0.0201
  524loPI   C2A 8376   1.724  17.323   9.772  0.0764  0.3479  0.2076
  524loPI   C3A 8377   1.768  17.330   9.414 -0.0743  0.0290 -0.3267
  524loPI   C4A 8378   1.808  17.341   8.962  0.1890 -0.2802 -0.0560
  524loPI   C5A 8379   1.741  17.474   8.646  0.1762 -0.2866 -0.0788
  524loPI   C6A 8380   1.771  17.615   8.285  0.1071  0.0684 -0.1056
  524loPI   C1B 8381   2.024  16.949  10.030 -0.2513 -0.1316  0.1029
  524loPI   C2B 8382   2.206  17.019   9.603  0.4030 -0.0367  0.1315
  524loPI   C3B 8383   2.209  17.069   9.191  0.0112  0.0382  0.2236
  524loPI   C4B 8384   2.118  16.924   8.705  0.0778 -0.0350 -0.4161
  525loPI    C1 8385  16.584  14.539  11.046 -0.0615  0.2224  0.0908
  525loPI    C2 8386  16.526  14.787  11.355  0.0408  0.2038  0.1255
  525loPI    C3 8387  16.887  14.628  11.291 -0.0488 -0.0209  0.1659
  525loPI   PO4 8388  16.364  14.698  10.886  0.0035 -0.0024  0.3439
  525loPI   GL1 8389  16.382  14.982  10.584 -0.1137  0.4746  0.2093
  525loPI   GL2 8390  16.296  15.232  10.391 -0.2051  0.1446  0.1585
  525loPI   C1A 8391  16.453  14.731  10.180 -0.4053  0.0838  0.0865
  525loPI   C2A 8392  16.517  14.586   9.698  0.2334 -0.0904  0.1935
  525loPI   C3A 8393  16.622  14.605   9.293  0.1944  0.1547  0.2634
  525loPI   C4A 8394  16.617  14.735   8.946 -0.1055  0.1325  0.0239
  525loPI   C5A 8395  16.474  14.552   8.530  0.0006 -0.0350 -0.0445
  525loPI   C6A 8396  16.229  14.337   8.185  0.1452 -0.2828  0.3490
  525loPI   C1B 8397  16.557  15.310   9.980 -0.0215 -0.0827 -0.2464
  525loPI   C2B 8398  16.625  15.228   9.635 -0.0868 -0.1204  0.0309
  525loPI   C3B 8399  16.663  15.230   9.246  0.0893 -0.1078  0.0185
  525loPI   C4B 8400  16.699  15.274   8.770 -0.3143 -0.0638 -0.0527
  526loPI    C1 8401  11.653   6.871  11.308 -0.0889 -0.1738 -0.0463
  526loPI    C2 8402  11.958   6.628  11.400  0.0768 -0.0331 -0.2165
  526loPI    C3 8403  11.731   6.784  11.691  0.2552 -0.0267 -0.0792
  526loPI   PO4 8404  11.589   6.779  11.059 -0.1113  0.0692 -0.1657
  526loPI   GL1 8405  11.663   6.725  10.720 -0.0871 -0.2702  0.1921
  526loPI   GL2 8406  12.002   6.759  10.556 -0.2058 -0.2500  0.1553
  526loPI   C1A 8407  11.596   6.495  10.351  0.1633 -0.1391 -0.0632
  526loPI   C2A 8408  11.510   6.656   9.980 -0.3389  0.1117 -0.0514
  526loPI   C3A 8409  11.467   6.649   9.542 -0.0275 -0.0121  0.0629
  526loPI   C4A 8410  11.472   6.693   9.148  0.1304 -0.3227  0.2016
  526loPI   C5A 8411  11.352   6.763   8.730  0.4584 -0.0406  0.1556
  526loPI   C6A 8412  11.652   6.796   8.430  0.2137  0.0972 -0.0854
  526loPI   C1B 8413  12.029   6.653  10.204 -0.0143 -0.1285  0.0606
  526loPI   C2B 8414  11.992   6.776   9.763 -0.0514  0.2932  0.0463
  526loPI   C3B 8415  11.927   6.830   9.399 -0.0415 -0.0387 -0.2217
  526loPI   C4B 8416  11.931   6.960   8.911 -0.1393  0.1368  0.0077
  527loPI    C1 8417   3.800   0.197  11.540 -0.1611 -0.0613 -0.1772
  527loPI    C2 8418   3.735  -0.152  11.724  0.1390 -0.0763 -0.0948
  527loPI    C3 8419   3.652   0.192  11.912  0.0512 -0.0988 -0.0918
  527loPI   PO4 8420   3.790   0.162  11.274  0.0324 -0.3834  0.0447
  527loPI   GL1 8421   3.754   0.323  10.843  0.0109 -0.0958  0.0958
  527loPI   GL2 8422   3.591   0.217  10.574  0.1333 -0.1514 -0.0078
  527loPI   C1A 8423   4.021   0.449  10.480  0.2815  0.4934  0.0622
  527loPI   C2A 8424   4.045   0.622  10.027 -0.2422 -0.0633  0.0399
  527loPI   C3A 8425   4.163   0.716   9.607  0.0539  0.0779 -0.3100
  527loPI   C4A 8426   4.034   0.725   9.202 -0.0559 -0.0801  0.0606
  527loPI   C5A 8427   4.055   1.027   8.884 -0.0056 -0.1906 -0.1515
  527loPI   C6A 8428   4.180   1.445   8.870  0.0231 -0.1464  0.1614
  527loPI   C1B 8429   3.610   0.417  10.157  0.1247  0.0640  0.2101
  527loPI   C2B 8430   3.709   0.416   9.674  0.2382  0.2311  0.4115
  527loPI   C3B 8431   3.552   0.560   9.293 -0.0257  0.1962  0.0239
  527loPI   C4B 8432   3.521   0.682   8.890 -0.0932 -0.1575  0.1917
  528loPI    C1 8433  10.483  12.772  10.936 -0.2719  0.1800  0.2437
  528loPI    C2 8434  10.529  13.078  11.190 -0.3759  0.2400  0.1909
  528loPI    C3 8435  10.295  12.769  11.289  0.0637 -0.0283  0.4261
  528loPI   PO4 8436  10.377  12.842  10.683 -0.2310 -0.1056 -0.1989
  528loPI   GL1 8437  10.617  12.954  10.343  0.1241  0.1152  0.4098
  528loPI   GL2 8438  10.457  12.671  10.255 -0.0701 -0.2102 -0.1300
  528loPI   C1A 8439  10.863  12.800  10.004  0.0611  0.0326 -0.0100
  528loPI   C2A 8440  10.878  12.813   9.605 -0.0526  0.4852  0.0356
  528loPI   C3A 8441  10.841  12.779   9.211 -0.0249  0.1104 -0.0883
  528loPI   C4A 8442  10.900  12.713   8.725 -0.0523 -0.2093 -0.0735
  528loPI   C5A 8443  10.999  12.646   8.329 -0.1210 -0.0228  0.1234
  528loPI   C6A 8444  11.175  12.985   8.011  0.2630  0.0641  0.2734
  528loPI   C1B 8445  10.441  12.659   9.823 -0.3261  0.1548  0.2166
  528loPI   C2B 8446  10.439  12.572   9.475 -0.0210 -0.0682 -0.0823
  528loPI   C3B 8447  10.373  12.476   9.093 -0.0795 -0.0137  0.1606
  528loPI   C4B 8448  10.447  12.425   8.705 -0.1001 -0.1369 -0.1547
  529loPI    C1 8449   4.188   4.544  11.337 -0.0952  0.0447 -0.1560
  529loPI    C2 8450   4.152   4.943  11.336  0.1162  0.0647 -0.2830
  529loPI    C3 8451   4.051   4.734  11.662  0.1029  0.2311 -0.1791
  529loPI   PO4 8452   4.164   4.482  11.090 -0.0125  0.1228 -0.0055
  529loPI   GL1 8453   4.173   4.615  10.693  0.1634  0.3506 -0.0163
  529loPI   GL2 8454   3.903   4.909  10.851  0.0966  0.0348  0.1704
  529loPI   C1A 8455   4.331   4.719  10.266 -0.1564 -0.3975  0.4914
  529loPI   C2A 8456   4.234   4.619   9.831 -0.2861  0.1230 -0.2876
  529loPI   C3A 8457   4.289   4.751   9.413 -0.4465  0.0029  0.1938
  529loPI   C4A 8458   4.106   4.682   8.981  0.0579 -0.2385 -0.1222
  529loPI   C5A 8459   4.216   4.911   8.674 -0.2340  0.0679 -0.2336
  529loPI   C6A 8460   4.403   4.941   8.266  0.0618  0.1375 -0.2825
  529loPI   C1B 8461   3.891   4.980  10.336 -0.2370 -0.2374  0.3738
  529loPI   C2B 8462   3.829   5.013   9.864  0.1973 -0.1575 -0.0416
  529loPI   C3B 8463   3.915   5.122   9.350 -0.1373  0.2608  0.3185
  529loPI   C4B 8464   3.961   5.261   8.958 -0.0212  0.0876  0.1852
  530loPI    C1 8465   5.805  11.897  11.511  0.0480 -0.1621 -0.2826
  530loPI    C2 8466   5.460  12.038  11.655  0.3338  0.2173  0.0577
  530loPI    C3 8467   5.686  11.796  11.879  0.3118  0.0013 -0.1489
  530loPI   PO4 8468   5.730  11.777  11.264  0.1188 -0.4057  0.1188
  530loPI   GL1 8469   5.807  11.710  10.794  0.1966 -0.2689  0.0933
  530loPI   GL2 8470   6.124  11.871  10.762  0.2142 -0.3088  0.1429
  530loPI   C1A 8471   5.734  11.757  10.417 -0.4491 -0.1730  0.1315
  530loPI   C2A 8472   5.861  11.637  10.029 -0.0271 -0.1269  0.3098
  530loPI   C3A 8473   5.811  11.605   9.640 -0.1125 -0.1114  0.1921
  530loPI   C4A 8474   5.788  11.661   9.236 -0.2954  0.2468 -0.1155
  530loPI   C5A 8475   5.681  11.642   8.840  0.1616  0.1745  0.1528
  530loPI   C6A 8476   5.462  11.483   8.491  0.0791  0.1153  0.0036
  530loPI   C1B 8477   6.281  11.817  10.290  0.0135 -0.0074 -0.1620
  530loPI   C2B 8478   6.296  11.981   9.856  0.1422 -0.1367  0.0097
  530loPI   C3B 8479   6.231  11.839   9.389  0.1715 -0.1108 -0.3727
  530loPI   C4B 8480   6.196  11.819   9.006  0.0220  0.0979 -0.1520
  531loPI    C1 8481  14.356   6.833  11.744  0.0533  0.2017  0.2105
  531loPI    C2 8482  14.140   7.126  11.909 -0.1400  0.1199  0.1063
  531loPI    C3 8483  14.070   6.745  12.008  0.0289  0.0993  0.1505
  531loPI   PO4 8484  14.381   6.894  11.529  0.1399  0.1421  0.0322
  531loPI   GL1 8485  14.451   7.087  11.147 -0.0041  0.1475 -0.1069
  531loPI   GL2 8486  14.186   6.867  11.060  0.2020 -0.1458 -0.0811
  531loPI   C1A 8487  14.598   7.223  10.739 -0.1443  0.0016  0.1382
  531loPI   C2A 8488  14.666   7.037  10.428 -0.0169 -0.2083 -0.0955
  531loPI   C3A 8489  14.680   7.093  10.008  0.2979  0.1775  0.0736
  531loPI   C4A 8490  14.633   7.167   9.617  0.0990 -0.1144 -0.0186
  531loPI   C5A 8491  14.565   7.167   9.187 -0.1982 -0.2052 -0.1926
  531loPI   C6A 8492  14.386   7.044   8.847 -0.1447 -0.1617  0.2263
  531loPI   C1B 8493  14.157   7.000  10.593 -0.4062 -0.0851 -0.2054
  531loPI   C2B 8494  14.182   7.023  10.125 -0.2071  0.1978 -0.2082
  531loPI   C3B 8495  14.136   7.029   9.720 -0.2529 -0.1265 -0.0681
  531loPI   C4B 8496  14.068   7.055   9.326  0.2410  0.1307  0.0346
  532loPI    C1 8497  11.319   4.634  11.480  0.0614  0.2254 -0.0077
  532loPI    C2 8498  11.053   4.769  11.746 -0.0464  0.1305 -0.0665
  532loPI    C3 8499  11.186   4.393  11.770 -0.1529  0.0817 -0.2210
  532loPI   PO4 8500  11.325   4.828  11.312  0.0946 -0.0403  0.1158
  532loPI   GL1 8501  11.399   4.743  10.875  0.0418  0.1031  0.2944
  532loPI   GL2 8502  11.504   4.434  10.684 -0.0956 -0.3208 -0.4317
  532loPI   C1A 8503  11.412   4.912  10.411 -0.2235 -0.2237 -0.3859
  532loPI   C2A 8504  11.288   5.080   9.970 -0.2326 -0.1077 -0.2196
  532loPI   C3A 8505  11.324   5.116   9.559 -0.2134 -0.0663 -0.0854
  532loPI   C4A 8506  11.275   5.222   9.177  0.0287  0.0475  0.2922
  532loPI   C5A 8507  11.317   5.033   8.683  0.0478  0.1763 -0.1213
  532loPI   C6A 8508  11.374   4.863   8.264  0.1154 -0.2481 -0.2651
  532loPI   C1B 8509  11.768   4.561  10.403  0.2206  0.3253 -0.2710
  532loPI   C2B 8510  11.745   4.768  10.012 -0.0966  0.3513 -0.0217
  532loPI   C3B 8511  11.783   4.772   9.533  0.2246  0.1682  0.0051
  532loPI   C4B 8512  11.602   4.841   9.092  0.0838 -0.0589 -0.1870
  533loPI    C1 8513   3.723  12.165  11.748 -0.2944 -0.0577 -0.2991
  533loPI    C2 8514   3.777  11.773  11.809  0.1744  0.0656  0.1498
  533loPI    C3 8515   3.504  11.973  12.022  0.0517  0.0172  0.0392
  533loPI   PO4 8516   3.883  12.188  11.437 -0.2734  0.1712  0.0187
  533loPI   GL1 8517   3.713  12.123  11.071 -0.0303  0.3022 -0.2634
  533loPI   GL2 8518   4.008  12.223  11.000 -0.1292  0.1545 -0.2107
  533loPI   C1A 8519   3.543  12.184  10.618 -0.0388 -0.0764  0.0819
  533loPI   C2A 8520   3.618  12.207  10.220 -0.0593 -0.0957  0.1233
  533loPI   C3A 8521   3.701  12.223   9.773  0.3057  0.0468  0.1877
  533loPI   C4A 8522   3.638  12.277   9.403  0.1448  0.3219 -0.0443
  533loPI   C5A 8523   3.632  12.140   9.054 -0.3084 -0.1947  0.3360
  533loPI   C6A 8524   3.651  11.722   8.824 -0.2886 -0.1403 -0.1346
  533loPI   C1B 8525   4.009  12.333  10.564 -0.3081 -0.4003  0.4177
  533loPI   C2B 8526   4.137  12.357  10.010  0.0332  0.0533 -0.0767
  533loPI   C3B 8527   4.179  12.407   9.560  0.2307  0.1209  0.1653
  533loPI   C4B 8528   4.166  12.472   9.137  0.1729  0.0812 -0.3654
  534loPI    C1 8529  11.547  16.556  10.543  0.0117  0.2436 -0.0613
  534loPI    C2 8530  11.238  16.429  10.763  0.0171  0.0201 -0.1798
  534loPI    C3 8531  11.562  16.579  10.942 -0.2041  0.3654 -0.0589
  534loPI   PO4 8532  11.375  16.657  10.294  0.0663  0.0942 -0.2913
  534loPI   GL1 8533  11.490  16.978  10.062  0.0496 -0.1217 -0.0896
  534loPI   GL2 8534  11.730  16.712   9.881  0.0420 -0.0254 -0.0977
  534loPI   C1A 8535  11.483  17.116   9.629  0.1339 -0.3153  0.0442
  534loPI   C2A 8536  11.418  17.331   9.204 -0.0110 -0.4071  0.0384
  534loPI   C3A 8537  11.527  17.392   8.780 -0.1758 -0.1080 -0.0220
  534loPI   C4A 8538  11.310  17.328   8.467 -0.3163 -0.0220  0.2176
  534loPI   C5A 8539  11.108  17.294   8.097  0.3096 -0.1026 -0.1336
  534loPI   C6A 8540  10.894  17.408   7.677  0.0481 -0.0740  0.0723
  534loPI   C1B 8541  11.758  16.743   9.442 -0.4295 -0.2616  0.0728
  534loPI   C2B 8542  11.745  16.962   9.017  0.1821 -0.4141  0.1760
  534loPI   C3B 8543  11.490  16.881   8.619  0.0807 -0.0300  0.1148
  534loPI   C4B 8544  11.124  16.748   8.429  0.0660  0.0901 -0.2184
  535loPI    C1 8545  15.672  15.984  11.243  0.1209 -0.0325  0.0936
  535loPI    C2 8546  15.923  16.289  11.305  0.0661  0.0455 -0.0642
  535loPI    C3 8547  15.661  16.185  11.588  0.1276  0.1046  0.0146
  535loPI   PO4 8548  15.619  16.057  10.959 -0.0595 -0.0270  0.0213
  535loPI   GL1 8549  15.622  16.275  10.561 -0.1651 -0.0202  0.1798
  535loPI   GL2 8550  15.407  15.950  10.462  0.3892 -0.0429  0.1341
  535loPI   C1A 8551  15.810  16.073  10.158 -0.0438 -0.1871 -0.0727
  535loPI   C2A 8552  15.771  15.989   9.742  0.1815 -0.1618  0.0608
  535loPI   C3A 8553  15.883  15.916   9.301 -0.2986  0.0330  0.2382
  535loPI   C4A 8554  15.880  15.948   8.889 -0.1105 -0.1011  0.1082
  535loPI   C5A 8555  15.877  16.146   8.475  0.0125  0.2386  0.0300
  535loPI   C6A 8556  16.117  15.920   8.102 -0.1211 -0.0876  0.0563
  535loPI   C1B 8557  15.313  16.264  10.026  0.2301 -0.2895 -0.1285
  535loPI   C2B 8558  15.291  16.278   9.694 -0.1645 -0.2330 -0.2095
  535loPI   C3B 8559  15.436  16.300   9.316  0.2997 -0.2922 -0.1076
  535loPI   C4B 8560  15.578  16.310   8.890  0.1239 -0.1994  0.2904
  536loPI    C1 8561   7.092  14.713  10.684  0.1584  0.0894 -0.0773
  536loPI    C2 8562   6.952  15.084  10.736 -0.1342 -0.0300  0.0075
  536loPI    C3 8563   7.113  14.886  11.044 -0.3302 -0.1146  0.0566
  536loPI   PO4 8564   6.962  14.670  10.461 -0.1394  0.2276  0.0741
  536loPI   GL1 8565   6.678  14.480  10.136 -0.0361  0.0922 -0.0929
  536loPI   GL2 8566   6.820  14.089  10.080 -0.0715 -0.3762  0.2021
  536loPI   C1A 8567   6.693  14.398   9.611 -0.1163 -0.0409  0.2921
  536loPI   C2A 8568   6.680  14.450   9.237 -0.0334  0.3275  0.1385
  536loPI   C3A 8569   6.575  14.536   8.885  0.1973  0.1917 -0.1872
  536loPI   C4A 8570   6.591  14.432   8.475 -0.1412 -0.3629  0.0514
  536loPI   C5A 8571   6.316  14.157   8.223  0.2401  0.0148 -0.1204
  536loPI   C6A 8572   6.437  13.884   7.932  0.1177 -0.1568  0.0004
  536loPI   C1B 8573   6.650  13.872   9.671  0.2309  0.0836 -0.1407
  536loPI   C2B 8574   6.428  13.899   9.284 -0.1049  0.0409  0.0035
  536loPI   C3B 8575   6.551  14.015   8.860 -0.2721  0.0014  0.0007
  536loPI   C4B 8576   6.689  13.851   8.361 -0.2025  0.0019  0.0488
  537loPI    C1 8577   5.718   0.444  11.164  0.0384 -0.1592  0.1866
  537loPI    C2 8578   5.423   0.336  11.412 -0.0935 -0.1245  0.0461
  537loPI    C3 8579   5.488   0.723  11.333 -0.2149 -0.1464 -0.1686
  537loPI   PO4 8580   5.673   0.347  10.903  0.1943 -0.3796 -0.2731
  537loPI   GL1 8581   5.818   0.002  10.611  0.0609  0.0719 -0.0358
  537loPI   GL2 8582   6.142   0.005  10.471 -0.0837 -0.0974  0.1589
  537loPI   C1A 8583   5.452   0.002  10.395  0.1090 -0.2239  0.1677
  537loPI   C2A 8584   5.404   0.093   9.981 -0.1362  0.3422 -0.0114
  537loPI   C3A 8585   5.305   0.101   9.588 -0.0253 -0.0778 -0.1608
  537loPI   C4A 8586   5.257   0.210   9.175  0.0782  0.3560  0.1849
  537loPI   C5A 8587   5.310   0.452   8.828 -0.0491 -0.1258  0.0373
  537loPI   C6A 8588   5.446   0.630   8.409 -0.2220 -0.0844  0.0938
  537loPI   C1B 8589   5.854  -0.112  10.104 -0.3306  0.2037  0.0896
  537loPI   C2B 8590   5.818  -0.051   9.724 -0.2857  0.1230 -0.0058
  537loPI   C3B 8591   5.668  -0.105   9.300 -0.1255  0.0852  0.1466
  537loPI   C4B 8592   5.648   0.036   8.916  0.0447 -0.2094 -0.2691
  538loPI    C1 8593  15.484  14.943  10.954 -0.0638 -0.0227 -0.0288
  538loPI    C2 8594  15.688  14.742  11.232  0.1328  0.1052 -0.0786
  538loPI    C3 8595  15.471  15.062  11.336  0.1818  0.1349 -0.0673
  538loPI   PO4 8596  15.604  14.794  10.700  0.1673 -0.3366  0.1342
  538loPI   GL1 8597  15.467  14.570  10.415 -0.0188  0.0125  0.0331
  538loPI   GL2 8598  15.262  14.289  10.464  0.1898  0.3206 -0.0140
  538loPI   C1A 8599  15.497  14.423   9.953 -0.1205  0.1528 -0.1280
  538loPI   C2A 8600  15.542  14.304   9.461 -0.1275  0.2810 -0.1193
  538loPI   C3A 8601  15.700  14.434   9.014  0.1993  0.0317  0.0274
  538loPI   C4A 8602  15.642  14.206   8.579 -0.1012  0.0115  0.1910
  538loPI   C5A 8603  15.311  14.396   8.237 -0.2479  0.0191  0.1435
  538loPI   C6A 8604  15.078  14.649   7.963 -0.2070 -0.1782  0.2787
  538loPI   C1B 8605  15.030  14.242  10.101 -0.2275 -0.1365 -0.0587
  538loPI   C2B 8606  15.082  14.172   9.713  0.0991  0.1708  0.1212
  538loPI   C3B 8607  15.131  14.160   9.249  0.0117  0.2765 -0.2814
  538loPI   C4B 8608  15.169  14.227   8.718 -0.1306 -0.0834  0.2101
  539loPI    C1 8609  17.124   6.918  12.015  0.0046  0.0522  0.0307
  539loPI    C2 8610  16.759   7.078  12.046 -0.0039  0.0783 -0.1855
  539loPI    C3 8611  16.821   6.698  12.155 -0.1313  0.0249 -0.2977
  539loPI   PO4 8612  17.160   6.892  11.769 -0.1223 -0.0649  0.1863
  539loPI   GL1 8613  17.127   6.982  11.294  0.2938 -0.1965  0.0403
  539loPI   GL2 8614  16.741   7.044  11.109  0.0052 -0.2055 -0.3172
  539loPI   C1A 8615  17.227   6.696  10.910  0.1950  0.1375  0.1952
  539loPI   C2A 8616  17.204   6.700  10.474 -0.4829 -0.1711 -0.3410
  539loPI   C3A 8617  17.293   6.754  10.107 -0.1293  0.2124  0.1331
  539loPI   C4A 8618  17.263   6.701   9.656 -0.1155 -0.3155  0.0443
  539loPI   C5A 8619  17.214   6.636   9.369  0.3039  0.1756 -0.0185
  539loPI   C6A 8620  17.009   6.395   9.157 -0.2919 -0.1196 -0.3891
  539loPI   C1B 8621  16.873   7.066  10.712 -0.1750 -0.0861  0.1664
  539loPI   C2B 8622  16.866   7.042  10.293 -0.0524  0.1465 -0.1206
  539loPI   C3B 8623  16.881   7.064   9.866 -0.0040 -0.2202  0.0494
  539loPI   C4B 8624  16.895   7.097   9.560  0.2069  0.0285 -0.4851
  540loPI    C1 8625  11.478   6.287  11.506 -0.1127  0.1259 -0.0621
  540loPI    C2 8626  11.789   6.254  11.756 -0.0751 -0.2983 -0.1573
  540loPI    C3 8627  11.433   6.371  11.895  0.0834  0.0331 -0.0178
  540loPI   PO4 8628  11.602   6.318  11.281 -0.0699  0.1788 -0.2015
  540loPI   GL1 8629  11.549   6.236  10.785 -0.1024 -0.0219 -0.1137
  540loPI   GL2 8630  11.268   6.214  10.764 -0.0679 -0.0803  0.2534
  540loPI   C1A 8631  11.943   6.177  10.505  0.2843  0.1711 -0.2463
  540loPI   C2A 8632  11.900   6.186  10.060  0.2239  0.4652 -0.0251
  540loPI   C3A 8633  11.840   6.247   9.682  0.1250  0.1076 -0.0579
  540loPI   C4A 8634  11.932   6.287   9.259 -0.1704 -0.3027 -0.4918
  540loPI   C5A 8635  11.834   6.442   8.774 -0.0180 -0.0253 -0.1963
  540loPI   C6A 8636  12.094   6.522   8.466  0.2682  0.2403  0.3190
  540loPI   C1B 8637  11.422   5.966  10.363  0.1506 -0.0158  0.2571
  540loPI   C2B 8638  11.406   6.140   9.952  0.2430  0.2118  0.0712
  540loPI   C3B 8639  11.401   6.112   9.435  0.0352 -0.1370  0.2625
  540loPI   C4B 8640  11.460   6.189   9.033 -0.1309 -0.2060 -0.2682
  541loPI    C1 8641   3.379   0.991  11.542  0.0810 -0.0777 -0.1683
  541loPI    C2 8642   3.509   0.653  11.712  0.2361  0.0142 -0.1029
  541loPI    C3 8643   3.117   0.723  11.681  0.2053 -0.0706  0.0856
  541loPI   PO4 8644   3.423   1.057  11.316 -0.5506  0.3424 -0.1813
  541loPI   GL1 8645   3.421   1.138  10.925  0.0548  0.0099 -0.2259
  541loPI   GL2 8646   3.784   1.120  10.883  0.0172  0.1862 -0.2580
  541loPI   C1A 8647   3.234   1.172  10.534 -0.0576 -0.2299 -0.0595
  541loPI   C2A 8648   3.246   1.295  10.107  0.1470 -0.2845  0.1278
  541loPI   C3A 8649   3.241   1.319   9.631 -0.0969  0.0493  0.1693
  541loPI   C4A 8650   3.186   1.420   9.154 -0.1465  0.0330  0.0786
  541loPI   C5A 8651   3.422   1.424   8.840 -0.0293 -0.1824  0.2545
  541loPI   C6A 8652   3.373   1.577   8.370 -0.0368 -0.0714 -0.0035
  541loPI   C1B 8653   4.080   1.083  10.504  0.2676  0.0449 -0.3619
  541loPI   C2B 8654   4.189   1.208  10.118  0.1492 -0.0169  0.0450
  541loPI   C3B 8655   4.199   1.285   9.730 -0.0233 -0.4852 -0.2298
  541loPI   C4B 8656   4.081   1.203   9.353  0.0228 -0.0752  0.0949
  542loPI    C1 8657   7.552   1.087  10.534 -0.1047  0.0624  0.0903
  542loPI    C2 8658   7.736   0.758  10.402 -0.1179  0.0581  0.0824
  542loPI    C3 8659   7.654   0.798  10.791 -0.2536 -0.0166  0.0620
  542loPI   PO4 8660   7.427   1.151  10.290  0.2628  0.3050  0.3309
  542loPI   GL1 8661   7.328   1.089   9.883  0.1682  0.0204 -0.0939
  542loPI   GL2 8662   7.370   0.751   9.926 -0.0308  0.0479  0.1002
  542loPI   C1A 8663   7.518   1.270   9.607  0.0186 -0.0863  0.2682
  542loPI   C2A 8664   7.511   1.350   9.202 -0.3947 -0.0195 -0.0058
  542loPI   C3A 8665   7.599   1.633   8.830  0.1603  0.1188  0.0223
  542loPI   C4A 8666   7.523   1.583   8.368  0.0109 -0.2603  0.1531
  542loPI   C5A 8667   7.028   1.638   8.208  0.0523 -0.0511  0.0557
  542loPI   C6A 8668   6.853   2.128   8.092  0.0535 -0.1172 -0.0901
  542loPI   C1B 8669   7.286   0.775   9.464  0.0283 -0.1874 -0.0967
  542loPI   C2B 8670   7.245   0.921   9.147  0.0537  0.0351  0.1014
  542loPI   C3B 8671   7.382   1.073   8.786 -0.3040  0.1069 -0.0804
  542loPI   C4B 8672   7.148   1.088   8.382  0.0218 -0.0425  0.0563
  543loPI    C1 8673   0.732   3.601  11.529 -0.1213  0.0877  0.0169
  543loPI    C2 8674   0.605   3.459  11.177 -0.0595 -0.1645  0.0939
  543loPI    C3 8675   0.411   3.363  11.513 -0.0223 -0.0565  0.1471
  543loPI   PO4 8676   1.013   3.613  11.404  0.2217  0.1732 -0.4891
  543loPI   GL1 8677   1.047   3.889  11.131  0.0137 -0.2133 -0.1467
  543loPI   GL2 8678   1.347   4.042  11.182 -0.0010 -0.2280  0.0939
  543loPI   C1A 8679   1.056   3.911  10.782 -0.0761 -0.0516 -0.0479
  543loPI   C2A 8680   1.016   3.904  10.397 -0.2223  0.2917  0.0986
  543loPI   C3A 8681   0.940   3.910  10.011 -0.0982 -0.2497  0.2002
  543loPI   C4A 8682   1.000   3.789   9.480  0.1925 -0.0328  0.0916
  543loPI   C5A 8683   1.108   3.953   9.105  0.1818 -0.2031 -0.4342
  543loPI   C6A 8684   0.918   4.094   8.771  0.0757 -0.0760 -0.1988
  543loPI   C1B 8685   1.494   4.097  10.768  0.1085 -0.3508  0.0774
  543loPI   C2B 8686   1.489   4.087  10.247  0.1791  0.0396 -0.3988
  543loPI   C3B 8687   1.478   3.993   9.849  0.0771 -0.0256  0.0339
  543loPI   C4B 8688   1.500   3.972   9.417 -0.1486 -0.2334 -0.0052
  544loPI    C1 8689   5.480   2.773  11.517 -0.0804 -0.1864  0.2246
  544loPI    C2 8690   5.517   2.377  11.560 -0.0499 -0.1818  0.2399
  544loPI    C3 8691   5.368   2.599  11.859 -0.0828 -0.1837  0.2252
  544loPI   PO4 8692   5.389   2.802  11.238 -0.0292  0.0768  0.3710
  544loPI   GL1 8693   5.188   2.755  10.824 -0.0078  0.0988 -0.0172
  544loPI   GL2 8694   4.938   2.845  10.734 -0.2338 -0.2055  0.1762
  544loPI   C1A 8695   5.314   2.643  10.476  0.1068 -0.1524 -0.0426
  544loPI   C2A 8696   5.292   2.574  10.010  0.5057  0.0673 -0.2310
  544loPI   C3A 8697   5.278   2.622   9.589 -0.1245 -0.0283  0.2493
  544loPI   C4A 8698   5.284   2.790   9.134  0.0937 -0.1504 -0.0916
  544loPI   C5A 8699   5.298   2.871   8.738 -0.3349  0.4202 -0.2136
  544loPI   C6A 8700   5.016   3.149   8.514 -0.0176 -0.2167 -0.2420
  544loPI   C1B 8701   4.944   2.866  10.285  0.1853  0.1766  0.2268
  544loPI   C2B 8702   4.904   2.879   9.855 -0.2462 -0.2169 -0.3805
  544loPI   C3B 8703   4.931   3.023   9.436 -0.1071  0.0654  0.2881
  544loPI   C4B 8704   4.841   3.168   9.006  0.0392  0.0153 -0.1973
  545loPI    C1 8705   1.113   1.329  11.100  0.2093 -0.3100  0.1298
  545loPI    C2 8706   1.222   1.247  11.476  0.0136 -0.1208  0.2303
  545loPI    C3 8707   0.843   1.345  11.394  0.1154  0.1178  0.0283
  545loPI   PO4 8708   1.256   1.420  10.964  0.3205  0.0845 -0.0094
  545loPI   GL1 8709   1.418   1.549  10.602 -0.0698 -0.0711 -0.0146
  545loPI   GL2 8710   1.385   1.202  10.537 -0.1993 -0.3015  0.0280
  545loPI   C1A 8711   1.538   1.702  10.290 -0.1530  0.0097 -0.1334
  545loPI   C2A 8712   1.524   1.648   9.914 -0.0396 -0.3655  0.0397
  545loPI   C3A 8713   1.401   1.732   9.551 -0.1846  0.0965  0.0473
  545loPI   C4A 8714   1.494   1.532   9.215  0.1282 -0.1689  0.0804
  545loPI   C5A 8715   1.620   1.698   8.865 -0.0680 -0.2353 -0.0579
  545loPI   C6A 8716   1.441   1.911   8.592 -0.0791  0.0941  0.1034
  545loPI   C1B 8717   1.325   1.081  10.089  0.1103 -0.1911  0.1422
  545loPI   C2B 8718   1.288   1.136   9.722  0.1245  0.2936 -0.0658
  545loPI   C3B 8719   1.372   1.021   9.376 -0.2356  0.0171  0.1044
  545loPI   C4B 8720   1.312   1.176   8.958 -0.3918  0.0720 -0.1908
  546loPI    C1 8721  12.695  13.898  10.794 -0.1858 -0.1399  0.0380
  546loPI    C2 8722  12.779  13.784  11.168  0.0727  0.1134  0.0605
  546loPI    C3 8723  12.481  14.041  11.100  0.0390  0.0833  0.0944
  546loPI   PO4 8724  12.635  13.675  10.661  0.3922 -0.0206 -0.0036
  546loPI   GL1 8725  12.774  13.534  10.255 -0.0576 -0.1748 -0.1073
  546loPI   GL2 8726  12.681  13.321  10.169  0.0843 -0.3040  0.0134
  546loPI   C1A 8727  12.864  13.667   9.860  0.3348 -0.0437 -0.0295
  546loPI   C2A 8728  12.898  13.727   9.460  0.2026  0.4055 -0.2112
  546loPI   C3A 8729  12.706  13.641   9.037 -0.0353 -0.0323 -0.0070
  546loPI   C4A 8730  12.825  13.944   8.650 -0.0019 -0.1897  0.1342
  546loPI   C5A 8731  13.053  14.267   8.497 -0.1970 -0.2045  0.1076
  546loPI   C6A 8732  13.389  14.356   8.702 -0.0555 -0.0745 -0.0790
  546loPI   C1B 8733  12.771  13.183   9.664 -0.0724  0.1891 -0.2091
  546loPI   C2B 8734  12.800  13.230   9.294 -0.0602  0.3132 -0.2202
  546loPI   C3B 8735  12.777  13.110   8.915 -0.0525 -0.2621  0.0572
  546loPI   C4B 8736  12.677  12.887   8.556  0.1677  0.2660 -0.0120
  547loPI    C1 8737   0.436   5.293  11.833  0.1805 -0.0774 -0.0310
  547loPI    C2 8738   0.834   5.266  11.805  0.1739 -0.0057 -0.2060
  547loPI    C3 8739   0.658   5.254  12.164  0.3234 -0.1663 -0.1362
  547loPI   PO4 8740   0.402   5.223  11.539 -0.0843  0.2593  0.2023
  547loPI   GL1 8741   0.459   5.069  11.115 -0.1927  0.2401  0.0872
  547loPI   GL2 8742   0.698   5.127  10.929 -0.1692 -0.0411  0.0925
  547loPI   C1A 8743   0.283   5.400  10.750  0.4114  0.0090 -0.2808
  547loPI   C2A 8744   0.355   5.477  10.343 -0.0858 -0.1212 -0.0829
  547loPI   C3A 8745   0.367   5.552   9.843  0.0202 -0.0077  0.1519
  547loPI   C4A 8746   0.407   5.529   9.396  0.0010 -0.0579 -0.2197
  547loPI   C5A 8747   0.503   5.723   8.960  0.2600 -0.1112  0.0805
  547loPI   C6A 8748   0.582   5.901   8.550 -0.2514 -0.2019 -0.0242
  547loPI   C1B 8749   0.769   5.252  10.428  0.0167 -0.3364  0.1199
  547loPI   C2B 8750   0.711   5.188  10.003 -0.3679 -0.0510  0.0461
  547loPI   C3B 8751   0.749   5.148   9.484 -0.2143  0.0010 -0.0788
  547loPI   C4B 8752   0.852   5.467   9.124  0.0885 -0.2207  0.1362
  548loPI    C1 8753   0.758   2.695  11.583 -0.1514  0.2811  0.2544
  548loPI    C2 8754   1.114   2.605  11.741 -0.0795  0.1344  0.0145
  548loPI    C3 8755   0.805   2.357  11.792 -0.0971  0.1652  0.0584
  548loPI   PO4 8756   0.805   2.935  11.476  0.0804  0.3162 -0.2822
  548loPI   GL1 8757   0.859   3.065  11.058 -0.1910 -0.0265  0.0121
  548loPI   GL2 8758   0.824   2.839  10.810 -0.3978  0.2744 -0.0199
  548loPI   C1A 8759   0.891   3.284  10.695 -0.0748  0.4921 -0.0615
  548loPI   C2A 8760   0.872   3.409  10.260  0.2542 -0.1262 -0.0232
  548loPI   C3A 8761   0.886   3.378   9.843  0.2443 -0.2183  0.0645
  548loPI   C4A 8762   0.853   3.290   9.383 -0.1500 -0.1155 -0.2693
  548loPI   C5A 8763   0.984   3.379   8.988 -0.2562  0.1654 -0.2557
  548loPI   C6A 8764   1.167   3.683   8.663 -0.4237 -0.1912  0.0383
  548loPI   C1B 8765   0.882   2.887  10.416 -0.4161  0.1087  0.2398
  548loPI   C2B 8766   0.747   2.907  10.080 -0.2989  0.1694  0.0939
  548loPI   C3B 8767   0.818   2.817   9.634 -0.1134 -0.0421 -0.2345
  548loPI   C4B 8768   0.826   2.756   9.379 -0.0105  0.2238  0.3340
  549loPI    C1 8769   1.052   9.129  11.522 -0.3371  0.0239 -0.0732
  549loPI    C2 8770   0.810   9.352  11.750 -0.0736  0.2482 -0.0065
  549loPI    C3 8771   1.124   9.166  11.914 -0.1566  0.0174 -0.1048
  549loPI   PO4 8772   1.073   9.321  11.305 -0.0073 -0.2386 -0.0689
  549loPI   GL1 8773   0.930   9.259  10.959 -0.1758  0.2349  0.0457
  549loPI   GL2 8774   1.222   9.065  10.896  0.3294 -0.0066  0.0369
  549loPI   C1A 8775   0.948   9.169  10.516 -0.2456  0.2622  0.1397
  549loPI   C2A 8776   0.864   9.202  10.046  0.2566  0.2292  0.0124
  549loPI   C3A 8777   0.807   9.179   9.582  0.2075  0.3067  0.0335
  549loPI   C4A 8778   0.854   9.177   9.113  0.1408 -0.1971 -0.1951
  549loPI   C5A 8779   0.692   8.921   8.835  0.1277 -0.1224  0.0306
  549loPI   C6A 8780   0.529   8.545   8.691  0.1627  0.3444  0.0334
  549loPI   C1B 8781   1.388   9.010  10.422 -0.0240 -0.0236 -0.2546
  549loPI   C2B 8782   1.268   8.892   9.952 -0.1803  0.0501  0.1191
  549loPI   C3B 8783   1.296   8.947   9.473  0.1129  0.1486 -0.2892
  549loPI   C4B 8784   1.128   8.794   9.102 -0.0766  0.0383 -0.3726
  550loPI    C1 8785  10.764   8.687  11.314 -0.0205  0.2374 -0.2344
  550loPI    C2 8786  10.460   8.600  11.558 -0.0126  0.3216 -0.1942
  550loPI    C3 8787  10.836   8.530  11.675 -0.0123  0.2968 -0.2101
  550loPI   PO4 8788  10.725   8.573  11.114  0.0685  0.1327  0.0238
  550loPI   GL1 8789  10.526   8.488  10.810 -0.3371 -0.1460  0.3299
  550loPI   GL2 8790  10.292   8.184  10.913  0.2217 -0.0116  0.0294
  550loPI   C1A 8791  10.642   8.479  10.382 -0.2299 -0.1388 -0.4026
  550loPI   C2A 8792  10.687   8.389   9.882 -0.0701  0.1415  0.1831
  550loPI   C3A 8793  10.710   8.407   9.411 -0.0363  0.4077 -0.1458
  550loPI   C4A 8794  10.711   8.368   8.985  0.2173 -0.1856  0.2265
  550loPI   C5A 8795  10.491   8.283   8.575  0.0176 -0.0449  0.2503
  550loPI   C6A 8796  10.057   8.300   8.439  0.4053  0.3717  0.1066
  550loPI   C1B 8797  10.236   8.182  10.461  0.0286 -0.1339 -0.2593
  550loPI   C2B 8798  10.286   8.118   9.991 -0.0485 -0.0043 -0.0701
  550loPI   C3B 8799  10.233   8.198   9.606  0.2116  0.1510  0.1655
  550loPI   C4B 8800  10.228   8.177   9.107 -0.3380 -0.1148 -0.1657
  551loPI    C1 8801   7.534  12.494  11.156  0.1286  0.1450  0.1239
  551loPI    C2 8802   7.892  12.547  11.327  0.1574 -0.1783  0.1707
  551loPI    C3 8803   7.635  12.281  11.480  0.1086 -0.3345 -0.1756
  551loPI   PO4 8804   7.614  12.418  10.885 -0.0671  0.0272 -0.0404
  551loPI   GL1 8805   7.490  11.994  10.627  0.2341 -0.0257  0.1793
  551loPI   GL2 8806   7.666  12.076  10.363 -0.0483 -0.1981  0.1340
  551loPI   C1A 8807   7.247  11.835  10.265  0.0060 -0.1564 -0.0166
  551loPI   C2A 8808   7.127  11.748   9.697  0.1601  0.1340 -0.1328
  551loPI   C3A 8809   7.151  11.806   9.227  0.0370 -0.0043 -0.0615
  551loPI   C4A 8810   7.048  11.648   8.818  0.1405  0.3529  0.0365
  551loPI   C5A 8811   7.061  11.522   8.408  0.1803 -0.1496 -0.0820
  551loPI   C6A 8812   7.099  11.206   8.101  0.1159  0.0188  0.0066
  551loPI   C1B 8813   7.624  11.937   9.913 -0.1688 -0.2268  0.0987
  551loPI   C2B 8814   7.630  11.873   9.470 -0.0023  0.0821  0.3724
  551loPI   C3B 8815   7.656  11.927   8.994  0.0284  0.0426  0.1619
  551loPI   C4B 8816   7.560  11.732   8.614 -0.1178 -0.3044  0.2102
  552loPI    C1 8817   6.832  14.281  10.745 -0.1231 -0.2002 -0.2214
  552loPI    C2 8818   6.714  14.026  11.030 -0.1902 -0.1860 -0.2362
  552loPI    C3 8819   6.854  14.388  11.130 -0.3547 -0.1239 -0.2276
  552loPI   PO4 8820   6.708  14.084  10.538  0.1358  0.2423 -0.2809
  552loPI   GL1 8821   6.417  13.886  10.358  0.3039 -0.2091  0.0001
  552loPI   GL2 8822   6.268  14.158  10.297 -0.0540  0.0223 -0.1672
  552loPI   C1A 8823   6.208  13.627   9.978 -0.0420 -0.1562 -0.0098
  552loPI   C2A 8824   6.046  13.685   9.478 -0.3557 -0.0483 -0.0123
  552loPI   C3A 8825   5.991  13.751   9.082 -0.4338  0.3624  0.2746
  552loPI   C4A 8826   6.137  13.872   8.626  0.0368  0.2013  0.0511
  552loPI   C5A 8827   6.055  13.733   8.258 -0.0628 -0.2830 -0.1064
  552loPI   C6A 8828   6.012  13.497   7.899  0.1594 -0.1817 -0.0533
  552loPI   C1B 8829   6.369  14.157   9.935  0.1448 -0.0884  0.2326
  552loPI   C2B 8830   6.168  14.237   9.555 -0.0896  0.2402  0.1080
  552loPI   C3B 8831   6.191  14.269   9.105  0.0951  0.0399 -0.2176
  552loPI   C4B 8832   6.146  14.345   8.676 -0.2842 -0.2102  0.0406
  553loPI    C1 8833   7.302  11.419  11.448  0.0852 -0.1876  0.3730
  553loPI    C2 8834   6.947  11.248  11.381 -0.0239  0.0867  0.2401
  553loPI    C3 8835   7.208  11.075  11.629 -0.0592 -0.3645 -0.0277
  553loPI   PO4 8836   7.359  11.538  11.202 -0.1291  0.2065  0.2964
  553loPI   GL1 8837   7.187  11.324  10.807 -0.1025 -0.0301  0.0682
  553loPI   GL2 8838   6.886  11.152  10.848 -0.0466  0.1625 -0.2789
  553loPI   C1A 8839   7.132  11.332  10.336 -0.4038  0.2061  0.0470
  553loPI   C2A 8840   7.094  11.233   9.909  0.1136 -0.2867  0.1396
  553loPI   C3A 8841   7.082  11.279   9.507  0.0526 -0.0714  0.1724
  553loPI   C4A 8842   7.047  11.223   9.045 -0.0418  0.2174  0.0402
  553loPI   C5A 8843   6.982  11.095   8.687 -0.1135  0.1887 -0.1840
  553loPI   C6A 8844   6.774  10.845   8.338 -0.0278 -0.1254 -0.1440
  553loPI   C1B 8845   6.700  11.109  10.416  0.2124  0.1376 -0.3825
  553loPI   C2B 8846   6.670  11.022  10.002 -0.0759 -0.0378 -0.4023
  553loPI   C3B 8847   6.648  11.086   9.631 -0.0842 -0.0682  0.0187
  553loPI   C4B 8848   6.556  11.045   9.247 -0.2215 -0.0368  0.1626
  554loPI    C1 8849   9.673  10.542  11.508  0.0875  0.1440 -0.1020
  554loPI    C2 8850   9.712  10.144  11.528 -0.1302  0.1176 -0.1774
  554loPI    C3 8851   9.986  10.363  11.335 -0.0358 -0.0001 -0.1781
  554loPI   PO4 8852   9.449  10.580  11.380  0.1708  0.5024  0.0009
  554loPI   GL1 8853   9.457  10.761  10.911  0.1157  0.0335  0.1061
  554loPI   GL2 8854   9.743  10.619  10.759 -0.2086 -0.2284 -0.1230
  554loPI   C1A 8855   9.402  10.813  10.545 -0.0021  0.0889 -0.2505
  554loPI   C2A 8856   9.240  10.834  10.192 -0.2832  0.2881 -0.1161
  554loPI   C3A 8857   9.252  10.692   9.807 -0.1651  0.2935 -0.0171
  554loPI   C4A 8858   9.206  10.628   9.434  0.1170  0.1482  0.2900
  554loPI   C5A 8859   9.261  10.534   8.965 -0.0763  0.2403  0.1099
  554loPI   C6A 8860   9.391  10.335   8.577  0.1200  0.1008 -0.1238
  554loPI   C1B 8861   9.731  10.486  10.354 -0.1246 -0.0150  0.3800
  554loPI   C2B 8862   9.693  10.376   9.909  0.0157  0.0160 -0.2090
  554loPI   C3B 8863   9.692  10.384   9.528 -0.0543 -0.2543 -0.1268
  554loPI   C4B 8864   9.550  10.250   9.245 -0.3106 -0.1048  0.0159
  555POPI    C1 8865   8.538   1.187  10.481  0.2398 -0.1862 -0.0263
  555POPI    C2 8866   8.670   1.003  10.811  0.2167  0.2264  0.2206
  555POPI    C3 8867   8.412   1.307  10.841 -0.2988 -0.1469 -0.2199
  555POPI   PO4 8868   8.757   1.235  10.370 -0.2115  0.0031  0.1164
  555POPI   GL1 8869   8.809   1.489  10.003  0.1257  0.0690  0.0613
  555POPI   GL2 8870   8.473   1.414   9.997  0.4405 -0.2287  0.2242
  555POPI   C1A 8871   8.975   1.569   9.625 -0.1006 -0.0751  0.1628
  555POPI   D2A 8872   8.917   1.761   9.237  0.2538 -0.2394 -0.0686
  555POPI   C3A 8873   8.885   1.661   8.830 -0.0789  0.2951 -0.0861
  555POPI   C4A 8874   8.903   1.614   8.383 -0.2235 -0.0783 -0.1020
  555POPI   C1B 8875   8.450   1.453   9.546  0.1179 -0.0891 -0.0889
  555POPI   C2B 8876   8.426   1.458   9.125 -0.1980 -0.0130 -0.0882
  555POPI   C3B 8877   8.384   1.396   8.653  0.3206 -0.0702  0.3567
  555POPI   C4B 8878   8.534   1.354   8.292  0.2813  0.0752  0.1819
  556POPI    C1 8879  16.913   0.147  11.290  0.1559 -0.0897 -0.0598
  556POPI    C2 8880  16.961   0.543  11.272 -0.0568 -0.0648 -0.1111
  556POPI    C3 8881  16.994   0.354  11.622 -0.2368  0.0377 -0.0373
  556POPI   PO4 8882  16.718   0.141  11.066 -0.2765 -0.0069  0.0290
  556POPI   GL1 8883  16.810   0.039  10.657 -0.2797 -0.2372  0.0292
  556POPI   GL2 8884  16.549   0.142  10.588  0.1533 -0.2042 -0.1436
  556POPI   C1A 8885  16.892  -0.172  10.297 -0.0428  0.0473 -0.0409
  556POPI   D2A 8886  17.083  -0.311   9.986  0.1040  0.0183 -0.3538
  556POPI   C3A 8887  16.981  -0.185   9.503  0.0349  0.2631  0.2474
  556POPI   C4A 8888  16.986  -0.292   9.029  0.0615  0.1403  0.1802
  556POPI   C1B 8889  16.498   0.149  10.140 -0.3101  0.1274  0.1993
  556POPI   C2B 8890  16.442   0.220   9.711 -0.4465  0.1068 -0.0364
  556POPI   C3B 8891  16.574   0.121   9.304  0.1239  0.3059 -0.1399
  556POPI   C4B 8892  16.661   0.042   8.821  0.0101  0.1831 -0.1090
  557POPI    C1 8893   9.392  14.495  10.535 -0.0081  0.0376  0.0980
  557POPI    C2 8894   9.696  14.281  10.387 -0.0626  0.2004 -0.2607
  557POPI    C3 8895   9.618  14.273  10.779  0.3160  0.0483 -0.1842
  557POPI   PO4 8896   9.290  14.606  10.326 -0.3068  0.2034  0.1400
  557POPI   GL1 8897   9.332  14.451   9.971 -0.1093 -0.3382  0.4425
  557POPI   GL2 8898   9.627  14.422   9.821  0.1777 -0.1082 -0.1850
  557POPI   C1A 8899   9.117  14.511   9.579  0.1195  0.4488  0.1784
  557POPI   D2A 8900   9.014  14.359   9.194 -0.1519  0.0353  0.0469
  557POPI   C3A 8901   9.277  14.150   8.828 -0.0018  0.2374  0.0590
  557POPI   C4A 8902   9.320  14.035   8.414 -0.1687 -0.0936  0.0700
  557POPI   C1B 8903   9.598  14.420   9.380  0.1910  0.2887 -0.0082
  557POPI   C2B 8904   9.669  14.298   9.039  0.2942  0.1103 -0.2836
  557POPI   C3B 8905   9.768  14.188   8.702  0.0841  0.0944  0.1556
  557POPI   C4B 8906   9.787  14.208   8.214  0.2712  0.1007  0.0875
  558POPI    C1 8907  12.028   8.358  11.536  0.1984 -0.0388  0.0023
  558POPI    C2 8908  12.123   8.477  11.906 -0.1424  0.1663  0.0282
  558POPI    C3 8909  11.838   8.669  11.702  0.0497  0.0614 -0.3473
  558POPI   PO4 8910  12.227   8.386  11.428  0.2024 -0.0176 -0.0483
  558POPI   GL1 8911  12.125   8.354  10.972  0.1368 -0.1960  0.0850
  558POPI   GL2 8912  12.026   8.421  10.686 -0.1858 -0.1308  0.2270
  558POPI   C1A 8913  12.434   8.113  10.673 -0.0259  0.0712 -0.1577
  558POPI   D2A 8914  12.554   8.157  10.263  0.0470  0.2997 -0.0741
  558POPI   C3A 8915  12.505   8.189   9.827 -0.2406 -0.2030 -0.0440
  558POPI   C4A 8916  12.457   8.206   9.419  0.1652  0.2260  0.1088
  558POPI   C1B 8917  12.150   8.406  10.404 -0.1977  0.0249  0.2277
  558POPI   C2B 8918  12.156   8.526  10.091  0.2299 -0.0868  0.0656
  558POPI   C3B 8919  12.071   8.469   9.613  0.0558  0.3002  0.0340
  558POPI   C4B 8920  12.035   8.432   9.159  0.2570 -0.1889  0.1503
  559POPI    C1 8921   6.150   8.811  11.005 -0.1217  0.0592  0.1598
  559POPI    C2 8922   6.544   8.878  11.009 -0.1184  0.0434  0.1064
  559POPI    C3 8923   6.357   8.765  11.344 -0.0833  0.0833  0.1396
  559POPI   PO4 8924   6.064   8.674  10.882 -0.1793 -0.0495  0.1559
  559POPI   GL1 8925   5.888   8.599  10.516 -0.0726  0.0605 -0.1157
  559POPI   GL2 8926   5.610   8.498  10.612 -0.2097  0.2326  0.2051
  559POPI   C1A 8927   5.866   8.734  10.140 -0.4362  0.4114  0.0034
  559POPI   D2A 8928   5.880   8.637   9.764 -0.0482 -0.1541 -0.0177
  559POPI   C3A 8929   5.835   8.731   9.363  0.2479 -0.0466 -0.1911
  559POPI   C4A 8930   5.834   8.715   8.907 -0.0453 -0.1558  0.0008
  559POPI   C1B 8931   5.373   8.523  10.310 -0.0129 -0.0112 -0.2024
  559POPI   C2B 8932   5.336   8.534   9.853  0.1683  0.1676  0.4980
  559POPI   C3B 8933   5.368   8.562   9.385 -0.1006 -0.0977  0.0219
  559POPI   C4B 8934   5.288   8.575   8.990 -0.1617  0.2037  0.1862
  560POPI    C1 8935   1.788  15.463  10.971  0.0328  0.0289 -0.1597
  560POPI    C2 8936   1.996  15.148  11.102  0.0253  0.0872 -0.0046
  560POPI    C3 8937   1.857  15.417  11.363 -0.1711  0.0944 -0.1146
  560POPI   PO4 8938   1.982  15.592  10.778 -0.0778  0.0333 -0.2452
  560POPI   GL1 8939   2.362  15.452  10.604  0.0852 -0.0428  0.1611
  560POPI   GL2 8940   2.632  15.615  10.790 -0.0465  0.1528 -0.0837
  560POPI   C1A 8941   2.220  15.602  10.183 -0.1138  0.1223  0.2426
  560POPI   D2A 8942   2.381  15.572   9.854  0.1909  0.3482 -0.4715
  560POPI   C3A 8943   2.239  15.539   9.431 -0.0888  0.3268 -0.2075
  560POPI   C4A 8944   2.202  15.651   9.068  0.1242 -0.1077  0.3939
  560POPI   C1B 8945   2.637  15.837  10.333 -0.2392 -0.0008 -0.1921
  560POPI   C2B 8946   2.857  15.753   9.976 -0.0894  0.0263  0.2601
  560POPI   C3B 8947   2.793  15.816   9.541  0.3388 -0.2190  0.0841
  560POPI   C4B 8948   2.669  15.731   9.210 -0.3226  0.0552  0.0359
  561POPI    C1 8949   5.004  14.077  10.977 -0.1250 -0.0673  0.2156
  561POPI    C2 8950   5.143  13.719  10.866  0.2021  0.0711  0.1680
  561POPI    C3 8951   5.339  13.933  11.142  0.1736  0.3404 -0.0173
  561POPI   PO4 8952   4.868  14.124  10.798 -0.0421  0.1204  0.0995
  561POPI   GL1 8953   4.798  14.083  10.372  0.1604 -0.1572 -0.0547
  561POPI   GL2 8954   4.945  13.857  10.355  0.0212 -0.0937  0.3492
  561POPI   C1A 8955   4.731  14.237   9.965 -0.0258 -0.2020 -0.0409
  561POPI   D2A 8956   4.805  14.195   9.610  0.2484 -0.0519 -0.0304
  561POPI   C3A 8957   4.832  14.297   9.183 -0.3707  0.3045  0.0382
  561POPI   C4A 8958   4.806  14.254   8.684  0.0716  0.2027 -0.0291
  561POPI   C1B 8959   4.676  13.604  10.107  0.0542  0.0795  0.0676
  561POPI   C2B 8960   4.760  13.701   9.721 -0.2436  0.0704  0.0280
  561POPI   C3B 8961   4.714  13.770   9.283  0.0813  0.1206 -0.1930
  561POPI   C4B 8962   4.741  13.761   8.791 -0.0026  0.1337  0.2975
  562POPI    C1 8963   6.178   8.301  11.303 -0.3535  0.0308 -0.2744
  562POPI    C2 8964   5.888   8.554  11.410 -0.2848 -0.0380  0.0895
  562POPI    C3 8965   6.144   8.417  11.684  0.0496 -0.0351 -0.2141
  562POPI   PO4 8966   6.145   8.110  11.130 -0.0615  0.1232  0.0493
  562POPI   GL1 8967   5.985   8.167  10.672 -0.1276  0.2141  0.0625
  562POPI   GL2 8968   6.277   8.323  10.495  0.0591 -0.0665  0.1255
  562POPI   C1A 8969   5.809   8.102  10.321 -0.0024  0.2215  0.1021
  562POPI   D2A 8970   5.630   8.184   9.991 -0.2773 -0.0751 -0.0619
  562POPI   C3A 8971   5.701   8.172   9.499 -0.1526  0.2466  0.0445
  562POPI   C4A 8972   5.604   8.204   9.114  0.1146 -0.3495 -0.1001
  562POPI   C1B 8973   6.272   8.397  10.060  0.0475 -0.0465  0.1236
  562POPI   C2B 8974   6.220   8.319   9.569 -0.1492 -0.0132 -0.2367
  562POPI   C3B 8975   6.170   8.406   9.186 -0.0532  0.0940  0.4887
  562POPI   C4B 8976   6.111   8.321   8.846 -0.1940 -0.0324  0.0986
  563POPI    C1 8977   9.875   3.699  11.115  0.1309  0.0810 -0.1103
  563POPI    C2 8978   9.892   3.302  11.161  0.0802  0.0577 -0.2833
  563POPI    C3 8979  10.203   3.529  11.268  0.0359 -0.0089 -0.0038
  563POPI   PO4 8980   9.673   3.762  10.931  0.2013  0.2731 -0.0586
  563POPI   GL1 8981   9.825   3.953  10.563 -0.1885  0.1331  0.2901
  563POPI   GL2 8982   9.623   4.126  10.350 -0.1077  0.0828  0.1717
  563POPI   C1A 8983  10.104   3.903  10.150  0.2036  0.2872  0.0977
  563POPI   D2A 8984  10.145   3.643   9.829  0.1490 -0.0650  0.1091
  563POPI   C3A 8985  10.222   3.716   9.428  0.1180 -0.1156  0.2714
  563POPI   C4A 8986  10.050   3.628   9.071  0.3769 -0.2668  0.0277
  563POPI   C1B 8987   9.561   4.240   9.921 -0.0167  0.0623  0.1444
  563POPI   C2B 8988   9.441   4.388   9.525 -0.1159 -0.0027 -0.3690
  563POPI   C3B 8989   9.326   4.423   9.055 -0.0782 -0.0509 -0.1644
  563POPI   C4B 8990   9.325   4.447   8.646 -0.2831 -0.1518  0.3655
  564POPI    C1 8991  12.380   2.115  10.807  0.0995  0.0401  0.2155
  564POPI    C2 8992  12.223   2.410  11.027 -0.2287  0.0420 -0.0141
  564POPI    C3 8993  12.145   2.028  11.118  0.0964  0.0247  0.2088
  564POPI   PO4 8994  12.276   2.214  10.562 -0.3380 -0.0513  0.0772
  564POPI   GL1 8995  12.341   2.497  10.284 -0.1596  0.1881 -0.1694
  564POPI   GL2 8996  12.645   2.616  10.307 -0.1432  0.2959  0.0174
  564POPI   C1A 8997  12.465   2.487   9.816  0.2219  0.1371  0.3140
  564POPI   D2A 8998  12.545   2.398   9.426 -0.0312 -0.1952 -0.0189
  564POPI   C3A 8999  12.466   2.385   9.033  0.1739 -0.3186 -0.2301
  564POPI   C4A 9000  12.271   2.662   8.670 -0.0193 -0.0504 -0.0538
  564POPI   C1B 9001  12.952   2.581   9.904  0.2640 -0.1404 -0.0962
  564POPI   C2B 9002  12.919   2.772   9.461 -0.0558  0.0011  0.3020
  564POPI   C3B 9003  12.795   2.716   8.982 -0.0608  0.1095 -0.0032
  564POPI   C4B 9004  12.806   2.461   8.674 -0.0113  0.0687  0.0496
  565POPI    C1 9005   0.367  17.323  10.935 -0.0330 -0.1680  0.0654
  565POPI    C2 9006   0.108  17.357  11.238 -0.1313 -0.0929 -0.0263
  565POPI    C3 9007  -0.013  17.208  10.887 -0.0810  0.0554 -0.1076
  565POPI   PO4 9008   0.533  17.653  10.924 -0.0278  0.0826  0.1889
  565POPI   GL1 9009   0.475  17.929  10.641 -0.1172  0.1224  0.0959
  565POPI   GL2 9010   0.552  18.234  10.526  0.1302  0.2932 -0.2364
  565POPI   C1A 9011   0.363  17.861  10.210 -0.0440 -0.3023 -0.1455
  565POPI   D2A 9012   0.219  17.958   9.891  0.3322 -0.0054  0.1694
  565POPI   C3A 9013   0.319  17.715   9.535  0.1604 -0.0693  0.0489
  565POPI   C4A 9014   0.333  17.746   9.235  0.1037  0.0601 -0.2059
  565POPI   C1B 9015   0.398  18.333  10.202  0.0516 -0.0583  0.0433
  565POPI   C2B 9016   0.339  18.472   9.779  0.0197 -0.1694 -0.0002
  565POPI   C3B 9017   0.452  18.320   9.377 -0.1373 -0.0259  0.0828
  565POPI   C4B 9018   0.363  18.220   8.953 -0.3583 -0.2396  0.0831
  566POPI    C1 9019   8.438   7.221  11.233 -0.0454 -0.0295  0.1176
  566POPI    C2 9020   8.575   7.517  11.464  0.0129 -0.0638  0.1273
  566POPI    C3 9021   8.193   7.517  11.345  0.0222  0.0349  0.0960
  566POPI   PO4 9022   8.561   7.206  11.058  0.0010  0.1686  0.0817
  566POPI   GL1 9023   8.573   7.190  10.639 -0.0896 -0.2725  0.0530
  566POPI   GL2 9024   8.812   7.452  10.496  0.0777 -0.2346 -0.0614
  566POPI   C1A 9025   8.371   7.324  10.258  0.1948 -0.1830 -0.0651
  566POPI   D2A 9026   8.419   7.388   9.759 -0.2077 -0.3635 -0.1605
  566POPI   C3A 9027   8.253   7.339   9.336  0.5396 -0.1507 -0.0849
  566POPI   C4A 9028   8.309   7.235   8.907  0.2950 -0.1333 -0.0201
  566POPI   C1B 9029   8.861   7.579  10.017 -0.2647  0.1798  0.0505
  566POPI   C2B 9030   8.912   7.525   9.582  0.2185  0.1137 -0.2710
  566POPI   C3B 9031   8.785   7.453   9.176  0.1280 -0.1926 -0.4410
  566POPI   C4B 9032   8.804   7.540   8.744  0.0056  0.1509  0.2055
  567POPI    C1 9033   3.301  11.883  11.562 -0.0431  0.3601 -0.0598
  567POPI    C2 9034   3.127  12.179  11.768 -0.1858  0.1602  0.1108
  567POPI    C3 9035   3.050  11.798  11.861  0.1859  0.0672  0.0540
  567POPI   PO4 9036   3.165  11.935  11.299 -0.0382 -0.2862 -0.0747
  567POPI   GL1 9037   3.431  11.764  10.950  0.3851  0.1765 -0.0382
  567POPI   GL2 9038   3.112  11.947  10.758  0.0835 -0.2263 -0.2216
  567POPI   C1A 9039   3.584  11.693  10.443 -0.1178 -0.1469  0.1601
  567POPI   D2A 9040   3.632  11.739  10.064  0.2433  0.1531 -0.0008
  567POPI   C3A 9041   3.546  11.694   9.686 -0.0410 -0.0292  0.1596
  567POPI   C4A 9042   3.479  11.630   9.255 -0.0181  0.0531 -0.2256
  567POPI   C1B 9043   3.146  11.991  10.372 -0.0699  0.0992  0.2220
  567POPI   C2B 9044   3.176  11.995   9.937  0.1986  0.0903 -0.1216
  567POPI   C3B 9045   3.220  12.032   9.481 -0.0877  0.1320  0.3124
  567POPI   C4B 9046   3.175  12.012   8.980 -0.3398 -0.1581  0.0103
  568POPI    C1 9047  13.074  12.046  11.380 -0.1819 -0.0506 -0.0074
  568POPI    C2 9048  13.014  11.790  11.681  0.1219  0.0589  0.1504
  568POPI    C3 9049  13.279  12.087  11.721  0.0122  0.2013 -0.1508
  568POPI   PO4 9050  13.137  11.904  11.210 -0.1803  0.1636 -0.1935
  568POPI   GL1 9051  13.226  11.531  11.004 -0.2047 -0.2714 -0.2600
  568POPI   GL2 9052  12.910  11.591  10.846 -0.0651  0.2486  0.1592
  568POPI   C1A 9053  13.381  11.566  10.595 -0.0828  0.3954 -0.0893
  568POPI   D2A 9054  13.479  11.560  10.171  0.0206 -0.0810 -0.1916
  568POPI   C3A 9055  13.406  11.476   9.774 -0.0348 -0.0046 -0.3431
  568POPI   C4A 9056  13.441  11.422   9.342  0.3232 -0.2182 -0.0587
  568POPI   C1B 9057  12.982  11.420  10.394  0.0439 -0.0346 -0.0922
  568POPI   C2B 9058  12.988  11.250  10.001 -0.1616  0.2715  0.1822
  568POPI   C3B 9059  12.958  11.220   9.599  0.0029 -0.0316  0.0912
  568POPI   C4B 9060  12.909  11.205   9.184  0.0735 -0.1569  0.0289
  569POPI    C1 9061  11.702   0.925  10.720 -0.0118 -0.0406  0.1240
  569POPI    C2 9062  11.352   0.927  10.913 -0.0889  0.0573 -0.0156
  569POPI    C3 9063  11.659   0.716  11.058 -0.2164 -0.0579  0.0881
  569POPI   PO4 9064  11.734   1.260  10.652 -0.1300  0.1161 -0.2120
  569POPI   GL1 9065  11.591   1.267  10.239  0.0607  0.0961 -0.2925
  569POPI   GL2 9066  11.939   1.326  10.183 -0.0310 -0.0590 -0.0968
  569POPI   C1A 9067  11.518   1.348   9.769  0.0129  0.1235 -0.1849
  569POPI   D2A 9068  11.489   1.408   9.400  0.0931 -0.3034 -0.2033
  569POPI   C3A 9069  11.542   1.426   8.955 -0.1622  0.1794 -0.1332
  569POPI   C4A 9070  11.479   1.596   8.493 -0.2919 -0.1383  0.2497
  569POPI   C1B 9071  11.929   1.100   9.783  0.1019  0.1386  0.3647
  569POPI   C2B 9072  11.959   1.171   9.360  0.0755 -0.2290  0.0574
  569POPI   C3B 9073  11.973   1.218   8.920 -0.1607  0.0365 -0.2573
  569POPI   C4B 9074  12.236   1.265   8.575 -0.0473  0.4962  0.2637
  570DPPI    C1 9075   6.243   7.695  11.446 -0.1830 -0.1800 -0.0684
  570DPPI    C2 9076   5.915   7.912  11.522  0.0921  0.1432  0.2381
  570DPPI    C3 9077   6.188   7.856  11.808  0.3081 -0.1220 -0.0128
  570DPPI   PO4 9078   6.186   7.594  11.232 -0.1314 -0.1147  0.1798
  570DPPI   GL1 9079   6.216   7.586  10.799  0.2041 -0.1121  0.2802
  570DPPI   GL2 9080   6.371   7.810  10.612 -0.2451  0.1835  0.0181
  570DPPI   C1A 9081   5.900   7.598  10.474 -0.0649 -0.1108  0.1025
  570DPPI   C2A 9082   5.696   7.691  10.099  0.1116  0.3739  0.0844
  570DPPI   C3A 9083   5.618   7.676   9.671  0.1043  0.0816  0.0028
  570DPPI   C4A 9084   5.542   7.585   9.244 -0.1164 -0.1630 -0.0167
  570DPPI   C1B 9085   6.248   7.870  10.207  0.2440 -0.3586  0.0530
  570DPPI   C2B 9086   6.065   7.893   9.788 -0.0913 -0.1534  0.2280
  570DPPI   C3B 9087   6.054   7.805   9.292  0.1842 -0.0535  0.0230
  570DPPI   C4B 9088   5.935   7.802   8.880  0.3482 -0.0792 -0.1851
  571DPPI    C1 9089   5.643   3.826  11.137  0.0789  0.1071 -0.1254
  571DPPI    C2 9090   5.931   3.958  11.381  0.1432 -0.1480 -0.0600
  571DPPI    C3 9091   5.800   4.189  11.082  0.1707  0.1066  0.1218
  571DPPI   PO4 9092   5.742   3.561  11.110 -0.2174  0.1524 -0.1172
  571DPPI   GL1 9093   5.961   3.458  10.674  0.1758 -0.0941  0.0099
  571DPPI   GL2 9094   6.104   3.439  10.534 -0.1323 -0.1181  0.2708
  571DPPI   C1A 9095   5.729   3.529  10.251  0.0249  0.0122 -0.0265
  571DPPI   C2A 9096   5.703   3.542   9.839 -0.2999  0.3077  0.0595
  571DPPI   C3A 9097   5.456   3.646   9.494 -0.1519 -0.0697 -0.1732
  571DPPI   C4A 9098   5.371   3.768   9.152 -0.0108  0.0914 -0.0832
  571DPPI   C1B 9099   6.166   3.542  10.048  0.1427  0.0847 -0.0497
  571DPPI   C2B 9100   6.264   3.579   9.770 -0.0379  0.0761  0.0385
  571DPPI   C3B 9101   6.365   3.532   9.423 -0.1280 -0.0312 -0.0157
  571DPPI   C4B 9102   6.401   3.621   8.996 -0.0702 -0.1617 -0.1099
  572DPPI    C1 9103   7.336   2.757  11.165  0.3361  0.1636 -0.1865
  572DPPI    C2 9104   7.508   2.424  11.026 -0.1700 -0.2351  0.1071
  572DPPI    C3 9105   7.475   2.482  11.420 -0.2541  0.0753  0.0570
  572DPPI   PO4 9106   7.249   2.877  10.881 -0.0427 -0.1796  0.1154
  572DPPI   GL1 9107   7.070   3.010  10.537  0.1053 -0.4087 -0.0852
  572DPPI   GL2 9108   7.003   2.797  10.209 -0.1058 -0.2272 -0.1166
  572DPPI   C1A 9109   7.090   3.289  10.206 -0.2173 -0.3642  0.0055
  572DPPI   C2A 9110   7.137   3.335   9.811 -0.2319 -0.0136 -0.1969
  572DPPI   C3A 9111   7.215   3.388   9.382  0.0333  0.1105  0.3096
  572DPPI   C4A 9112   7.247   3.475   8.916 -0.0610 -0.2721 -0.1100
  572DPPI   C1B 9113   7.111   2.731   9.685  0.2314  0.0934  0.2128
  572DPPI   C2B 9114   7.174   2.833   9.338  0.2667  0.0488 -0.2072
  572DPPI   C3B 9115   7.138   3.012   8.883 -0.1513  0.3077  0.1088
  572DPPI   C4B 9116   6.966   3.102   8.546 -0.0583  0.0084 -0.1168
  573DPPI    C1 9117   3.242   5.234  11.486 -0.0816 -0.1576 -0.0662
  573DPPI    C2 9118   3.015   5.094  11.785  0.1452 -0.1018  0.1358
  573DPPI    C3 9119   3.323   5.337  11.864  0.1085  0.0462 -0.1601
  573DPPI   PO4 9120   3.320   5.017  11.307  0.0029 -0.2396  0.4382
  573DPPI   GL1 9121   3.300   4.861  10.941  0.2288 -0.2734 -0.0594
  573DPPI   GL2 9122   2.988   4.677  10.932  0.0690 -0.0493 -0.0010
  573DPPI   C1A 9123   3.072   5.101  10.524 -0.1004 -0.2083 -0.0110
  573DPPI   C2A 9124   2.994   5.112  10.059 -0.0592 -0.4177  0.3148
  573DPPI   C3A 9125   3.012   5.136   9.632  0.0539 -0.0897 -0.1219
  573DPPI   C4A 9126   2.992   5.273   9.225 -0.0714  0.0293  0.0057
  573DPPI   C1B 9127   2.982   4.618  10.548 -0.0526  0.1549 -0.0635
  573DPPI   C2B 9128   2.915   4.597  10.123 -0.3404  0.0529 -0.1437
  573DPPI   C3B 9129   2.866   4.645   9.653  0.1942 -0.1533 -0.2912
  573DPPI   C4B 9130   2.988   4.760   9.223 -0.1015  0.0001 -0.1728
  574DPPI    C1 9131  10.199   2.204  10.654 -0.1479 -0.0143 -0.3057
  574DPPI    C2 9132   9.955   2.437  10.869 -0.0624 -0.1453 -0.0620
  574DPPI    C3 9133   9.987   2.048  10.956 -0.0994 -0.2217 -0.3773
  574DPPI   PO4 9134  10.199   2.336  10.420 -0.0873 -0.1161 -0.0325
  574DPPI   GL1 9135  10.071   2.576  10.131 -0.1730  0.3427  0.1467
  574DPPI   GL2 9136   9.881   2.285  10.050 -0.1034  0.1137 -0.1341
  574DPPI   C1A 9137  10.115   2.702   9.734 -0.2796 -0.0455  0.1376
  574DPPI   C2A 9138  10.111   2.836   9.222  0.0276 -0.3948  0.2233
  574DPPI   C3A 9139   9.920   3.141   8.942  0.0837 -0.0207 -0.1142
  574DPPI   C4A 9140   9.895   3.415   8.616 -0.4359 -0.0972  0.2818
  574DPPI   C1B 9141   9.851   2.269   9.667 -0.0206 -0.0079  0.1651
  574DPPI   C2B 9142   9.827   2.343   9.226  0.0136 -0.1690 -0.0977
  574DPPI   C3B 9143   9.781   2.651   8.840 -0.2518  0.2327  0.0749
  574DPPI   C4B 9144   9.956   2.942   8.400  0.0230 -0.1829  0.0132
  575DPPI    C1 9145  13.334   4.425  11.281  0.3445 -0.1665 -0.0631
  575DPPI    C2 9146  13.240   4.342  11.661 -0.0169  0.0624 -0.0976
  575DPPI    C3 9147  13.483   4.648  11.578 -0.0485  0.0984 -0.0574
  575DPPI   PO4 9148  13.411   4.277  11.155  0.1904  0.2777  0.0793
  575DPPI   GL1 9149  13.613   4.345  10.794  0.2333  0.0321 -0.0439
  575DPPI   GL2 9150  13.662   3.981  10.845  0.2126 -0.2323  0.0079
  575DPPI   C1A 9151  13.438   4.368  10.443 -0.1119  0.1317 -0.2373
  575DPPI   C2A 9152  13.581   4.427  10.080 -0.0332  0.0534  0.1131
  575DPPI   C3A 9153  13.433   4.552   9.690  0.0274  0.1321 -0.0249
  575DPPI   C4A 9154  13.591   4.596   9.368  0.3129 -0.0323  0.6073
  575DPPI   C1B 9155  13.966   4.118  10.446  0.1783  0.0823  0.1177
  575DPPI   C2B 9156  13.981   4.126   9.971 -0.1507 -0.0337 -0.1040
  575DPPI   C3B 9157  13.947   4.213   9.510 -0.1165  0.0008 -0.0652
  575DPPI   C4B 9158  13.983   4.215   9.074 -0.0537 -0.0355  0.0237
  576DPPI    C1 9159   5.508   4.188  11.458  0.0037  0.1182  0.0060
  576DPPI    C2 9160   5.469   3.813  11.594 -0.0892  0.1019 -0.0656
  576DPPI    C3 9161   5.587   4.104  11.842 -0.0816  0.0378  0.0063
  576DPPI   PO4 9162   5.289   4.139  11.254 -0.0764  0.0110  0.1724
  576DPPI   GL1 9163   5.304   4.124  10.815 -0.0817 -0.2088 -0.3718
  576DPPI   GL2 9164   5.477   4.284  10.638 -0.1107 -0.1156 -0.2948
  576DPPI   C1A 9165   4.864   3.889  10.651 -0.0776 -0.0536 -0.0889
  576DPPI   C2A 9166   4.621   3.751  10.360  0.5089  0.1212  0.0052
  576DPPI   C3A 9167   4.601   3.798   9.918  0.1349 -0.1582 -0.1006
  576DPPI   C4A 9168   4.530   3.817   9.546  0.1282 -0.3746 -0.1995
  576DPPI   C1B 9169   5.553   4.401  10.230 -0.0532  0.0107 -0.2581
  576DPPI   C2B 9170   5.626   4.374   9.782 -0.3470 -0.1521 -0.0398
  576DPPI   C3B 9171   5.471   4.146   9.467 -0.0371 -0.3404  0.1626
  576DPPI   C4B 9172   5.616   4.223   9.074  0.2939  0.2326  0.0233
  577DPPI    C1 9173  16.216  14.138  11.032 -0.2183 -0.1739  0.0566
  577DPPI    C2 9174  15.929  14.377  10.889  0.0034 -0.0583 -0.2037
  577DPPI    C3 9175  16.100  14.458  11.242  0.0818  0.1742 -0.2930
  577DPPI   PO4 9176  16.328  14.124  10.799 -0.0336 -0.2015  0.0352
  577DPPI   GL1 9177  16.133  13.919  10.473 -0.0903  0.0418  0.2476
  577DPPI   GL2 9178  15.885  14.097  10.486  0.1925 -0.0440 -0.2114
  577DPPI   C1A 9179  15.991  14.006   9.982  0.0686  0.2011 -0.3441
  577DPPI   C2A 9180  16.016  13.928   9.526  0.0185 -0.2031 -0.2520
  577DPPI   C3A 9181  16.104  14.033   9.094  0.0045  0.0162  0.1521
  577DPPI   C4A 9182  16.135  14.144   8.688 -0.0257 -0.0702  0.6449
  577DPPI   C1B 9183  15.528  13.947  10.205 -0.0152  0.3384  0.0888
  577DPPI   C2B 9184  15.547  13.874   9.800  0.0670  0.0111  0.1637
  577DPPI   C3B 9185  15.535  13.781   9.346 -0.0381 -0.0337 -0.0475
  577DPPI   C4B 9186  15.585  13.957   9.043 -0.0181 -0.2031  0.0705
  578DPPI    C1 9187   0.746   5.899  11.993 -0.1421 -0.1811 -0.1292
  578DPPI    C2 9188   1.064   5.658  11.992  0.1258  0.1629  0.0392
  578DPPI    C3 9189   0.869   5.730  12.334 -0.2131 -0.1411 -0.0833
  578DPPI   PO4 9190   0.634   5.847  11.734 -0.1672 -0.0434  0.2626
  578DPPI   GL1 9191   0.769   5.984  11.283 -0.0062 -0.2510 -0.2321
  578DPPI   GL2 9192   0.743   6.368  11.178  0.2240 -0.0203 -0.0063
  578DPPI   C1A 9193   0.653   5.669  10.917 -0.0119 -0.1666 -0.0736
  578DPPI   C2A 9194   0.852   5.707  10.514 -0.0726  0.0748 -0.3824
  578DPPI   C3A 9195   0.850   5.755  10.082 -0.2319  0.2157 -0.3082
  578DPPI   C4A 9196   0.908   5.691   9.549  0.0580  0.1909 -0.0408
  578DPPI   C1B 9197   0.937   6.147  10.755  0.0555 -0.2315  0.3756
  578DPPI   C2B 9198   0.927   6.226  10.284  0.1289 -0.0459 -0.1422
  578DPPI   C3B 9199   0.951   6.233   9.859  0.0802 -0.1600  0.1826
  578DPPI   C4B 9200   0.929   6.226   9.426 -0.0704 -0.0500 -0.2179
  579PYPI    C1 9201  10.527  12.364  11.425  0.1423  0.1501 -0.0172
  579PYPI    C2 9202  10.237  12.423  11.693  0.0393 -0.0167 -0.0905
  579PYPI    C3 9203  10.620  12.434  11.808 -0.0007  0.0228  0.0417
  579PYPI   PO4 9204  10.368  12.275  11.168  0.0557 -0.2046  0.1546
  579PYPI   GL1 9205  10.389  12.102  10.769 -0.3590 -0.0730  0.0528
  579PYPI   GL2 9206  10.410  12.270  10.553  0.2496 -0.4810 -0.1021
  579PYPI   C1A 9207  10.366  11.723  10.437 -0.0250 -0.0517  0.1411
  579PYPI   C2A 9208  10.367  11.590   9.932  0.1523 -0.1801  0.2583
  579PYPI   D3A 9209  10.325  11.534   9.495 -0.3782  0.0924 -0.0070
  579PYPI   C4A 9210  10.240  11.398   9.106  0.0778  0.2155  0.0631
  579PYPI   C1B 9211  10.384  12.160  10.165 -0.0995  0.0433 -0.0884
  579PYPI   C2B 9212  10.364  12.048   9.775  0.3199  0.0816 -0.0712
  579PYPI   C3B 9213  10.352  12.000   9.294  0.1075  0.1270 -0.0456
  579PYPI   C4B 9214  10.258  11.951   8.866 -0.4653 -0.0945 -0.2591
  580PYPI    C1 9215   3.049  17.411  11.397 -0.1248  0.0080  0.0517
  580PYPI    C2 9216   2.862  17.213  11.690 -0.1953  0.0565  0.0398
  580PYPI    C3 9217   2.758  17.590  11.605 -0.2504  0.0058 -0.1202
  580PYPI   PO4 9218   3.044  17.251  11.142  0.0182  0.1407  0.4224
  580PYPI   GL1 9219   3.047  17.290  10.709  0.1333  0.0324 -0.1486
  580PYPI   GL2 9220   2.948  16.887  10.628  0.0692 -0.1821  0.2540
  580PYPI   C1A 9221   2.982  17.318  10.293 -0.2741 -0.2723  0.3072
  580PYPI   C2A 9222   2.867  17.403   9.835 -0.0493 -0.0914 -0.2377
  580PYPI   D3A 9223   2.999  17.503   9.495 -0.1400 -0.0896  0.0536
  580PYPI   C4A 9224   3.156  17.515   9.061 -0.1120  0.0688 -0.0864
  580PYPI   C1B 9225   2.987  16.838  10.185 -0.3521 -0.2275 -0.1843
  580PYPI   C2B 9226   3.138  16.914   9.819 -0.0405  0.2899  0.2287
  580PYPI   C3B 9227   3.457  17.006   9.465 -0.2228  0.2469 -0.1139
  580PYPI   C4B 9228   3.480  17.108   9.042  0.2415  0.1670 -0.1387
  581PYPI    C1 9229   4.425   6.844  11.540  0.0569  0.0403  0.0041
  581PYPI    C2 9230   4.343   6.671  11.891  0.2394  0.1693  0.1123
  581PYPI    C3 9231   4.092   6.942  11.738  0.0305 -0.0731  0.0168
  581PYPI   PO4 9232   4.431   6.642  11.335 -0.0452 -0.0790  0.0191
  581PYPI   GL1 9233   4.774   6.444  11.185 -0.0090  0.0179  0.0768
  581PYPI   GL2 9234   4.666   6.208  10.958  0.2011 -0.0752  0.1541
  581PYPI   C1A 9235   4.840   6.709  10.770  0.0429 -0.0133  0.0358
  581PYPI   C2A 9236   4.687   6.756  10.347  0.0824  0.2303 -0.0841
  581PYPI   D3A 9237   4.661   6.838   9.823  0.2680 -0.0702 -0.0993
  581PYPI   C4A 9238   4.596   6.833   9.409  0.2724 -0.1466 -0.0171
  581PYPI   C1B 9239   4.521   6.188  10.574 -0.0337  0.1537 -0.1739
  581PYPI   C2B 9240   4.459   6.227  10.060 -0.0819  0.1672 -0.2288
  581PYPI   C3B 9241   4.493   6.291   9.644 -0.0730  0.1879  0.0624
  581PYPI   C4B 9242   4.467   6.326   9.244 -0.1393  0.1384  0.1521
  582PYPI    C1 9243  11.691  12.777  11.327  0.0307 -0.0786 -0.0540
  582PYPI    C2 9244  11.482  13.110  11.252  0.1345 -0.0334 -0.1454
  582PYPI    C3 9245  11.525  12.981  11.628  0.0181  0.0065 -0.1181
  582PYPI   PO4 9246  11.738  12.629  11.009  0.0939  0.0745 -0.2755
  582PYPI   GL1 9247  11.781  12.422  10.686 -0.3187  0.1107 -0.1152
  582PYPI   GL2 9248  11.992  12.084  10.600 -0.0334  0.1764  0.0206
  582PYPI   C1A 9249  12.087  12.473  10.347 -0.0615 -0.0849 -0.1349
  582PYPI   C2A 9250  12.214  12.404   9.915  0.2452 -0.0375 -0.0271
  582PYPI   D3A 9251  12.263  12.486   9.448  0.1334  0.2619  0.1853
  582PYPI   C4A 9252  12.268  12.322   9.027 -0.2185  0.0421 -0.2394
  582PYPI   C1B 9253  12.143  11.875  10.251 -0.0543 -0.0355  0.1869
  582PYPI   C2B 9254  12.272  11.851   9.822 -0.4660  0.0593 -0.0461
  582PYPI   C3B 9255  12.193  11.779   9.384  0.0906 -0.1771 -0.0821
  582PYPI   C4B 9256  12.080  11.846   8.953 -0.0595  0.2720  0.2235
  583PYPI    C1 9257   8.673  14.796  10.504 -0.0429  0.1210  0.0652
  583PYPI    C2 9258   8.299  14.804  10.364  0.0065 -0.5700 -0.1403
  583PYPI    C3 9259   8.366  14.843  10.757 -0.2269  0.1227 -0.1557
  583PYPI   PO4 9260   8.769  14.515  10.364  0.0235 -0.0567  0.1220
  583PYPI   GL1 9261   8.814  14.239   9.927 -0.1063  0.0388  0.1413
  583PYPI   GL2 9262   8.910  14.026   9.821  0.2877 -0.3497 -0.1870
  583PYPI   C1A 9263   8.546  14.301   9.591 -0.1433  0.1135 -0.0598
  583PYPI   C2A 9264   8.522  14.279   9.134 -0.1156  0.1946 -0.1502
  583PYPI   D3A 9265   8.402  14.181   8.632  0.2815 -0.1223 -0.0791
  583PYPI   C4A 9266   8.525  14.150   8.311  0.1507 -0.0276 -0.0315
  583PYPI   C1B 9267   8.867  13.911   9.355 -0.0331  0.3624 -0.2085
  583PYPI   C2B 9268   8.836  13.920   8.922 -0.0630  0.2405  0.1295
  583PYPI   C3B 9269   8.829  13.838   8.504  0.1391 -0.0673 -0.1475
  583PYPI   C4B 9270   8.925  13.920   8.077 -0.2491  0.1911 -0.3146
  584PYPI    C1 9271  14.790   6.415  11.709 -0.2649  0.0718 -0.1775
  584PYPI    C2 9272  14.613   6.134  11.931 -0.0309  0.0228 -0.0500
  584PYPI    C3 9273  14.586   6.518  12.037 -0.4187  0.0606 -0.2687
  584PYPI   PO4 9274  14.774   6.440  11.531 -0.2472 -0.2087  0.1861
  584PYPI   GL1 9275  14.683   6.538  11.151 -0.1706  0.1300  0.1413
  584PYPI   GL2 9276  14.609   6.620  10.755 -0.0466  0.4479 -0.0534
  584PYPI   C1A 9277  15.007   6.365  10.863  0.0516  0.0592  0.5208
  584PYPI   C2A 9278  15.014   6.259  10.377  0.0783  0.0805  0.2298
  584PYPI   D3A 9279  15.060   6.319   9.985  0.0896 -0.3728 -0.2370
  584PYPI   C4A 9280  14.955   6.439   9.535  0.2798  0.0099  0.0676
  584PYPI   C1B 9281  14.666   6.553  10.318 -0.0032 -0.0099 -0.1136
  584PYPI   C2B 9282  14.622   6.557   9.867  0.1693 -0.1765 -0.0850
  584PYPI   C3B 9283  14.517   6.692   9.462  0.1558  0.1890 -0.0341
  584PYPI   C4B 9284  14.581   6.658   9.055  0.2873  0.1179 -0.2188
  585ERGO   ROH 9285  12.088   7.263  10.628 -0.3175  0.0751 -0.0187
  585ERGO    R1 9286  12.175   7.282  10.359 -0.2811 -0.1310 -0.0244
  585ERGO    R2 9287  12.048   7.149  10.152 -0.5759  0.1103 -0.0119
  585ERGO    R3 9288  12.034   7.398  10.045 -0.0537  0.1425 -0.0276
  585ERGO    R4 9289  12.021   7.218   9.815 -0.4630  0.1528 -0.0119
  585ERGO    R5 9290  12.160   7.383   9.842 -0.1034 -0.1382 -0.0374
  585ERGO    C1 9291  11.992   7.491   9.517  0.0929  0.2078 -0.0266
  585ERGO    C2 9292  11.871   7.480   9.145  0.1144 -0.1158 -0.2695
  586ERGO   ROH 9293  11.043   2.212  10.091  0.0161 -0.2197  0.0926
  586ERGO    R1 9294  11.010   2.098   9.834 -0.2833  0.0087  0.0240
  586ERGO    R2 9295  10.865   2.222   9.634 -0.0891  0.4398  0.1342
  586ERGO    R3 9296  11.094   2.188   9.492 -0.1828  0.0628  0.0639
  586ERGO    R4 9297  10.898   2.284   9.296 -0.0464  0.5261  0.1544
  586ERGO    R5 9298  11.020   2.104   9.280 -0.3931  0.2961  0.0446
  586ERGO    C1 9299  11.132   2.289   8.965 -0.1093  0.2225  0.1000
  586ERGO    C2 9300  11.152   2.281   8.668 -0.0362  0.1005 -0.3673
  587ERGO   ROH 9301   2.797   4.157  10.921 -0.1123 -0.0494 -0.0376
  587ERGO    R1 9302   2.882   4.083  10.661  0.0001  0.0320 -0.0247
  587ERGO    R2 9303   2.708   3.981  10.471  0.0990  0.0092 -0.1017
  587ERGO    R3 9304   2.806   4.184  10.319  0.0790  0.0734 -0.0304
  587ERGO    R4 9305   2.745   3.971  10.128 -0.0083  0.1753 -0.1197
  587ERGO    R5 9306   2.935   4.074  10.150  0.0134  0.1396 -0.1256
  587ERGO    C1 9307   2.859   4.155   9.785 -0.0895  0.3323 -0.0635
  587ERGO    C2 9308   2.882   4.221   9.387 -0.0207  0.4521  0.2111
  588ERGO   ROH 9309   9.571  13.942  10.035  0.1953 -0.0544  0.0527
  588ERGO    R1 9310   9.479  13.823   9.795  0.2027 -0.1103  0.0773
  588ERGO    R2 9311   9.406  13.971   9.573  0.0215 -0.1518  0.1065
  588ERGO    R3 9312   9.586  13.811   9.448  0.0978 -0.0156  0.0419
  588ERGO    R4 9313   9.436  13.937   9.231 -0.0371 -0.0898  0.0953
  588ERGO    R5 9314   9.468  13.724   9.259  0.1121 -0.0710  0.0603
  588ERGO    C1 9315   9.622  13.768   8.913  0.0002  0.0742  0.0280
  588ERGO    C2 9316   9.639  13.675   8.670  0.2700  0.1245  0.0177
  589ERGO   ROH 9317  14.910   2.074  10.243  0.3235 -0.3343 -0.2131
  589ERGO    R1 9318  14.837   1.989   9.983  0.0491  0.0440 -0.2693
  589ERGO    R2 9319  14.823   2.162   9.768  0.3190  0.2774 -0.1119
  589ERGO    R3 9320  14.991   1.982   9.654 -0.0798  0.0266 -0.3283
  589ERGO    R4 9321  14.913   2.160   9.435  0.0628  0.2575 -0.1834
  589ERGO    R5 9322  14.899   1.943   9.437 -0.3161  0.2812 -0.2742
  589ERGO    C1 9323  15.125   1.991   9.133 -0.4606  0.0104 -0.4282
  589ERGO    C2 9324  15.140   2.020   8.727  0.5325 -0.0927  0.0422
  590ERGO   ROH 9325  10.086  15.665   9.833  0.1228  0.1193 -0.0861
  590ERGO    R1 9326  10.193  15.599   9.579  0.0695  0.1057 -0.1047
  590ERGO    R2 9327  10.127  15.366   9.445  0.0206  0.1135 -0.0897
  590ERGO    R3 9328  10.062  15.538   9.245  0.0035  0.1165 -0.0819
  590ERGO    R4 9329  10.152  15.295   9.108  0.0877  0.1472 -0.0921
  590ERGO    R5 9330  10.227  15.497   9.076  0.0408  0.1728 -0.0626
  590ERGO    C1 9331  10.106  15.414   8.724  0.1107  0.1697 -0.0863
  590ERGO    C2 9332  10.006  15.300   8.409 -0.0638 -0.3852  0.1027
  591ERGO   ROH 9333  11.826   0.032   9.874  0.1104  0.2280  0.1272
  591ERGO    R1 9334  11.675   0.067   9.637  0.1019  0.1122  0.1149
  591ERGO    R2 9335  11.618   0.317   9.533 -0.0744  0.0678  0.1063
  591ERGO    R3 9336  11.730   0.213   9.308  0.0185  0.1471  0.1155
  591ERGO    R4 9337  11.543   0.417   9.211 -0.2086 -0.0555  0.0979
  591ERGO    R5 9338  11.550   0.208   9.149  0.0050 -0.0634  0.1303
  591ERGO    C1 9339  11.605   0.379   8.813 -0.1994 -0.0527  0.1016
  591ERGO    C2 9340  11.480   0.490   8.474 -0.4000 -0.0778  0.0806
  592ERGO   ROH 9341  16.336  12.301  10.686 -0.1763  0.0643  0.0610
  592ERGO    R1 9342  16.350  12.120  10.469 -0.0532 -0.0310  0.1475
  592ERGO    R2 9343  16.148  12.096  10.282  0.0273 -0.1553  0.0792
  592ERGO    R3 9344  16.350  12.142  10.106  0.0870 -0.1968  0.1350
  592ERGO    R4 9345  16.117  12.082   9.938  0.1047 -0.1097  0.0696
  592ERGO    R5 9346  16.312  11.985   9.929  0.0807 -0.1693  0.1084
  592ERGO    C1 9347  16.289  12.117   9.572  0.2055 -0.1220  0.1164
  592ERGO    C2 9348  16.214  12.112   9.121  0.0149 -0.0589 -0.3318
  593ERGO   ROH 9349   1.529   8.534  10.921 -0.0018 -0.1338  0.0254
  593ERGO    R1 9350   1.624   8.631  10.672  0.0790 -0.1753  0.0386
  593ERGO    R2 9351   1.763   8.472  10.494 -0.0181 -0.2548  0.0303
  593ERGO    R3 9352   1.570   8.554  10.321  0.0463 -0.1074  0.0288
  593ERGO    R4 9353   1.804   8.502  10.152  0.0957 -0.0175  0.0637
  593ERGO    R5 9354   1.687   8.686  10.159  0.1161 -0.0064  0.1589
  593ERGO    C1 9355   1.646   8.596   9.790  0.2225  0.2591  0.0816
  593ERGO    C2 9356   1.708   8.635   9.469 -0.2902 -0.2481  0.2406
  594ERGO   ROH 9357  12.874  13.043  10.571 -0.0365  0.1720  0.0653
  594ERGO    R1 9358  13.037  13.027  10.341 -0.0659  0.2127  0.0439
  594ERGO    R2 9359  13.081  12.789  10.205  0.0628  0.2076  0.1087
  594ERGO    R3 9360  12.993  12.932   9.992 -0.0607  0.0871  0.0749
  594ERGO    R4 9361  13.188  12.744   9.880 -0.3110 -0.1631  0.0269
  594ERGO    R5 9362  13.187  12.961   9.855 -0.1758 -0.1758 -0.1606
  594ERGO    C1 9363  13.167  12.852   9.490 -0.6447 -0.4921 -0.0524
  594ERGO    C2 9364  13.132  12.814   9.157  0.1874  0.1394 -0.3637
  595ERGO   ROH 9365   3.663  16.295   6.736 -0.0300  0.1598 -0.0983
  595ERGO    R1 9366   3.726  16.136   6.961  0.0669  0.0983 -0.1695
  595ERGO    R2 9367   3.877  16.230   7.172  0.0541  0.0782 -0.1565
  595ERGO    R3 9368   3.664  16.147   7.319  0.1108 -0.0705 -0.1546
  595ERGO    R4 9369   3.898  16.063   7.474  0.1793  0.0847 -0.1605
  595ERGO    R5 9370   3.733  15.936   7.410  0.2603 -0.0292 -0.1619
  595ERGO    C1 9371   3.710  15.888   7.788  0.3054 -0.0510 -0.1610
  595ERGO    C2 9372   3.690  15.988   8.140 -0.2411  0.2483 -0.1476
  596ERGO   ROH 9373   7.006   7.118  10.755  0.1884  0.0759  0.0752
  596ERGO    R1 9374   6.928   7.223  10.504  0.0853  0.0700  0.1040
  596ERGO    R2 9375   7.110   7.323  10.321  0.0130  0.0495  0.0187
  596ERGO    R3 9376   6.991   7.145  10.154 -0.0728  0.0494  0.0794
  596ERGO    R4 9377   7.077   7.363   9.980  0.1709 -0.1203 -0.0174
  596ERGO    R5 9378   6.877   7.280   9.994  0.0964  0.0522 -0.0409
  596ERGO    C1 9379   6.947   7.219   9.624  0.1822 -0.2193  0.0187
  596ERGO    C2 9380   6.873   7.114   9.376  0.2049  0.0367  0.1763
  597ERGO   ROH 9381   1.866   1.180  10.398 -0.1910 -0.1671 -0.0172
  597ERGO    R1 9382   1.779   1.296  10.154 -0.3203 -0.1992  0.0124
  597ERGO    R2 9383   1.955   1.378   9.957 -0.4030  0.1038  0.0560
  597ERGO    R3 9384   1.803   1.216   9.800 -0.1725 -0.0512 -0.0115
  597ERGO    R4 9385   1.965   1.373   9.612 -0.2332  0.0933  0.0607
  597ERGO    R5 9386   1.748   1.353   9.611 -0.2133 -0.1156 -0.0442
  597ERGO    C1 9387   1.828   1.218   9.263  0.0819 -0.0582 -0.0001
  597ERGO    C2 9388   1.923   1.292   8.919 -0.1373  0.2593 -0.0654
  598ERGO   ROH 9389  11.045   8.506  10.707  0.0524  0.0574 -0.0569
  598ERGO    R1 9390  11.147   8.612  10.464  0.0954 -0.0479 -0.0858
  598ERGO    R2 9391  11.276   8.456  10.277 -0.0786 -0.1766 -0.1033
  598ERGO    R3 9392  11.089   8.560  10.109 -0.0250 -0.0247 -0.0697
  598ERGO    R4 9393  11.305   8.469   9.932 -0.0068  0.0635 -0.0895
  598ERGO    R5 9394  11.217   8.668   9.938  0.0280  0.0748  0.0332
  598ERGO    C1 9395  11.147   8.574   9.575  0.0853  0.3460 -0.0499
  598ERGO    C2 9396  11.103   8.620   9.276  0.0572  0.0318 -0.0116
  599ERGO   ROH 9397   6.589   3.283  10.469  0.0713  0.0558  0.0416
  599ERGO    R1 9398   6.620   3.113  10.245 -0.0324  0.0140  0.0582
  599ERGO    R2 9399   6.463   3.135  10.019  0.0048  0.1137  0.0407
  599ERGO    R3 9400   6.703   3.153   9.893  0.0328 -0.0743  0.0632
  599ERGO    R4 9401   6.507   3.116   9.677  0.0122  0.1709  0.0384
  599ERGO    R5 9402   6.686   2.997   9.712 -0.1008 -0.0079  0.0171
  599ERGO    C1 9403   6.758   3.123   9.359  0.0428  0.0277  0.0583
  599ERGO    C2 9404   6.735   3.291   9.072 -0.1527 -0.0124 -0.0649
  600ERGO   ROH 9405  11.220  16.605   9.820 -0.0503 -0.2221 -0.2244
  600ERGO    R1 9406  11.287  16.672   9.553 -0.2481 -0.3113 -0.3006
  600ERGO    R2 9407  11.121  16.618   9.339 -0.6431  0.0571 -0.1137
  600ERGO    R3 9408  11.149  16.884   9.291 -0.1660  0.0190 -0.0805
  600ERGO    R4 9409  11.047  16.773   9.040 -0.4941  0.2625 -0.0446
  600ERGO    R5 9410  11.225  16.895   9.064 -0.2535 -0.0786 -0.1089
  600ERGO    C1 9411  11.030  17.114   8.820  0.0405  0.3458  0.0269
  600ERGO    C2 9412  10.916  17.370   8.714  0.1180 -0.0992 -0.3301
  601ERGO   ROH 9413  11.399   3.105  10.215  0.0124 -0.0141  0.0272
  601ERGO    R1 9414  11.505   3.132   9.954  0.0669 -0.0500  0.0460
  601ERGO    R2 9415  11.529   2.919   9.780 -0.2631 -0.0051 -0.0578
  601ERGO    R3 9416  11.387   3.080   9.613 -0.0052  0.3058  0.0113
  601ERGO    R4 9417  11.587   2.953   9.441 -0.2983 -0.0750 -0.0715
  601ERGO    R5 9418  11.550   3.167   9.461  0.1282  0.0074 -0.0266
  601ERGO    C1 9419  11.488   3.123   9.087 -0.0768  0.1762 -0.0146
  601ERGO    C2 9420  11.363   3.197   8.750 -0.2937 -0.1372  0.2337
  602ERGO   ROH 9421   3.482   1.834  10.342  0.0662 -0.0059 -0.0313
  602ERGO    R1 9422   3.403   1.774  10.077  0.0823  0.1275 -0.0670
  602ERGO    R2 9423   3.276   1.958   9.914  0.0800  0.2067  0.0206
  602ERGO    R3 9424   3.480   1.900   9.744  0.0926  0.3052  0.0022
  602ERGO    R4 9425   3.247   1.937   9.571 -0.0183 -0.1533  0.0474
  602ERGO    R5 9426   3.380   1.764   9.575  0.2023  0.0167  0.1641
  602ERGO    C1 9427   3.422   1.870   9.211 -0.0637 -0.2704  0.0457
  602ERGO    C2 9428   3.438   2.029   8.889 -0.1742  0.1794 -0.2720
  603ERGO   ROH 9429   8.812  15.739   9.492 -0.1469 -0.0054 -0.0046
  603ERGO    R1 9430   8.830  15.855   9.234 -0.0903 -0.0209 -0.0081
  603ERGO    R2 9431   8.922  15.714   9.015  0.1344  0.0185  0.0537
  603ERGO    R3 9432   8.685  15.793   8.906  0.1322 -0.1670 -0.0794
  603ERGO    R4 9433   8.859  15.738   8.676  0.2241 -0.2378  0.0170
  603ERGO    R5 9434   8.748  15.922   8.714  0.1256 -0.2675 -0.1452
  603ERGO    C1 9435   8.600  15.825   8.377  0.2742 -0.5611 -0.1294
  603ERGO    C2 9436   8.708  15.672   8.109  0.0857 -0.0144 -0.0563
  604ERGO   ROH 9437  15.796   3.781  10.559  0.0165  0.4028 -0.0948
  604ERGO    R1 9438  15.751   3.733  10.283  0.0016  0.1780 -0.0540
  604ERGO    R2 9439  15.654   3.927  10.112 -0.0861  0.0113 -0.1882
  604ERGO    R3 9440  15.876   3.866   9.968 -0.0837 -0.0169 -0.1737
  604ERGO    R4 9441  15.675   3.931   9.767 -0.0098  0.2244 -0.1834
  604ERGO    R5 9442  15.794   3.750   9.777 -0.1076  0.1487 -0.2704
  604ERGO    C1 9443  15.896   3.876   9.432  0.0370  0.3219 -0.1671
  604ERGO    C2 9444  15.704   3.851   9.076  0.2744 -0.1130  0.0568
  605ERGO   ROH 9445  13.893   6.109  10.589  0.2014  0.1159  0.1670
  605ERGO    R1 9446  13.947   6.046  10.318  0.0169  0.0091  0.1536
  605ERGO    R2 9447  13.752   5.956  10.144 -0.1406  0.1213  0.2737
  605ERGO    R3 9448  13.838   6.164   9.992 -0.0524  0.0180  0.1789
  605ERGO    R4 9449  13.658   6.013   9.817  0.1023 -0.1488  0.1513
  605ERGO    R5 9450  13.863   6.071   9.773  0.1325 -0.1526  0.2665
  605ERGO    C1 9451  13.684   6.243   9.483  0.3265 -0.4032 -0.0089
  605ERGO    C2 9452  13.678   6.143   9.113 -0.1091 -0.3106  0.1604
  606ERGO   ROH 9453  13.020  16.530   9.949  0.2116  0.1985 -0.1045
  606ERGO    R1 9454  13.108  16.400   9.713  0.0793  0.0987 -0.1014
  606ERGO    R2 9455  12.941  16.245   9.557 -0.0307  0.0920  0.0129
  606ERGO    R3 9456  13.025  16.410   9.359 -0.0664  0.0107 -0.0691
  606ERGO    R4 9457  12.906  16.181   9.220  0.0392 -0.1029  0.0420
  606ERGO    R5 9458  13.106  16.262   9.189  0.0088 -0.0488  0.0232
  606ERGO    C1 9459  12.965  16.299   8.836  0.0463 -0.2925 -0.0180
  606ERGO    C2 9460  13.091  16.310   8.409  0.2027 -0.2734  0.2594
  607ERGO   ROH 9461   2.966   0.149  10.572  0.1310  0.3660 -0.0615
  607ERGO    R1 9462   3.103   0.280  10.361  0.0588  0.2441 -0.1851
  607ERGO    R2 9463   3.199   0.146  10.140 -0.1336  0.1368 -0.2008
  607ERGO    R3 9464   3.053   0.331  10.004 -0.1355  0.1575 -0.1727
  607ERGO    R4 9465   3.231   0.213   9.803 -0.1943  0.1194 -0.2109
  607ERGO    R5 9466   3.208   0.425   9.848 -0.1506  0.1280 -0.2100
  607ERGO    C1 9467   3.112   0.426   9.479 -0.2315  0.1288 -0.1902
  607ERGO    C2 9468   3.112   0.423   9.056  0.0360 -0.1857 -0.2547
  608ERGO   ROH 9469   9.304  11.832  10.586  0.1584  0.3372  0.0354
  608ERGO    R1 9470   9.392  11.875  10.321  0.0943  0.1177 -0.0236
  608ERGO    R2 9471   9.521  11.679  10.173  0.0165 -0.0211  0.0884
  608ERGO    R3 9472   9.324  11.731   9.993 -0.0235 -0.1208  0.1031
  608ERGO    R4 9473   9.544  11.622   9.833 -0.0327 -0.1401  0.1048
  608ERGO    R5 9474   9.440  11.810   9.799 -0.0711 -0.1708  0.0543
  608ERGO    C1 9475   9.372  11.637   9.466 -0.0988 -0.3030  0.1282
  608ERGO    C2 9476   9.411  11.652   9.099 -0.1061  0.2761  0.2044
  609ERGO   ROH 9477   5.565  11.268  10.668 -0.0459 -0.2868  0.0446
  609ERGO    R1 9478   5.716  11.234  10.431 -0.0239 -0.1683  0.0405
  609ERGO    R2 9479   5.721  10.996  10.290  0.0872 -0.1395 -0.0121
  609ERGO    R3 9480   5.647  11.156  10.082  0.0181 -0.1258  0.0236
  609ERGO    R4 9481   5.804  10.942   9.959  0.1023 -0.0275 -0.0266
  609ERGO    R5 9482   5.837  11.156   9.936  0.0118 -0.0124  0.0195
  609ERGO    C1 9483   5.784  11.060   9.571  0.0461  0.0505 -0.0015
  609ERGO    C2 9484   5.654  11.105   9.284 -0.2993  0.2687 -0.2441
  610ERGO   ROH 9485   5.371  14.952  10.548 -0.0239  0.1059  0.0317
  610ERGO    R1 9486   5.367  14.821  10.297 -0.1297  0.0278  0.0737
  610ERGO    R2 9487   5.142  14.815  10.136 -0.1125  0.2311  0.0395
  610ERGO    R3 9488   5.313  14.917   9.950  0.0371 -0.0207  0.0335
  610ERGO    R4 9489   5.139  14.736   9.799 -0.1506  0.1371  0.0613
  610ERGO    R5 9490   5.357  14.734   9.802 -0.1517 -0.1160  0.0934
  610ERGO    C1 9491   5.297  14.785   9.429 -0.0323 -0.1541  0.0683
  610ERGO    C2 9492   5.379  14.905   9.040  0.1997  0.0150 -0.2645
  611ERGO   ROH 9493  11.569  13.342  10.238 -0.1454 -0.3025  0.0501
  611ERGO    R1 9494  11.705  13.365   9.990  0.0799 -0.2131  0.1806
  611ERGO    R2 9495  11.846  13.156   9.878 -0.1960 -0.3127  0.0241
  611ERGO    R3 9496  11.687  13.207   9.663  0.0494  0.2361 -0.0434
  611ERGO    R4 9497  11.934  13.097   9.549 -0.1972 -0.5007  0.0553
  611ERGO    R5 9498  11.839  13.286   9.495  0.3939 -0.1716  0.0527
  611ERGO    C1 9499  11.837  13.112   9.155  0.0325 -0.0949  0.0100
  611ERGO    C2 9500  11.834  13.024   8.845  0.1222 -0.5338  0.0617
  612ERGO   ROH 9501   2.010   7.229  11.026  0.0546  0.0968  0.1030
  612ERGO    R1 9502   2.077   7.182  10.755  0.0745 -0.0053  0.1253
  612ERGO    R2 9503   1.905   7.054  10.580  0.0750 -0.0456  0.1527
  612ERGO    R3 9504   1.945   7.278  10.430  0.1165 -0.1014  0.0800
  612ERGO    R4 9505   1.919   7.060  10.235 -0.0339 -0.1409  0.1462
  612ERGO    R5 9506   2.082   7.204  10.248  0.0277 -0.2036  0.0546
  612ERGO    C1 9507   1.963   7.273   9.892 -0.0583 -0.2487  0.0742
  612ERGO    C2 9508   1.915   7.265   9.498 -0.3892 -0.4084 -0.2094
  613ERGO   ROH 9509   7.563   3.459  10.405 -0.0717  0.2277  0.0845
  613ERGO    R1 9510   7.517   3.525  10.133 -0.0936 -0.0599  0.0150
  613ERGO    R2 9511   7.669   3.714   9.999 -0.3934  0.1259 -0.0589
  613ERGO    R3 9512   7.705   3.510   9.822  0.0591  0.0592  0.0975
  613ERGO    R4 9513   7.678   3.750   9.655 -0.3646 -0.0877 -0.0826
  613ERGO    R5 9514   7.563   3.566   9.638 -0.0070 -0.3407  0.0114
  613ERGO    C1 9515   7.717   3.580   9.289  0.0769 -0.2747  0.0505
  613ERGO    C2 9516   7.721   3.623   8.924 -0.0914 -0.1288  0.1557
  614ERGO   ROH 9517  14.114  16.662  10.212  0.0541  0.1240 -0.1391
  614ERGO    R1 9518  14.000  16.744   9.966 -0.0099 -0.0100 -0.1549
  614ERGO    R2 9519  14.140  16.894   9.779 -0.1383  0.1057 -0.1634
  614ERGO    R3 9520  14.068  16.691   9.613  0.0644  0.0158 -0.1432
  614ERGO    R4 9521  14.206  16.883   9.441 -0.0737  0.0937 -0.1510
  614ERGO    R5 9522  14.008  16.800   9.409  0.0071 -0.0792 -0.1724
  614ERGO    C1 9523  14.178  16.686   9.087  0.1541  0.0022 -0.1248
  614ERGO    C2 9524  14.240  16.625   8.756  0.3222  0.1263 -0.0341
  615PSPI    C1 9525   2.184   8.401   6.314 -0.1499 -0.3020  0.2076
  615PSPI    C2 9526   2.531   8.474   6.129 -0.2636 -0.0035  0.1053
  615PSPI    C3 9527   2.468   8.120   6.304  0.0731 -0.0766  0.0852
  615PSPI   PO4 9528   2.188   8.499   6.513  0.0016 -0.1794  0.2466
  615PSPI   GL1 9529   2.563   8.329   6.836  0.0721 -0.0005  0.3695
  615PSPI   GL2 9530   2.686   8.046   6.718 -0.2598 -0.0777  0.1993
  615PSPI   C1A 9531   2.696   8.307   7.127 -0.2244 -0.2283 -0.2878
  615PSPI   C2A 9532   2.559   8.219   7.514  0.0472 -0.0569  0.1302
  615PSPI   C3A 9533   2.552   8.036   7.954  0.1104  0.0549  0.1773
  615PSPI   C4A 9534   2.533   7.810   8.334  0.0901  0.3368 -0.0830
  615PSPI   C1B 9535   2.832   7.748   7.138 -0.4244 -0.1813  0.0278
  615PSPI   C2B 9536   2.950   7.449   7.505  0.1692  0.5613 -0.0150
  615PSPI   C3B 9537   3.322   7.367   7.646  0.1318  0.1989 -0.1664
  615PSPI   C4B 9538   3.560   7.071   7.501 -0.2097  0.0256  0.0875
  616PSPI    C1 9539   7.257   8.494   6.326 -0.0857  0.0395  0.0183
  616PSPI    C2 9540   7.482   8.528   5.997  0.0543 -0.1191  0.0960
  616PSPI    C3 9541   7.188   8.790   6.066 -0.1246 -0.2175 -0.2699
  616PSPI   PO4 9542   7.448   8.477   6.545 -0.0924  0.0059 -0.1592
  616PSPI   GL1 9543   7.415   8.618   6.954 -0.1691 -0.1690  0.1422
  616PSPI   GL2 9544   7.397   8.889   7.028 -0.2267 -0.1461 -0.1612
  616PSPI   C1A 9545   7.722   8.375   7.071  0.0706 -0.3082 -0.3432
  616PSPI   C2A 9546   7.971   8.285   7.457 -0.1496  0.1345  0.2171
  616PSPI   C3A 9547   8.198   8.202   7.844  0.2814 -0.1657  0.2899
  616PSPI   C4A 9548   8.244   8.326   8.262 -0.2063 -0.1431  0.0111
  616PSPI   C1B 9549   7.529   8.756   7.461  0.0576 -0.0386 -0.1009
  616PSPI   C2B 9550   7.685   8.506   7.795 -0.3550 -0.1825  0.3191
  616PSPI   C3B 9551   7.746   8.148   8.024  0.1703  0.0978  0.3304
  616PSPI   C4B 9552   7.709   8.048   8.401  0.0482  0.1657 -0.2899
  617PSPI    C1 9553  15.507  12.221   5.955  0.1166  0.1530 -0.3040
  617PSPI    C2 9554  15.800  12.154   6.219 -0.0919 -0.2108 -0.1574
  617PSPI    C3 9555  15.717  11.881   5.939 -0.0538  0.0518 -0.4295
  617PSPI   PO4 9556  15.286  12.281   6.196  0.0278 -0.0242 -0.0295
  617PSPI   GL1 9557  15.269  12.633   6.484 -0.2617  0.2029  0.0203
  617PSPI   GL2 9558  15.035  12.387   6.702 -0.1144  0.1234  0.2179
  617PSPI   C1A 9559  15.185  12.876   6.819  0.0887 -0.3012 -0.2073
  617PSPI   C2A 9560  15.085  12.915   7.258 -0.0775 -0.1417  0.5171
  617PSPI   C3A 9561  14.929  13.113   7.527  0.3154 -0.4861  0.2812
  617PSPI   C4A 9562  15.085  13.498   7.830  0.3481  0.0745  0.2300
  617PSPI   C1B 9563  14.852  12.486   7.130  0.1413 -0.0261  0.0316
  617PSPI   C2B 9564  14.694  12.547   7.583 -0.2032  0.1670 -0.0275
  617PSPI   C3B 9565  14.840  12.666   8.037  0.1844  0.2003 -0.3214
  617PSPI   C4B 9566  14.997  12.792   8.463 -0.2611 -0.1745 -0.2238
  618PSPI    C1 9567   3.601  17.547   6.315 -0.0135  0.0314 -0.0428
  618PSPI    C2 9568   3.620  17.846   6.050  0.0736  0.1171  0.0588
  618PSPI    C3 9569   3.737  17.478   5.944 -0.2357  0.0698 -0.1326
  618PSPI   PO4 9570   3.434  17.558   6.468 -0.0774  0.2590  0.0669
  618PSPI   GL1 9571   3.474  17.591   6.839 -0.1501  0.1641  0.1347
  618PSPI   GL2 9572   3.240  17.478   6.903 -0.1084 -0.2477  0.1545
  618PSPI   C1A 9573   3.511  17.771   7.246 -0.1793  0.1311 -0.1710
  618PSPI   C2A 9574   3.487  17.679   7.630 -0.0973 -0.0265 -0.0184
  618PSPI   C3A 9575   3.715  17.565   7.867  0.0946 -0.1379 -0.1527
  618PSPI   C4A 9576   3.724  17.159   8.161  0.1093 -0.1370 -0.3195
  618PSPI   C1B 9577   3.100  17.441   7.329 -0.0571 -0.1982 -0.2791
  618PSPI   C2B 9578   3.105  17.432   7.712  0.3723 -0.2710 -0.2283
  618PSPI   C3B 9579   3.284  17.430   8.169 -0.0815 -0.2647 -0.0627
  618PSPI   C4B 9580   3.380  17.376   8.570  0.2919  0.0680 -0.1293
  619PSPI    C1 9581  15.349   2.704   6.183  0.1592  0.0464 -0.0510
  619PSPI    C2 9582  15.343   3.095   6.099 -0.0444 -0.0101 -0.3143
  619PSPI    C3 9583  15.612   2.856   5.923  0.0783  0.0093 -0.1555
  619PSPI   PO4 9584  15.326   2.709   6.409  0.1101 -0.1324  0.0797
  619PSPI   GL1 9585  15.203   2.987   6.679 -0.0601 -0.5006  0.2814
  619PSPI   GL2 9586  15.407   3.307   6.818 -0.0021  0.0016  0.0535
  619PSPI   C1A 9587  15.109   2.945   7.095  0.3452 -0.1377 -0.2603
  619PSPI   C2A 9588  15.026   2.852   7.487  0.0200  0.0623  0.0149
  619PSPI   C3A 9589  15.104   2.955   7.858 -0.1811 -0.0635 -0.1357
  619PSPI   C4A 9590  14.860   2.951   8.338  0.0479  0.1243  0.0022
  619PSPI   C1B 9591  15.114   3.438   7.175 -0.2582  0.0251  0.2018
  619PSPI   C2B 9592  15.282   3.417   7.619  0.0504 -0.0495 -0.0644
  619PSPI   C3B 9593  15.244   3.362   8.049  0.2429 -0.0103  0.2862
  619PSPI   C4B 9594  15.337   3.003   8.360 -0.0556 -0.0792  0.1464
  620PSPI    C1 9595   4.263  16.884   6.115  0.0689 -0.2124 -0.2037
  620PSPI    C2 9596   4.139  17.203   5.908  0.3592 -0.0065 -0.0673
  620PSPI    C3 9597   4.037  16.835   5.789  0.0270  0.1343 -0.2303
  620PSPI   PO4 9598   4.190  16.995   6.358 -0.0830  0.2920 -0.0956
  620PSPI   GL1 9599   4.427  17.208   6.631 -0.1894  0.0162  0.1267
  620PSPI   GL2 9600   4.463  17.522   6.757 -0.1485 -0.0874  0.2564
  620PSPI   C1A 9601   4.216  17.149   7.103 -0.0951 -0.1026  0.3528
  620PSPI   C2A 9602   4.081  16.982   7.405 -0.1015  0.1786 -0.1118
  620PSPI   C3A 9603   4.185  16.834   7.732  0.3446  0.2352 -0.0842
  620PSPI   C4A 9604   4.111  16.700   8.209 -0.1633  0.0592 -0.0757
  620PSPI   C1B 9605   4.582  17.687   7.119 -0.1839 -0.0873  0.1560
  620PSPI   C2B 9606   4.671  17.738   7.525 -0.1107  0.0715  0.3223
  620PSPI   C3B 9607   4.787  17.762   7.919  0.1203 -0.0537 -0.0165
  620PSPI   C4B 9608   4.738  17.735   8.314  0.1028 -0.0524  0.0574
  621PSPI    C1 9609   2.571   1.680   6.326 -0.1156  0.3286  0.0308
  621PSPI    C2 9610   2.838   1.784   6.047 -0.0109  0.1616  0.0669
  621PSPI    C3 9611   2.457   1.901   6.013  0.0030  0.1515 -0.1399
  621PSPI   PO4 9612   2.683   1.587   6.497 -0.0873  0.3769  0.0805
  621PSPI   GL1 9613   2.649   1.536   6.879  0.1162  0.0644  0.3123
  621PSPI   GL2 9614   2.949   1.310   6.911 -0.0691 -0.2031 -0.2803
  621PSPI   C1A 9615   2.583   1.845   7.256 -0.2391 -0.0730 -0.3524
  621PSPI   C2A 9616   2.368   2.074   7.578  0.1202 -0.2036 -0.0747
  621PSPI   C3A 9617   1.967   2.082   7.854  0.0765 -0.1387 -0.2182
  621PSPI   C4A 9618   1.650   2.101   8.175 -0.1061 -0.2022  0.3914
  621PSPI   C1B 9619   2.735   1.378   7.346 -0.0541  0.1444  0.2243
  621PSPI   C2B 9620   2.578   1.309   7.821 -0.0200  0.1135 -0.1037
  621PSPI   C3B 9621   2.636   1.074   8.077  0.1748  0.1158  0.1706
  621PSPI   C4B 9622   2.567   1.010   8.506  0.1026 -0.0679 -0.0456
  622PSPI    C1 9623  13.813  14.465   5.964 -0.0313 -0.2159 -0.1536
  622PSPI    C2 9624  13.443  14.505   5.818 -0.0135 -0.0664 -0.1590
  622PSPI    C3 9625  13.759  14.591   5.588  0.0181  0.0471 -0.0742
  622PSPI   PO4 9626  13.851  14.619   6.181 -0.0426  0.0629 -0.1974
  622PSPI   GL1 9627  14.016  14.739   6.567 -0.0362  0.0505  0.0670
  622PSPI   GL2 9628  14.322  14.662   6.481  0.1894  0.2292 -0.0271
  622PSPI   C1A 9629  13.953  14.569   7.010  0.0904 -0.1405 -0.0097
  622PSPI   C2A 9630  13.817  14.515   7.454  0.1727 -0.0935  0.2926
  622PSPI   C3A 9631  13.637  14.489   7.899 -0.3722  0.0063  0.0391
  622PSPI   C4A 9632  13.394  14.573   8.193  0.3545  0.0892  0.0359
  622PSPI   C1B 9633  14.464  14.826   6.815  0.0347  0.5966 -0.0503
  622PSPI   C2B 9634  14.606  14.955   7.183 -0.0295  0.1336 -0.1140
  622PSPI   C3B 9635  14.815  14.849   7.532  0.0236  0.0345  0.1235
  622PSPI   C4B 9636  14.967  15.076   7.824 -0.1283 -0.1099  0.0339
  623PSPI    C1 9637  13.203   9.278   6.409 -0.0822  0.0272  0.2155
  623PSPI    C2 9638  13.399   9.311   6.062  0.0499  0.1681  0.3022
  623PSPI    C3 9639  13.296   8.950   6.200  0.1110  0.1033  0.1802
  623PSPI   PO4 9640  13.443   9.500   6.625  0.1437  0.0097  0.1151
  623PSPI   GL1 9641  13.414   9.385   7.073 -0.2111  0.1917  0.1692
  623PSPI   GL2 9642  13.808   9.275   6.879 -0.1289  0.0921  0.3527
  623PSPI   C1A 9643  13.425   9.265   7.635 -0.1310 -0.0258  0.1363
  623PSPI   C2A 9644  13.448   8.877   7.880  0.0263  0.0610  0.0258
  623PSPI   C3A 9645  13.760   8.608   8.068  0.1223 -0.1284 -0.3083
  623PSPI   C4A 9646  14.008   8.603   8.364  0.0038 -0.2748 -0.3074
  623PSPI   C1B 9647  13.862   9.039   7.337  0.5305  0.1998 -0.0829
  623PSPI   C2B 9648  13.985   9.014   7.800  0.2281  0.1547 -0.1144
  623PSPI   C3B 9649  13.928   9.057   8.223  0.0957  0.1346  0.1278
  623PSPI   C4B 9650  13.840   8.981   8.675 -0.1729  0.5743  0.3012
  624PSPI    C1 9651  15.696   1.564   6.445 -0.1081 -0.1240  0.0180
  624PSPI    C2 9652  15.873   1.726   6.125  0.1036 -0.3496  0.0178
  624PSPI    C3 9653  15.771   1.957   6.435 -0.0305 -0.1426 -0.1776
  624PSPI   PO4 9654  15.745   1.378   6.576  0.4113 -0.1802 -0.0150
  624PSPI   GL1 9655  15.621   1.226   7.009 -0.3322  0.0236 -0.0923
  624PSPI   GL2 9656  15.866   0.979   6.905  0.0304  0.1377  0.1191
  624PSPI   C1A 9657  15.648   1.043   7.454  0.1474 -0.1749  0.2704
  624PSPI   C2A 9658  15.594   1.055   7.910  0.1546 -0.3261  0.1550
  624PSPI   C3A 9659  15.487   1.116   8.351  0.1547  0.0349  0.1029
  624PSPI   C4A 9660  15.298   1.425   8.507  0.0397 -0.2725  0.0134
  624PSPI   C1B 9661  16.137   0.907   7.302  0.0513  0.1218 -0.1322
  624PSPI   C2B 9662  16.069   0.890   7.687  0.1174 -0.1400 -0.3795
  624PSPI   C3B 9663  16.253   0.956   8.078  0.0777 -0.1687 -0.0179
  624PSPI   C4B 9664  16.447   1.065   8.367 -0.2674  0.2056  0.1076
  625PSPI    C1 9665   9.258   2.754   5.834  0.0104 -0.2792  0.2622
  625PSPI    C2 9666   9.353   2.983   5.520 -0.1764  0.0935  0.4703
  625PSPI    C3 9667   9.246   2.601   5.465 -0.1720  0.1443  0.0865
  625PSPI   PO4 9668   9.100   2.868   6.057 -0.1277  0.1269  0.1943
  625PSPI   GL1 9669   9.121   2.732   6.472  0.3547 -0.1822  0.3040
  625PSPI   GL2 9670   8.878   2.947   6.499 -0.1933 -0.3183 -0.0134
  625PSPI   C1A 9671   8.999   2.673   6.912 -0.4613  0.2314  0.0853
  625PSPI   C2A 9672   9.021   2.565   7.380  0.1544 -0.0206 -0.4783
  625PSPI   C3A 9673   8.998   2.558   7.810 -0.0283 -0.0807 -0.1797
  625PSPI   C4A 9674   8.621   2.538   8.078 -0.3184  0.1223 -0.3336
  625PSPI   C1B 9675   8.649   3.059   6.856 -0.3533  0.2065  0.1492
  625PSPI   C2B 9676   8.645   2.854   7.240  0.0850 -0.3133  0.0167
  625PSPI   C3B 9677   8.428   2.591   7.523 -0.3705 -0.2244 -0.1735
  625PSPI   C4B 9678   8.156   2.551   7.916  0.3052 -0.0309 -0.2743
  626PSPI    C1 9679   4.752   0.867   5.763  0.0022  0.0755 -0.1032
  626PSPI    C2 9680   4.413   0.906   5.554 -0.1072 -0.1448  0.0302
  626PSPI    C3 9681   4.402   0.772   5.931  0.1195 -0.0602  0.0684
  626PSPI   PO4 9682   4.922   1.053   5.809 -0.0877  0.1845  0.2794
  626PSPI   GL1 9683   5.114   1.067   6.222  0.0785 -0.0552  0.1168
  626PSPI   GL2 9684   5.175   1.374   6.321  0.1029 -0.2782  0.0946
  626PSPI   C1A 9685   5.030   1.082   6.709  0.2149  0.0108  0.3075
  626PSPI   C2A 9686   5.103   1.177   7.092 -0.0001  0.0022  0.0004
  626PSPI   C3A 9687   4.970   1.235   7.521 -0.0113 -0.1770 -0.2651
  626PSPI   C4A 9688   4.807   1.438   7.972 -0.1200  0.2625 -0.4611
  626PSPI   C1B 9689   5.356   1.380   6.625 -0.1756  0.3511 -0.1678
  626PSPI   C2B 9690   5.618   1.525   7.018  0.1296 -0.0160 -0.2457
  626PSPI   C3B 9691   5.478   1.328   7.419 -0.2669  0.1207 -0.1325
  626PSPI   C4B 9692   5.296   1.446   7.893 -0.0126  0.1575 -0.4579
  627PSPI    C1 9693  10.814  10.393   5.880 -0.1761  0.1176 -0.1142
  627PSPI    C2 9694  11.194  10.457   5.772 -0.1352 -0.0349 -0.0627
  627PSPI    C3 9695  10.902  10.683   5.618 -0.0318  0.0348 -0.1585
  627PSPI   PO4 9696  10.758  10.389   6.167  0.0341 -0.2022  0.0713
  627PSPI   GL1 9697  10.491  10.614   6.470 -0.1325 -0.1407  0.0820
  627PSPI   GL2 9698  10.201  10.609   6.435 -0.0001 -0.1829 -0.1115
  627PSPI   C1A 9699  10.644  10.910   6.633 -0.0065 -0.0601 -0.0067
  627PSPI   C2A 9700  10.796  11.055   7.107 -0.0074 -0.1712  0.0002
  627PSPI   C3A 9701  10.864  11.007   7.633  0.1293 -0.0176  0.1586
  627PSPI   C4A 9702  10.567  10.933   8.016 -0.0270 -0.1416 -0.2705
  627PSPI   C1B 9703  10.179  11.008   6.655 -0.0229  0.1058 -0.0281
  627PSPI   C2B 9704  10.424  11.329   6.735 -0.5750 -0.0565 -0.1670
  627PSPI   C3B 9705  10.782  11.662   6.885 -0.3299 -0.0322  0.0757
  627PSPI   C4B 9706  10.916  11.931   7.202  0.0322  0.1645 -0.0180
  628PSPI    C1 9707  15.488   4.821   6.607  0.1067  0.0931 -0.0750
  628PSPI    C2 9708  15.560   4.927   6.228  0.3914  0.4402  0.0709
  628PSPI    C3 9709  15.802   4.667   6.413 -0.0169 -0.0982 -0.1262
  628PSPI   PO4 9710  15.445   5.116   6.757 -0.0369 -0.1705 -0.1120
  628PSPI   GL1 9711  15.452   5.068   7.155  0.2238 -0.1651 -0.2126
  628PSPI   GL2 9712  15.465   4.681   7.142 -0.2566  0.0189 -0.0325
  628PSPI   C1A 9713  15.411   5.206   7.678 -0.0321 -0.2177  0.1728
  628PSPI   C2A 9714  15.235   4.965   7.997 -0.2624 -0.0881  0.1683
  628PSPI   C3A 9715  15.362   4.858   8.484 -0.2811  0.0946 -0.3883
  628PSPI   C4A 9716  15.610   4.675   8.910 -0.3464 -0.1468 -0.0057
  628PSPI   C1B 9717  15.630   4.745   7.566 -0.0374 -0.0888 -0.2620
  628PSPI   C2B 9718  15.694   4.715   8.048 -0.2017 -0.2591  0.2060
  628PSPI   C3B 9719  15.919   4.399   8.235 -0.1220 -0.0398  0.0016
  628PSPI   C4B 9720  15.898   3.916   8.330  0.2650 -0.1872  0.0327
  629PSPI    C1 9721   2.471  15.842   6.143  0.1007  0.0729  0.0554
  629PSPI    C2 9722   2.094  15.721   6.200  0.0863  0.1196  0.0597
  629PSPI    C3 9723   2.286  15.629   5.861  0.0581  0.1281  0.0415
  629PSPI   PO4 9724   2.505  16.016   6.309 -0.0833  0.0318 -0.0797
  629PSPI   GL1 9725   2.324  16.034   6.623 -0.1375 -0.1081  0.3101
  629PSPI   GL2 9726   2.449  16.316   6.773 -0.0352 -0.3735  0.0119
  629PSPI   C1A 9727   1.998  16.277   6.886  0.3493  0.3724  0.2072
  629PSPI   C2A 9728   1.756  16.278   7.289  0.0668 -0.3444 -0.3528
  629PSPI   C3A 9729   1.605  16.202   7.708  0.1160  0.0254 -0.1787
  629PSPI   C4A 9730   1.454  16.315   8.070  0.2240 -0.2961 -0.2874
  629PSPI   C1B 9731   2.251  16.353   7.262 -0.0751 -0.0316 -0.0425
  629PSPI   C2B 9732   2.111  16.268   7.638 -0.0325  0.0735  0.0782
  629PSPI   C3B 9733   1.988  16.117   8.083  0.2279  0.1381 -0.1612
  629PSPI   C4B 9734   2.122  16.115   8.472  0.3792 -0.1327 -0.1714
  630PSPI    C1 9735  14.469   8.211   6.619  0.1496 -0.0478  0.0477
  630PSPI    C2 9736  14.519   8.356   6.250  0.0805  0.1151  0.1016
  630PSPI    C3 9737  14.223   8.098   6.325  0.0576  0.1278  0.0555
  630PSPI   PO4 9738  14.713   8.180   6.735  0.3416 -0.2312  0.1127
  630PSPI   GL1 9739  14.862   8.131   7.088 -0.1461  0.2030  0.0861
  630PSPI   GL2 9740  14.772   7.814   7.079  0.2032 -0.1782  0.0432
  630PSPI   C1A 9741  15.147   8.364   7.295  0.3604  0.1128  0.1728
  630PSPI   C2A 9742  15.153   8.578   7.732 -0.0320 -0.3255  0.0205
  630PSPI   C3A 9743  15.023   8.545   8.103 -0.2483  0.0092 -0.0124
  630PSPI   C4A 9744  14.786   8.648   8.409 -0.4012 -0.2325 -0.2162
  630PSPI   C1B 9745  14.641   7.833   7.533  0.0734 -0.0615 -0.0949
  630PSPI   C2B 9746  14.620   7.750   7.901 -0.1190  0.0421 -0.2301
  630PSPI   C3B 9747  14.460   7.774   8.250 -0.1349 -0.1000 -0.1980
  630PSPI   C4B 9748  14.340   7.890   8.697 -0.1283  0.4238  0.0235
  631PSPI    C1 9749   7.953  14.270   5.819 -0.3183 -0.0972 -0.0968
  631PSPI    C2 9750   7.964  14.371   5.432  0.1338  0.2343 -0.0050
  631PSPI    C3 9751   8.268  14.169   5.595 -0.0929  0.0215  0.1614
  631PSPI   PO4 9752   7.962  14.473   5.994  0.1784 -0.1158  0.0551
  631PSPI   GL1 9753   8.119  14.383   6.355  0.1905 -0.0867 -0.1389
  631PSPI   GL2 9754   8.408  14.303   6.597  0.1632  0.1643 -0.0372
  631PSPI   C1A 9755   7.958  14.150   6.689 -0.3586  0.0221  0.1205
  631PSPI   C2A 9756   7.697  14.207   7.030  0.0233 -0.0153  0.1774
  631PSPI   C3A 9757   7.813  14.099   7.423  0.3219  0.1469 -0.2421
  631PSPI   C4A 9758   7.859  14.064   7.790  0.0047 -0.0119  0.3996
  631PSPI   C1B 9759   8.301  14.747   6.705 -0.0899  0.2223  0.0686
  631PSPI   C2B 9760   8.393  15.060   7.088  0.0207 -0.0453 -0.0231
  631PSPI   C3B 9761   8.560  15.176   7.489  0.0548  0.1240 -0.0885
  631PSPI   C4B 9762   8.827  15.455   7.655 -0.1674 -0.1105  0.1352
  632PSPI    C1 9763  16.855   7.992   6.428 -0.1120 -0.0792 -0.0575
  632PSPI    C2 9764  17.052   7.750   6.177 -0.1334  0.0204 -0.1711
  632PSPI    C3 9765  16.761   7.987   6.039 -0.2501 -0.0364 -0.0251
  632PSPI   PO4 9766  16.740   7.799   6.587  0.0535  0.3336 -0.3580
  632PSPI   GL1 9767  16.799   7.756   6.946 -0.0226  0.0989  0.1105
  632PSPI   GL2 9768  17.097   7.634   6.898  0.2954 -0.0437  0.0909
  632PSPI   C1A 9769  16.827   7.694   7.307 -0.2369 -0.1173  0.0502
  632PSPI   C2A 9770  16.861   7.818   7.732  0.1564  0.0273 -0.0150
  632PSPI   C3A 9771  16.591   7.910   8.057  0.0617 -0.1151  0.0438
  632PSPI   C4A 9772  16.505   7.859   8.399  0.0411  0.2002  0.3086
  632PSPI   C1B 9773  17.278   7.494   7.315  0.0758 -0.0887 -0.2034
  632PSPI   C2B 9774  17.481   7.451   7.707  0.0877 -0.0365 -0.0243
  632PSPI   C3B 9775  17.854   7.573   7.917 -0.1076 -0.1166 -0.0538
  632PSPI   C4B 9776  17.881   7.858   8.182  0.1813  0.0442  0.1831
  633PSPI    C1 9777   8.929  10.840   6.037  0.0734  0.0926 -0.2586
  633PSPI    C2 9778   8.978  10.540   5.777  0.0706  0.0591 -0.2207
  633PSPI    C3 9779   9.297  10.723   5.933  0.0824 -0.2561  0.1379
  633PSPI   PO4 9780   8.866  10.690   6.239  0.3203  0.4258 -0.0621
  633PSPI   GL1 9781   8.852  10.700   6.620  0.2152 -0.1990 -0.1968
  633PSPI   GL2 9782   9.144  10.720   6.837  0.1418  0.0109  0.1828
  633PSPI   C1A 9783   8.686  10.553   6.931 -0.0939 -0.0477 -0.1089
  633PSPI   C2A 9784   8.808  10.555   7.383 -0.0198 -0.1963 -0.1920
  633PSPI   C3A 9785   8.838  10.736   7.698 -0.0025 -0.0174  0.0343
  633PSPI   C4A 9786   8.608  10.659   8.101 -0.0490  0.0098 -0.2769
  633PSPI   C1B 9787   9.290  10.833   7.282  0.1765 -0.1946 -0.1723
  633PSPI   C2B 9788   9.390  10.749   7.642  0.0952 -0.0111 -0.1407
  633PSPI   C3B 9789   9.459  11.094   7.944  0.1439  0.2794 -0.0247
  633PSPI   C4B 9790   9.627  11.244   8.277 -0.3219  0.1301 -0.0239
  634PSPI    C1 9791  14.595  14.734   5.635  0.0871 -0.3633  0.0792
  634PSPI    C2 9792  14.550  14.925   5.286 -0.2037 -0.1211  0.2447
  634PSPI    C3 9793  14.763  14.587   5.303 -0.0005 -0.0171 -0.1237
  634PSPI   PO4 9794  14.599  14.954   5.776 -0.2055 -0.2137 -0.1554
  634PSPI   GL1 9795  14.612  15.072   6.262  0.0455  0.3636 -0.2690
  634PSPI   GL2 9796  14.600  15.336   6.121 -0.1338 -0.1845  0.0386
  634PSPI   C1A 9797  14.990  14.985   6.565  0.0848 -0.1875  0.0287
  634PSPI   C2A 9798  15.391  14.752   6.516 -0.4151  0.0011  0.0236
  634PSPI   C3A 9799  15.452  14.272   6.637 -0.1883 -0.1743  0.0887
  634PSPI   C4A 9800  15.536  13.837   6.781  0.0578 -0.1609  0.1469
  634PSPI   C1B 9801  14.280  15.265   6.547 -0.1953  0.0787  0.1483
  634PSPI   C2B 9802  14.056  15.132   6.939 -0.0711 -0.0842  0.1435
  634PSPI   C3B 9803  14.050  14.980   7.314  0.0125  0.2020  0.1789
  634PSPI   C4B 9804  14.377  14.624   7.450  0.0951  0.3602 -0.0232
  635POPI    C1 9805  15.038  10.875   6.343  0.0576 -0.1682  0.0972
  635POPI    C2 9806  14.971  10.483   6.383 -0.0860 -0.1477  0.0638
  635POPI    C3 9807  14.796  10.686   6.086 -0.0977 -0.0375  0.1454
  635POPI   PO4 9808  15.051  10.962   6.618 -0.0643  0.2138 -0.1540
  635POPI   GL1 9809  15.133  10.980   7.068 -0.1245 -0.1542  0.0718
  635POPI   GL2 9810  15.450  11.128   7.011 -0.0147 -0.1362 -0.0638
  635POPI   C1A 9811  14.901  11.144   7.368 -0.2088  0.1736 -0.0278
  635POPI   D2A 9812  14.745  11.234   7.698  0.0446 -0.1882 -0.0199
  635POPI   C3A 9813  14.677  11.088   8.077 -0.2509 -0.0711  0.0083
  635POPI   C4A 9814  14.905  10.819   8.373  0.2405  0.1807 -0.0621
  635POPI   C1B 9815  15.368  11.271   7.433 -0.5984  0.0099 -0.0223
  635POPI   C2B 9816  15.262  11.308   7.811  0.0632 -0.1948 -0.2411
  635POPI   C3B 9817  15.129  11.298   8.180 -0.0938 -0.0360  0.0045
  635POPI   C4B 9818  14.940  11.442   8.556  0.1077  0.2248 -0.0324
  636POPI    C1 9819  10.283  16.322   5.818 -0.2102 -0.1689 -0.2546
  636POPI    C2 9820   9.885  16.344   5.787 -0.2247 -0.1309 -0.0572
  636POPI    C3 9821  10.051  16.123   6.076 -0.1036 -0.0291 -0.0481
  636POPI   PO4 9822  10.336  16.645   5.850 -0.2401 -0.0884  0.2089
  636POPI   GL1 9823  10.325  17.070   6.155  0.0159  0.2354 -0.2077
  636POPI   GL2 9824  10.004  16.920   6.381 -0.0157  0.0375 -0.0648
  636POPI   C1A 9825  10.390  17.129   6.601 -0.0073  0.0631  0.0509
  636POPI   D2A 9826  10.872  17.169   6.746  0.1167  0.0490 -0.1674
  636POPI   C3A 9827  10.976  16.909   7.039 -0.0089 -0.0765  0.3592
  636POPI   C4A 9828  11.084  16.412   7.130  0.1301 -0.0272  0.2160
  636POPI   C1B 9829   9.918  16.779   6.826 -0.0148 -0.0335  0.2038
  636POPI   C2B 9830  10.085  16.655   7.273 -0.1544 -0.0820 -0.0295
  636POPI   C3B 9831  10.110  16.823   7.649  0.2367  0.3188  0.0706
  636POPI   C4B 9832  10.317  16.768   8.112 -0.1407  0.2271  0.0626
  637POPI    C1 9833  16.263  12.893   5.835 -0.1906 -0.0717 -0.1204
  637POPI    C2 9834  16.544  13.161   5.931 -0.2615 -0.0199 -0.0567
  637POPI    C3 9835  16.649  12.808   5.774 -0.1619  0.0046 -0.0453
  637POPI   PO4 9836  15.988  12.888   6.164 -0.3931  0.0973 -0.1802
  637POPI   GL1 9837  16.093  13.043   6.610  0.0455 -0.2068 -0.0977
  637POPI   GL2 9838  16.298  13.306   6.650  0.0462 -0.3006 -0.0787
  637POPI   C1A 9839  16.159  13.091   7.155 -0.0033 -0.2684 -0.2257
  637POPI   D2A 9840  16.065  13.466   7.505 -0.2751 -0.0274 -0.0562
  637POPI   C3A 9841  16.126  13.598   7.919 -0.0003 -0.2019  0.0096
  637POPI   C4A 9842  16.158  13.839   8.312  0.0452  0.0063  0.0480
  637POPI   C1B 9843  15.982  13.474   6.920 -0.2194 -0.0884  0.1379
  637POPI   C2B 9844  15.739  13.555   7.153  0.3795 -0.2384  0.0092
  637POPI   C3B 9845  15.646  13.799   7.594 -0.0900  0.2714  0.1719
  637POPI   C4B 9846  15.657  13.533   8.010 -0.1239 -0.1132 -0.1325
  638POPI    C1 9847   7.659  11.621   5.934 -0.1085 -0.0014  0.0156
  638POPI    C2 9848   7.666  11.524   5.546  0.0319  0.1716 -0.0266
  638POPI    C3 9849   7.971  11.421   5.783 -0.0830  0.0103  0.0528
  638POPI   PO4 9850   7.383  11.678   6.032 -0.2202  0.0152 -0.1135
  638POPI   GL1 9851   7.301  11.858   6.497 -0.2300 -0.0715 -0.0729
  638POPI   GL2 9852   7.399  11.570   6.539 -0.1507 -0.0276  0.3485
  638POPI   C1A 9853   6.960  11.703   6.815 -0.0182 -0.0064 -0.0283
  638POPI   D2A 9854   6.723  11.518   7.147 -0.1080 -0.1160 -0.0750
  638POPI   C3A 9855   6.796  11.832   7.524 -0.0786  0.2109 -0.0207
  638POPI   C4A 9856   6.914  11.749   7.937  0.0806  0.0195  0.1014
  638POPI   C1B 9857   7.604  11.784   6.938  0.0184 -0.1551 -0.1126
  638POPI   C2B 9858   7.486  11.830   7.308 -0.1564  0.0394 -0.2741
  638POPI   C3B 9859   7.427  11.913   7.766 -0.0785 -0.1872  0.0848
  638POPI   C4B 9860   7.266  11.973   8.257  0.1565 -0.0070 -0.1269
  639POPI    C1 9861   1.490   6.811   6.680  0.1554 -0.1640 -0.1660
  639POPI    C2 9862   1.719   6.515   6.539  0.2353 -0.0667 -0.2419
  639POPI    C3 9863   1.335   6.540   6.429  0.1660 -0.2737 -0.0550
  639POPI   PO4 9864   1.619   7.043   6.644  0.1259 -0.0447  0.0019
  639POPI   GL1 9865   1.832   7.179   6.907  0.1522 -0.2414 -0.1779
  639POPI   GL2 9866   1.804   7.494   6.885  0.2546 -0.2389  0.0151
  639POPI   C1A 9867   1.991   7.226   7.338  0.0401 -0.3139  0.1582
  639POPI   D2A 9868   2.067   7.424   7.707  0.1113  0.0331 -0.1502
  639POPI   C3A 9869   2.108   7.716   7.920 -0.0855  0.0734 -0.3289
  639POPI   C4A 9870   2.037   7.915   8.211 -0.0329  0.3030  0.0875
  639POPI   C1B 9871   1.850   7.722   7.226  0.0118 -0.1936 -0.3366
  639POPI   C2B 9872   1.654   7.801   7.721 -0.4668 -0.1254  0.4033
  639POPI   C3B 9873   1.500   7.809   8.177  0.1122 -0.0526 -0.1486
  639POPI   C4B 9874   1.308   7.537   8.436  0.3146 -0.0741  0.0987
  640POPI    C1 9875   4.646  17.309   6.024  0.0596 -0.0483  0.0019
  640POPI    C2 9876   4.591  17.008   5.767 -0.0596  0.1398 -0.1960
  640POPI    C3 9877   4.849  17.300   5.680  0.0878  0.0746  0.0150
  640POPI   PO4 9878   4.697  17.181   6.204 -0.1315 -0.0865 -0.1988
  640POPI   GL1 9879   4.902  17.200   6.512  0.2024  0.2630 -0.2391
  640POPI   GL2 9880   5.154  16.995   6.555 -0.0258  0.5821 -0.3964
  640POPI   C1A 9881   4.923  17.308   6.878 -0.0234  0.0250 -0.0820
  640POPI   D2A 9882   4.933  17.197   7.279  0.2654 -0.2005  0.0765
  640POPI   C3A 9883   4.560  17.194   7.446  0.0311  0.2760 -0.1271
  640POPI   C4A 9884   4.524  17.167   7.979 -0.0262 -0.0305  0.1223
  640POPI   C1B 9885   5.172  16.863   6.933  0.1330  0.0023 -0.0599
  640POPI   C2B 9886   5.312  16.653   7.334 -0.0927 -0.2501 -0.0629
  640POPI   C3B 9887   5.267  16.396   7.689 -0.0856 -0.0089 -0.3119
  640POPI   C4B 9888   5.047  16.347   8.036  0.0151  0.0865 -0.2419
  641POPI    C1 9889   4.952  14.902   5.876 -0.0445  0.0937 -0.0569
  641POPI    C2 9890   5.279  14.677   5.827 -0.1161 -0.0387  0.0668
  641POPI    C3 9891   5.052  14.771   5.511 -0.0226 -0.0433 -0.0022
  641POPI   PO4 9892   5.071  15.115   6.016  0.0915 -0.0777 -0.1829
  641POPI   GL1 9893   4.834  15.048   6.381 -0.3264  0.3463 -0.3023
  641POPI   GL2 9894   4.651  15.328   6.537  0.1499  0.1048 -0.2815
  641POPI   C1A 9895   5.089  14.859   6.673 -0.0402  0.2272 -0.0468
  641POPI   D2A 9896   5.200  14.738   7.009  0.0843 -0.2186 -0.1521
  641POPI   C3A 9897   5.000  14.692   7.371  0.2477 -0.0264 -0.1178
  641POPI   C4A 9898   4.928  14.834   7.750 -0.1197  0.4574  0.0041
  641POPI   C1B 9899   5.021  15.340   6.877 -0.0746  0.1416  0.3062
  641POPI   C2B 9900   5.224  15.198   7.167 -0.0093  0.2130  0.1005
  641POPI   C3B 9901   5.310  15.019   7.546  0.3614 -0.1763 -0.1748
  641POPI   C4B 9902   5.473  15.086   7.903  0.1153 -0.0258  0.2507
  642POPI    C1 9903   9.517   2.197   5.520  0.1177 -0.0466 -0.0018
  642POPI    C2 9904   9.802   1.990   5.331  0.1348 -0.0776  0.0578
  642POPI    C3 9905   9.586   2.261   5.131  0.1954 -0.0653  0.0088
  642POPI   PO4 9906   9.709   2.236   5.800 -0.2942  0.3725 -0.1222
  642POPI   GL1 9907   9.812   1.986   6.116  0.1666 -0.1485  0.0143
  642POPI   GL2 9908  10.108   2.227   6.157 -0.3185 -0.1297  0.0874
  642POPI   C1A 9909   9.527   2.151   6.487 -0.0530  0.3707  0.2842
  642POPI   D2A 9910   9.098   2.247   6.622 -0.0403  0.0124  0.2774
  642POPI   C3A 9911   9.119   2.113   7.114  0.2017 -0.0604  0.1795
  642POPI   C4A 9912   9.059   2.079   7.574  0.0403  0.1111 -0.0018
  642POPI   C1B 9913  10.039   1.867   6.576 -0.1451 -0.1524 -0.1134
  642POPI   C2B 9914  10.028   1.596   7.015  0.0611 -0.0284  0.1749
  642POPI   C3B 9915  10.059   1.430   7.421  0.2137  0.0900 -0.0187
  642POPI   C4B 9916   9.894   1.274   7.790  0.0321 -0.1286 -0.0557
  643POPI    C1 9917  15.034  16.537   6.107 -0.1298  0.0928 -0.0753
  643POPI    C2 9918  14.812  16.295   5.878  0.1314 -0.3209  0.0982
  643POPI    C3 9919  15.202  16.340   5.802  0.0483  0.2095 -0.0534
  643POPI   PO4 9920  15.100  16.407   6.317 -0.3304 -0.1491  0.2176
  643POPI   GL1 9921  15.170  16.496   6.688 -0.2252  0.1026  0.3346
  643POPI   GL2 9922  15.308  16.775   6.577 -0.0022  0.1469  0.0529
  643POPI   C1A 9923  15.066  16.315   7.109 -0.0261 -0.0607 -0.0508
  643POPI   D2A 9924  14.888  16.340   7.551 -0.2680  0.2014 -0.1658
  643POPI   C3A 9925  14.488  16.446   7.889 -0.0345 -0.1226 -0.0314
  643POPI   C4A 9926  14.328  16.475   8.246 -0.0265  0.0029 -0.1575
  643POPI   C1B 9927  15.217  16.883   6.997  0.1312 -0.2388 -0.3230
  643POPI   C2B 9928  15.210  16.781   7.534  0.1157  0.1144 -0.0857
  643POPI   C3B 9929  15.246  16.875   8.001 -0.0718 -0.0681 -0.0243
  643POPI   C4B 9930  15.385  16.643   8.446 -0.2518 -0.0726  0.0928
  644POPI    C1 9931  10.123   7.104   6.216 -0.0065 -0.0528 -0.0653
  644POPI    C2 9932   9.915   7.031   5.882 -0.1760  0.0731  0.0107
  644POPI    C3 9933   9.762   6.932   6.238 -0.0351  0.0219  0.0575
  644POPI   PO4 9934  10.312   6.989   6.143  0.1695  0.0156  0.0128
  644POPI   GL1 9935  10.538   6.846   6.433 -0.1977  0.0164 -0.0781
  644POPI   GL2 9936  10.320   6.794   6.656  0.3799  0.0771  0.0647
  644POPI   C1A 9937  10.897   6.924   6.722  0.3502 -0.2952 -0.1764
  644POPI   D2A 9938  11.156   7.086   7.087 -0.2106  0.1742 -0.1711
  644POPI   C3A 9939  11.201   7.052   7.549 -0.2906  0.0588  0.1843
  644POPI   C4A 9940  11.442   6.776   7.806 -0.2019 -0.2303  0.1902
  644POPI   C1B 9941  10.398   6.946   7.109  0.1519  0.1923  0.4141
  644POPI   C2B 9942  10.396   7.115   7.575  0.0500  0.2189 -0.0460
  644POPI   C3B 9943  10.586   7.433   7.905 -0.0086 -0.1499 -0.1014
  644POPI   C4B 9944  10.893   7.348   8.223 -0.0242  0.1563  0.1287
  645POPI    C1 9945   2.536   4.794   6.452  0.0280 -0.3167  0.0507
  645POPI    C2 9946   2.342   4.767   6.103  0.1245 -0.1259 -0.0191
  645POPI    C3 9947   2.281   5.082   6.343  0.1625 -0.1881  0.0728
  645POPI   PO4 9948   2.773   4.799   6.398  0.0820  0.0433  0.0795
  645POPI   GL1 9949   3.140   5.108   6.563 -0.2643 -0.5486  0.0314
  645POPI   GL2 9950   2.895   4.831   6.865  0.4273 -0.0043 -0.1055
  645POPI   C1A 9951   3.222   5.334   7.001 -0.0998  0.0210  0.0376
  645POPI   D2A 9952   3.196   5.715   7.194 -0.1370 -0.1285  0.2055
  645POPI   C3A 9953   3.474   5.993   7.492 -0.0221  0.0600 -0.2483
  645POPI   C4A 9954   3.734   6.081   7.918 -0.2217 -0.0037  0.0658
  645POPI   C1B 9955   2.955   4.952   7.220  0.0391 -0.0801  0.3530
  645POPI   C2B 9956   3.171   5.192   7.441  0.1169 -0.0448  0.1002
  645POPI   C3B 9957   3.163   5.308   7.854 -0.2631  0.0615 -0.1473
  645POPI   C4B 9958   3.164   5.505   8.293  0.0724 -0.1538  0.0791
  646POPI    C1 9959   3.951   3.412   6.375 -0.2968  0.1884  0.1520
  646POPI    C2 9960   3.669   3.128   6.360  0.0034 -0.1040 -0.1392
  646POPI    C3 9961   3.661   3.432   6.100 -0.2290  0.0736  0.0709
  646POPI   PO4 9962   3.943   3.431   6.727  0.2695  0.0899  0.1547
  646POPI   GL1 9963   4.091   3.416   7.072 -0.2508 -0.0288 -0.0981
  646POPI   GL2 9964   4.444   3.657   7.045 -0.0108 -0.0172  0.1793
  646POPI   C1A 9965   3.910   3.680   7.341 -0.3149 -0.2452  0.3610
  646POPI   D2A 9966   3.886   3.803   7.683 -0.1010  0.2596 -0.0700
  646POPI   C3A 9967   3.497   3.935   7.948 -0.1983 -0.0426 -0.0427
  646POPI   C4A 9968   3.227   3.680   7.991  0.0104 -0.1900 -0.0681
  646POPI   C1B 9969   4.357   3.815   7.481 -0.0969 -0.1611 -0.0353
  646POPI   C2B 9970   4.315   3.967   7.912  0.0996  0.0242  0.0807
  646POPI   C3B 9971   3.991   4.203   8.022 -0.0553  0.0117  0.0229
  646POPI   C4B 9972   3.737   4.361   8.448 -0.3322  0.0962 -0.0956
  647POPI    C1 9973   7.744  14.896   5.896  0.0803  0.3060 -0.1375
  647POPI    C2 9974   7.875  14.894   5.518  0.1389 -0.2627 -0.1231
  647POPI    C3 9975   7.601  14.628   5.636 -0.0589  0.0659  0.1801
  647POPI   PO4 9976   7.810  15.219   5.932 -0.2666  0.3525 -0.0641
  647POPI   GL1 9977   7.667  15.385   6.319  0.3637 -0.1101  0.1302
  647POPI   GL2 9978   7.268  15.426   6.323  0.0187 -0.5056  0.2454
  647POPI   C1A 9979   7.798  15.662   6.590  0.0804  0.0989  0.2146
  647POPI   D2A 9980   7.806  16.076   6.542  0.0889  0.1310 -0.2382
  647POPI   C3A 9981   7.878  16.342   6.973 -0.0017  0.0986  0.1310
  647POPI   C4A 9982   7.814  16.425   7.450  0.1454  0.4665 -0.3536
  647POPI   C1B 9983   7.262  15.710   6.691  0.1969  0.2758  0.1080
  647POPI   C2B 9984   7.430  15.958   6.862 -0.1648  0.2239 -0.2837
  647POPI   C3B 9985   7.634  15.861   7.287  0.1582 -0.0947 -0.0122
  647POPI   C4B 9986   7.910  15.933   7.543  0.1879  0.0495  0.1583
  648POPI    C1 9987  11.859  15.632   5.881  0.0149 -0.2118  0.0286
  648POPI    C2 9988  12.238  15.505   5.872  0.0733 -0.0319 -0.1289
  648POPI    C3 9989  11.947  15.274   5.725  0.1186 -0.1773  0.0069
  648POPI   PO4 9990  11.849  15.824   6.085 -0.2027  0.1880  0.0301
  648POPI   GL1 9991  11.736  15.729   6.535  0.0142  0.0669 -0.0457
  648POPI   GL2 9992  11.830  15.537   6.635 -0.2654  0.3820  0.2422
  648POPI   C1A 9993  11.849  16.009   6.892  0.0610  0.0809 -0.0904
  648POPI   D2A 9994  11.788  16.236   7.331 -0.1003  0.0870  0.1811
  648POPI   C3A 9995  11.785  15.999   7.690 -0.1490  0.4715  0.0118
  648POPI   C4A 9996  11.606  15.634   7.902  0.3174 -0.0194 -0.0072
  648POPI   C1B 9997  11.786  15.508   7.003  0.0642 -0.1263 -0.2778
  648POPI   C2B 9998  11.794  15.652   7.366  0.1007 -0.1154  0.3098
  648POPI   C3B 9999  12.060  15.501   7.698 -0.1243 -0.1481 -0.2459
  648POPI   C4B10000  12.312  15.415   8.078 -0.1866  0.2879 -0.0287
  649POPI    C110001   3.487  12.278   6.395  0.0390 -0.0447  0.0282
  649POPI    C210002   3.829  12.112   6.517  0.1348  0.0814 -0.0664
  649POPI    C310003   3.828  12.486   6.376 -0.0967  0.2053  0.2515
  649POPI   PO410004   3.291  12.318   6.636  0.1344 -0.1754  0.2259
  649POPI   GL110005   3.241  12.180   6.947  0.0190 -0.1397  0.2135
  649POPI   GL210006   3.433  11.956   6.941  0.2603  0.1991 -0.1333
  649POPI   C1A10007   3.034  12.261   7.346 -0.1485 -0.0526 -0.3291
  649POPI   D2A10008   2.655  12.187   7.504 -0.1316  0.1409  0.1550
  649POPI   C3A10009   2.804  12.227   7.887  0.1805 -0.0489 -0.1468
  649POPI   C4A10010   3.094  12.448   8.150  0.1239  0.0281 -0.3069
  649POPI   C1B10011   3.523  11.735   7.303  0.1103  0.0265  0.1417
  649POPI   C2B10012   3.318  11.370   7.448  0.0257  0.3894 -0.1793
  649POPI   C3B10013   3.183  11.033   7.722 -0.1299  0.1495  0.1545
  649POPI   C4B10014   2.958  10.586   7.647  0.0974 -0.0243 -0.1446
  650POPI    C110015  16.999   1.038   6.058 -0.0059  0.1057  0.1948
  650POPI    C210016  17.325   0.909   5.865 -0.1257  0.1946 -0.0718
  650POPI    C310017  16.974   0.726   5.809 -0.1513  0.1883  0.1042
  650POPI   PO410018  17.176   1.213   6.242 -0.1356 -0.2599  0.1614
  650POPI   GL110019  17.188   1.178   6.729  0.1086 -0.0507  0.0212
  650POPI   GL210020  17.418   1.417   6.892  0.0284  0.0643 -0.1496
  650POPI   C1A10021  17.121   0.978   7.089  0.2133  0.1932  0.3120
  650POPI   D2A10022  16.915   0.868   7.378  0.4018  0.2574  0.2311
  650POPI   C3A10023  17.130   0.778   7.738 -0.0479 -0.1057 -0.0501
  650POPI   C4A10024  17.386   0.762   8.131 -0.1568  0.1051 -0.0602
  650POPI   C1B10025  17.593   1.224   7.262  0.0232  0.2320  0.1564
  650POPI   C2B10026  17.506   1.123   7.703 -0.1699 -0.0613  0.0626
  650POPI   C3B10027  17.715   1.108   8.116  0.2619  0.1810  0.1323
  650POPI   C4B10028  17.513   0.985   8.571 -0.3130  0.1307 -0.1030
  651POPI    C110029  15.798   2.323   6.065 -0.0351 -0.2347 -0.0785
  651POPI    C210030  16.151   2.140   6.109  0.0711 -0.0528 -0.1618
  651POPI    C310031  16.028   2.249   5.745  0.0017  0.0272 -0.1144
  651POPI   PO410032  15.836   2.471   6.321  0.3124  0.0992  0.3065
  651POPI   GL110033  15.677   2.552   6.698 -0.2146 -0.2328  0.3661
  651POPI   GL210034  15.523   2.207   6.880 -0.0330  0.0834 -0.2613
  651POPI   C1A10035  15.613   2.815   7.092  0.1852 -0.2382  0.1561
  651POPI   D2A10036  15.509   3.000   7.464 -0.1802 -0.1349 -0.1317
  651POPI   C3A10037  15.709   3.273   7.447  0.2953 -0.0850 -0.0281
  651POPI   C4A10038  16.010   3.456   7.183  0.1951 -0.1135  0.0878
  651POPI   C1B10039  15.359   2.459   7.273  0.2088 -0.0848  0.0634
  651POPI   C2B10040  15.285   2.475   7.713 -0.1444 -0.2990 -0.2532
  651POPI   C3B10041  14.988   2.449   7.979 -0.1021 -0.0270 -0.0818
  651POPI   C4B10042  14.901   2.187   8.333 -0.0431 -0.1661 -0.3902
  652POPI    C110043   6.425   0.626   5.985  0.0837 -0.1381  0.0804
  652POPI    C210044   6.629   0.531   5.654 -0.0504 -0.1642  0.0044
  652POPI    C310045   6.578   0.915   5.755 -0.1503 -0.1510 -0.0950
  652POPI   PO410046   6.451   0.503   6.226  0.1313  0.2716  0.0320
  652POPI   GL110047   6.665   0.230   6.591 -0.1385 -0.0255 -0.0415
  652POPI   GL210048   6.899   0.426   6.488  0.0819  0.0481  0.3079
  652POPI   C1A10049   6.380  -0.223   6.768  0.1732 -0.1814  0.2219
  652POPI   D2A10050   6.221  -0.680   6.807  0.3053  0.2072 -0.0303
  652POPI   C3A10051   6.494  -0.828   7.173 -0.0339 -0.1341 -0.4829
  652POPI   C4A10052   6.418  -0.982   7.611 -0.1587 -0.1138  0.4046
  652POPI   C1B10053   6.979   0.419   7.027  0.0740  0.4073 -0.2328
  652POPI   C2B10054   7.241   0.639   7.342 -0.0049 -0.0980 -0.1625
  652POPI   C3B10055   7.361   0.870   7.758 -0.1114  0.1433 -0.1727
  652POPI   C4B10056   7.640   1.007   8.118 -0.2176 -0.2877 -0.1715
  653POPI    C110057   5.693  16.198   6.053  0.0602  0.2012 -0.0042
  653POPI    C210058   6.033  15.989   6.023 -0.1687 -0.1940  0.0764
  653POPI    C310059   5.721  15.898   5.789 -0.1893  0.2350 -0.0724
  653POPI   PO410060   5.690  16.318   6.284  0.0439  0.2308  0.0189
  653POPI   GL110061   5.960  16.281   6.631 -0.0724  0.3008  0.0479
  653POPI   GL210062   5.919  16.558   6.701 -0.1535 -0.0130 -0.1663
  653POPI   C1A10063   6.263  15.953   6.791  0.0310  0.1003  0.0028
  653POPI   D2A10064   6.414  15.883   7.116  0.1799 -0.1100 -0.1865
  653POPI   C3A10065   6.389  15.822   7.471  0.1840 -0.0816 -0.1840
  653POPI   C4A10066   6.636  15.586   7.821 -0.1060 -0.1776 -0.0456
  653POPI   C1B10067   6.189  16.366   7.093  0.1082  0.3650  0.0614
  653POPI   C2B10068   6.164  16.263   7.434 -0.0939  0.0132 -0.1078
  653POPI   C3B10069   6.248  16.125   7.844  0.2580 -0.0324  0.2168
  653POPI   C4B10070   6.080  16.162   8.258 -0.1718  0.1330 -0.2879
  654POPI    C110071   4.680   1.345   6.128  0.0694 -0.0321 -0.2092
  654POPI    C210072   4.536   1.384   5.757 -0.2067  0.0234 -0.0991
  654POPI    C310073   4.533   1.697   6.006  0.2932  0.0818 -0.1552
  654POPI   PO410074   4.540   1.135   6.242  0.4258 -0.1361  0.0135
  654POPI   GL110075   4.461   1.080   6.628 -0.0605  0.1239  0.0658
  654POPI   GL210076   4.316   1.314   6.611  0.5530  0.1846 -0.1944
  654POPI   C1A10077   4.637   1.167   6.974 -0.0402 -0.1173  0.0225
  654POPI   D2A10078   4.455   1.260   7.386  0.1069  0.0622  0.2509
  654POPI   C3A10079   3.998   1.425   7.521 -0.3000 -0.0580  0.2393
  654POPI   C4A10080   3.632   1.572   7.393  0.0917  0.0671  0.0814
  654POPI   C1B10081   4.118   1.344   6.934 -0.0402 -0.0688 -0.0557
  654POPI   C2B10082   3.752   1.096   7.189 -0.0672 -0.1497 -0.1515
  654POPI   C3B10083   3.576   0.963   7.633 -0.0674 -0.1093 -0.2836
  654POPI   C4B10084   3.772   0.849   8.028 -0.0571  0.0982 -0.1054
  655POPI    C110085   8.209  13.061   5.536 -0.1308 -0.2598  0.1637
  655POPI    C210086   7.860  12.865   5.518 -0.3098  0.0635  0.0280
  655POPI    C310087   7.993  13.066   5.199 -0.0881  0.0946  0.1381
  655POPI   PO410088   8.394  12.872   5.670  0.0992  0.2585 -0.3267
  655POPI   GL110089   8.715  12.979   5.952  0.2304  0.4102 -0.1648
  655POPI   GL210090   9.075  13.016   6.180  0.2190 -0.0709 -0.1510
  655POPI   C1A10091   8.613  12.902   6.363  0.3517  0.1530  0.0820
  655POPI   D2A10092   8.401  12.903   6.782  0.4968 -0.0746  0.2487
  655POPI   C3A10093   8.140  12.735   7.009  0.3785 -0.1581  0.3108
  655POPI   C4A10094   8.014  12.850   7.358 -0.0337  0.1272 -0.2349
  655POPI   C1B10095   9.308  13.081   6.502  0.2297 -0.1899 -0.1038
  655POPI   C2B10096   9.268  13.192   6.892 -0.0609 -0.2312  0.1324
  655POPI   C3B10097   9.353  13.211   7.337 -0.0406 -0.2149  0.1202
  655POPI   C4B10098   9.693  13.512   7.596  0.0441  0.0153  0.3127
  656POPI    C110099   2.025   7.932   6.191 -0.2464  0.2275  0.1564
  656POPI    C210100   1.833   8.214   5.983 -0.1482 -0.0410 -0.3127
  656POPI    C310101   2.207   8.111   5.883 -0.0437 -0.0733  0.0959
  656POPI   PO410102   1.768   7.798   6.364 -0.1726 -0.0378  0.0084
  656POPI   GL110103   1.517   7.908   6.701 -0.0936  0.0009  0.2785
  656POPI   GL210104   1.157   7.822   6.591  0.0672 -0.0164  0.0825
  656POPI   C1A10105   1.717   8.199   6.982 -0.1190 -0.1569 -0.1033
  656POPI   D2A10106   2.028   8.528   6.987  0.3911 -0.2372  0.0457
  656POPI   C3A10107   2.076   8.712   7.205 -0.0297  0.1812 -0.1115
  656POPI   C4A10108   1.926   8.962   7.569 -0.1703 -0.0946 -0.0614
  656POPI   C1B10109   1.202   8.026   7.007  0.0442 -0.1982  0.0544
  656POPI   C2B10110   1.413   8.012   7.360 -0.1223  0.0716 -0.2321
  656POPI   C3B10111   1.373   8.196   7.782 -0.2424  0.0806  0.0909
  656POPI   C4B10112   1.281   8.503   8.109  0.0002  0.3880  0.1412
  657POPI    C110113   8.713   2.088   5.911  0.1060 -0.2280 -0.1713
  657POPI    C210114   8.910   2.419   5.802 -0.0058 -0.1714 -0.2033
  657POPI    C310115   9.015   2.064   5.649  0.3018 -0.1936  0.0472
  657POPI   PO410116   8.448   2.155   6.100  0.0799  0.3327  0.2788
  657POPI   GL110117   8.224   1.958   6.461 -0.2291 -0.0021  0.0651
  657POPI   GL210118   8.099   1.827   6.236 -0.0847 -0.2315  0.2812
  657POPI   C1A10119   7.988   1.846   6.889 -0.0834 -0.3187 -0.2018
  657POPI   D2A10120   8.071   1.951   7.377  0.0615 -0.0065 -0.1303
  657POPI   C3A10121   8.254   1.799   7.700 -0.2313 -0.0150  0.0580
  657POPI   C4A10122   8.417   1.797   8.171 -0.1203  0.0096  0.1493
  657POPI   C1B10123   7.787   1.604   6.478  0.2072 -0.0595  0.1598
  657POPI   C2B10124   7.899   1.287   6.895 -0.1464  0.2176  0.0865
  657POPI   C3B10125   7.947   0.971   7.310 -0.2796 -0.0630 -0.1269
  657POPI   C4B10126   8.023   1.051   7.710 -0.0593 -0.0497 -0.0067
  658POPI    C110127   5.846   3.650   6.076 -0.0076 -0.0833  0.1193
  658POPI    C210128   5.993   3.290   6.168 -0.1178 -0.1486  0.0432
  658POPI    C310129   5.937   3.391   5.785 -0.3023 -0.1380  0.0723
  658POPI   PO410130   5.875   3.877   6.287 -0.0850  0.0014 -0.0030
  658POPI   GL110131   6.051   3.884   6.643 -0.2973 -0.0402  0.1963
  658POPI   GL210132   5.979   4.222   6.750  0.0652  0.0787  0.0654
  658POPI   C1A10133   5.968   3.597   6.980 -0.2560 -0.0354 -0.1754
  658POPI   D2A10134   5.962   3.299   7.263  0.1781 -0.4896  0.1927
  658POPI   C3A10135   5.696   3.143   7.613 -0.2198 -0.2670  0.0362
  658POPI   C4A10136   5.680   3.000   7.973 -0.2173 -0.1596  0.0565
  658POPI   C1B10137   5.808   4.065   7.059 -0.0137  0.1656  0.2316
  658POPI   C2B10138   5.910   3.855   7.422 -0.2141 -0.1592  0.2066
  658POPI   C3B10139   5.957   3.989   7.782 -0.0366 -0.3476  0.1981
  658POPI   C4B10140   5.852   4.172   8.127 -0.1323  0.3481 -0.2119
  659POPI    C110141   8.427  12.075   5.817  0.0899  0.0759  0.0271
  659POPI    C210142   8.592  12.407   5.667 -0.0677  0.2346  0.2012
  659POPI    C310143   8.562  12.080   5.440  0.3606  0.2436  0.1231
  659POPI   PO410144   8.505  12.128   6.095 -0.1165  0.1456 -0.1106
  659POPI   GL110145   8.313  11.987   6.518  0.0080  0.1199 -0.0095
  659POPI   GL210146   8.571  11.888   6.694 -0.0250 -0.0529  0.2804
  659POPI   C1A10147   8.084  12.401   6.630  0.2449 -0.0919 -0.0917
  659POPI   D2A10148   7.957  12.734   6.436 -0.1518 -0.2084  0.0015
  659POPI   C3A10149   8.076  13.090   6.416 -0.0054 -0.2461 -0.0363
  659POPI   C4A10150   8.253  13.473   6.522  0.0863  0.1090 -0.0502
  659POPI   C1B10151   8.462  11.952   7.191  0.3282 -0.1606  0.1078
  659POPI   C2B10152   8.546  11.893   7.542 -0.0134  0.3784 -0.2294
  659POPI   C3B10153   8.323  11.672   7.979  0.0893 -0.0083  0.0099
  659POPI   C4B10154   8.451  11.579   8.431 -0.2332 -0.0439 -0.0780
  660POPI    C110155   8.872   4.737   6.367 -0.1696  0.1172 -0.1514
  660POPI    C210156   8.815   4.596   5.997  0.1550  0.0217 -0.1683
  660POPI    C310157   9.100   4.869   6.065  0.1636 -0.0353  0.0284
  660POPI   PO410158   8.661   4.820   6.410  0.0141 -0.0830 -0.0453
  660POPI   GL110159   8.562   4.921   6.865  0.2420 -0.0664  0.1029
  660POPI   GL210160   8.864   5.170   6.825  0.2074  0.1241 -0.1505
  660POPI   C1A10161   8.373   5.083   7.178 -0.1056  0.0602  0.1246
  660POPI   D2A10162   8.130   5.074   7.505 -0.1502 -0.1611  0.1945
  660POPI   C3A10163   8.432   5.011   7.872 -0.0945 -0.1297  0.0000
  660POPI   C4A10164   8.518   5.228   8.279 -0.3159 -0.0220 -0.0625
  660POPI   C1B10165   8.863   5.053   7.247 -0.2501 -0.0322 -0.1421
  660POPI   C2B10166   8.815   5.069   7.553 -0.0288  0.0154  0.2337
  660POPI   C3B10167   8.991   5.291   7.974 -0.1313  0.0178 -0.0705
  660POPI   C4B10168   8.983   5.361   8.370  0.1459  0.0501  0.1099
  661POPI    C110169   0.269  13.307   5.899 -0.1175  0.0121 -0.1289
  661POPI    C210170   0.284  13.697   5.985 -0.2593  0.0193 -0.1342
  661POPI    C310171  -0.068  13.509   5.973 -0.1705 -0.1726  0.1506
  661POPI   PO410172   0.529  13.254   6.074 -0.1415  0.0281  0.0131
  661POPI   GL110173   0.969  13.214   6.306  0.0956 -0.3171 -0.2180
  661POPI   GL210174   1.051  13.577   6.613 -0.1840  0.3703 -0.3486
  661POPI   C1A10175   1.208  13.110   6.590  0.0397  0.0332  0.1662
  661POPI   D2A10176   1.099  12.870   7.011  0.1876  0.1275 -0.0323
  661POPI   C3A10177   1.123  12.913   7.506  0.0315 -0.1672 -0.0732
  661POPI   C4A10178   0.960  12.830   8.059 -0.3984 -0.0391 -0.1819
  661POPI   C1B10179   0.996  13.528   7.054  0.0411  0.1024 -0.1831
  661POPI   C2B10180   0.802  13.248   7.371  0.0693  0.3363 -0.2491
  661POPI   C3B10181   0.655  13.070   7.736 -0.0114  0.2824  0.2600
  661POPI   C4B10182   0.541  13.038   8.194  0.2676 -0.0593 -0.0986
  662POPI    C110183   1.940  17.386   6.422  0.2287  0.0438  0.2719
  662POPI    C210184   1.810  17.106   6.676 -0.0223  0.0240  0.1256
  662POPI    C310185   1.973  16.999   6.327  0.1276  0.0559  0.1850
  662POPI   PO410186   1.650  17.548   6.401  0.4720  0.0259  0.2890
  662POPI   GL110187   1.334  17.533   6.632 -0.4863  0.0659 -0.0843
  662POPI   GL210188   1.555  17.501   6.913  0.0036  0.0631 -0.1398
  662POPI   C1A10189   1.051  17.419   6.927 -0.0181  0.0420 -0.0810
  662POPI   D2A10190   0.943  16.961   7.006 -0.0370 -0.1601  0.1937
  662POPI   C3A10191   0.800  16.779   7.407 -0.1230  0.1112 -0.1569
  662POPI   C4A10192   0.748  16.385   7.469 -0.2233 -0.3680 -0.2080
  662POPI   C1B10193   1.382  17.564   7.266  0.0534 -0.1884 -0.0338
  662POPI   C2B10194   1.376  17.394   7.715 -0.3205 -0.2192 -0.3858
  662POPI   C3B10195   1.331  17.351   8.118  0.1854  0.1343 -0.0025
  662POPI   C4B10196   0.911  17.218   8.271  0.2391 -0.2539 -0.0768
  663POPI    C110197   5.794  10.751   6.200 -0.2850 -0.1370 -0.0196
  663POPI    C210198   6.070  10.520   6.026  0.0052  0.0583  0.1735
  663POPI    C310199   5.927  10.841   5.834 -0.0727 -0.0304  0.0822
  663POPI   PO410200   5.894  10.786   6.411 -0.0328  0.0315 -0.0892
  663POPI   GL110201   6.046  10.544   6.753 -0.0010 -0.1800 -0.1570
  663POPI   GL210202   6.273  10.796   6.807 -0.1036  0.2391 -0.0328
  663POPI   C1A10203   6.042  10.645   7.245 -0.2329  0.0696  0.1962
  663POPI   D2A10204   6.285  10.717   7.603 -0.1140  0.2361  0.0607
  663POPI   C3A10205   6.225  10.483   7.981  0.0012 -0.0032  0.2063
  663POPI   C4A10206   6.408  10.464   8.379  0.3196  0.2424 -0.0021
  663POPI   C1B10207   6.376  10.998   7.158  0.0577 -0.0856 -0.2807
  663POPI   C2B10208   6.622  11.144   7.516  0.0284 -0.0953 -0.1408
  663POPI   C3B10209   6.593  11.164   7.888  0.2012 -0.1299 -0.1129
  663POPI   C4B10210   6.601  11.484   8.295  0.0706 -0.1438 -0.1766
  664POPI    C110211  16.584   7.111   6.213  0.0788 -0.0580 -0.0962
  664POPI    C210212  16.630   7.506   6.167 -0.2342 -0.0327 -0.2111
  664POPI    C310213  16.937   7.260   6.098 -0.0788  0.1787 -0.2837
  664POPI   PO410214  16.517   6.991   6.447 -0.0407 -0.0392 -0.1310
  664POPI   GL110215  16.625   6.893   6.850  0.2800 -0.2183 -0.0798
  664POPI   GL210216  16.369   7.048   6.987  0.1976 -0.1806 -0.3721
  664POPI   C1A10217  16.908   6.673   7.195  0.1729 -0.1884 -0.1708
  664POPI   D2A10218  16.964   6.683   7.655  0.3838  0.0790 -0.1459
  664POPI   C3A10219  16.899   6.360   7.972 -0.2042  0.2623 -0.1108
  664POPI   C4A10220  16.955   5.867   8.156  0.0464 -0.3055 -0.1402
  664POPI   C1B10221  16.407   7.450   7.248  0.1060  0.1148 -0.0834
  664POPI   C2B10222  16.478   7.439   7.726 -0.0368  0.0310  0.1813
  664POPI   C3B10223  16.664   7.415   8.158 -0.1380 -0.0867 -0.0343
  664POPI   C4B10224  17.004   7.222   8.333 -0.0001  0.1264 -0.1534
  665POPI    C110225   3.803   2.623   6.467 -0.0867 -0.0258  0.1929
  665POPI    C210226   3.476   2.770   6.644 -0.0702  0.1080  0.1131
  665POPI    C310227   3.451   2.611   6.278 -0.1147 -0.2182  0.2547
  665POPI   PO410228   3.917   2.457   6.637  0.1721 -0.0233  0.1790
  665POPI   GL110229   3.908   2.317   7.061 -0.1231 -0.0107  0.3649
  665POPI   GL210230   3.654   2.554   7.095 -0.0679  0.0950  0.0744
  665POPI   C1A10231   3.934   2.330   7.452 -0.0471  0.0420  0.0189
  665POPI   D2A10232   3.894   2.254   7.827  0.0551 -0.2323 -0.2725
  665POPI   C3A10233   4.147   2.284   8.177  0.1746 -0.0321 -0.1113
  665POPI   C4A10234   4.482   2.490   8.245 -0.1363  0.1327  0.1699
  665POPI   C1B10235   3.543   2.743   7.592 -0.0670  0.4554 -0.0923
  665POPI   C2B10236   3.544   2.620   8.034  0.2255 -0.1898 -0.1020
  665POPI   C3B10237   3.851   2.637   8.425  0.4955  0.0550  0.1157
  665POPI   C4B10238   3.798   2.497   8.845  0.0440 -0.4993 -0.1389
  666POPI    C110239   4.307  14.103   6.127 -0.0030  0.0791  0.0485
  666POPI    C210240   3.954  14.204   5.971  0.0084  0.0795  0.0232
  666POPI    C310241   4.291  14.354   5.816  0.0210  0.0586  0.0307
  666POPI   PO410242   4.345  14.086   6.335 -0.0132  0.2079  0.1117
  666POPI   GL110243   4.549  14.251   6.616 -0.0978  0.1205 -0.0094
  666POPI   GL210244   4.887  14.408   6.407  0.0816  0.1055  0.0436
  666POPI   C1A10245   4.339  14.385   7.006  0.1062 -0.1294  0.3501
  666POPI   D2A10246   4.497  14.640   7.402 -0.2870 -0.0810 -0.1386
  666POPI   C3A10247   4.305  14.499   7.762 -0.2508  0.1501  0.0870
  666POPI   C4A10248   4.604  14.402   8.089  0.1181 -0.1744  0.0153
  666POPI   C1B10249   5.228  14.331   6.668  0.1283 -0.0018  0.3686
  666POPI   C2B10250   5.543  14.269   7.058 -0.1058 -0.0907 -0.3501
  666POPI   C3B10251   5.895  14.305   7.265  0.2264 -0.0595 -0.1563
  666POPI   C4B10252   6.144  14.159   7.590 -0.1410  0.1727  0.1198
  667POPI    C110253  11.260   2.414   6.018  0.3082 -0.0771 -0.1041
  667POPI    C210254  11.096   2.073   5.886  0.1571 -0.0015 -0.1144
  667POPI    C310255  11.037   2.414   5.686 -0.0214  0.1030  0.1118
  667POPI   PO410256  11.425   2.424   6.025 -0.1581  0.1206  0.0933
  667POPI   GL110257  11.675   2.244   6.405  0.1168  0.1365  0.1767
  667POPI   GL210258  11.748   2.594   6.483  0.1144 -0.2975 -0.0825
  667POPI   C1A10259  11.565   1.973   6.673  0.2540  0.0980 -0.1743
  667POPI   D2A10260  11.332   1.673   6.849  0.1035 -0.1312 -0.1056
  667POPI   C3A10261  11.027   1.391   6.581 -0.1524 -0.0522 -0.0253
  667POPI   C4A10262  10.665   1.362   6.402  0.0342  0.0715  0.1931
  667POPI   C1B10263  11.916   2.485   6.897  0.0361 -0.2802 -0.0732
  667POPI   C2B10264  11.892   2.463   7.358  0.0206  0.0743  0.1264
  667POPI   C3B10265  11.896   2.404   7.766  0.1024  0.1412  0.0198
  667POPI   C4B10266  11.883   2.385   8.258  0.0104  0.3395 -0.0341
  668POPI    C110267  17.182   8.769   6.087  0.2442  0.4389  0.0780
  668POPI    C210268  17.556   8.628   6.061  0.1644  0.1865  0.2601
  668POPI    C310269  17.284   8.527   5.785  0.1062 -0.0260  0.3931
  668POPI   PO410270  17.128   8.767   6.330  0.2419 -0.4428 -0.0206
  668POPI   GL110271  17.228   8.894   6.779  0.0442  0.2318  0.0469
  668POPI   GL210272  17.353   8.674   6.988 -0.2348  0.2683 -0.0045
  668POPI   C1A10273  16.966   9.170   6.983  0.0389  0.4380  0.3623
  668POPI   D2A10274  17.063   9.222   7.441  0.0507  0.1572  0.0072
  668POPI   C3A10275  17.325   8.930   7.671 -0.1816  0.2664  0.0744
  668POPI   C4A10276  17.671   8.902   8.024  0.0759 -0.4815  0.1397
  668POPI   C1B10277  17.296   8.488   7.385 -0.1813  0.1999 -0.1641
  668POPI   C2B10278  17.432   8.486   7.796 -0.0132  0.0819 -0.0177
  668POPI   C3B10279  17.381   8.393   8.179 -0.1175 -0.1718 -0.0365
  668POPI   C4B10280  17.183   8.556   8.558  0.0630  0.1164  0.0684
  669POPI    C110281  11.619  17.229   5.724 -0.0037 -0.1257  0.2324
  669POPI    C210282  11.744  17.225   5.344 -0.2433  0.0283  0.1496
  669POPI    C310283  11.848  16.929   5.592  0.0750  0.0262  0.0177
  669POPI   PO410284  11.724  17.454   5.796  0.3017 -0.1429 -0.3182
  669POPI   GL110285  11.652  17.455   6.211  0.2399  0.0887  0.0181
  669POPI   GL210286  11.492  17.255   6.459 -0.1156  0.0207 -0.0089
  669POPI   C1A10287  11.641  17.639   6.713  0.2559  0.1850 -0.0353
  669POPI   D2A10288  11.567  17.753   7.043  0.2591  0.0532  0.2606
  669POPI   C3A10289  11.200  17.848   7.268  0.2657 -0.0859  0.1123
  669POPI   C4A10290  10.908  17.857   7.451  0.2341 -0.0502  0.1700
  669POPI   C1B10291  11.378  17.212   6.905  0.0297  0.1472  0.0950
  669POPI   C2B10292  11.465  17.357   7.344 -0.1855 -0.0810  0.2835
  669POPI   C3B10293  11.431  17.478   7.716 -0.2211 -0.0092 -0.2765
  669POPI   C4B10294  11.236  17.817   7.817  0.1663  0.2944  0.2242
  670POPI    C110295   2.977  10.010   6.613  0.0011 -0.1399  0.1437
  670POPI    C210296   2.876   9.874   6.251 -0.0974  0.0017  0.1169
  670POPI    C310297   3.109  10.197   6.285 -0.0825 -0.0155  0.1803
  670POPI   PO410298   2.722   9.934   6.758 -0.0193  0.1438 -0.0723
  670POPI   GL110299   2.661   9.949   7.117 -0.3129  0.1691  0.0005
  670POPI   GL210300   2.451  10.226   7.124 -0.2342  0.1857  0.0958
  670POPI   C1A10301   2.921  10.098   7.470 -0.2839  0.1063  0.0005
  670POPI   D2A10302   3.166  10.200   7.858 -0.1559  0.2830 -0.0055
  670POPI   C3A10303   3.372   9.883   8.142  0.3438 -0.3640 -0.0401
  670POPI   C4A10304   3.568   9.572   8.267 -0.1789  0.0624  0.0974
  670POPI   C1B10305   2.381  10.202   7.502  0.2386 -0.1430 -0.3439
  670POPI   C2B10306   2.646  10.144   7.843  0.2574 -0.0561 -0.0033
  670POPI   C3B10307   2.821  10.055   8.218 -0.1712 -0.0745  0.1750
  670POPI   C4B10308   2.756   9.650   8.433 -0.0646  0.1844 -0.0699
  671POPI    C110309  13.185   0.165   6.013 -0.2396  0.1094  0.2026
  671POPI    C210310  12.921   0.454   5.931  0.0372  0.2259 -0.3251
  671POPI    C310311  13.294   0.478   5.789  0.2449 -0.0940  0.1413
  671POPI   PO410312  13.216   0.166   6.262  0.1496 -0.1231  0.2577
  671POPI   GL110313  13.404   0.385   6.660 -0.1721 -0.2813 -0.2924
  671POPI   GL210314  13.650   0.155   6.537 -0.0877 -0.0575 -0.0780
  671POPI   C1A10315  13.462   0.351   7.144  0.0318 -0.0537 -0.1970
  671POPI   D2A10316  13.259   0.448   7.607  0.0772 -0.1111  0.1359
  671POPI   C3A10317  13.405   0.139   7.895  0.1227  0.0658 -0.0163
  671POPI   C4A10318  13.303   0.197   8.376 -0.0731  0.2930 -0.1647
  671POPI   C1B10319  13.909   0.193   6.889  0.1334  0.1479 -0.0333
  671POPI   C2B10320  13.943   0.489   7.317 -0.0384  0.0370 -0.1861
  671POPI   C3B10321  13.910   0.537   7.734  0.0503  0.3639 -0.1760
  671POPI   C4B10322  13.717   0.443   8.129  0.1382 -0.2205  0.2448
  672POPI    C110323   6.023  12.947   5.874  0.0193  0.1513 -0.0238
  672POPI    C210324   5.758  12.949   5.575  0.1387  0.1437 -0.1305
  672POPI    C310325   6.049  12.675   5.582  0.1052  0.1108  0.0209
  672POPI   PO410326   6.060  13.115   5.916  0.1548 -0.3045 -0.0157
  672POPI   GL110327   6.076  13.529   6.142 -0.0403 -0.0181  0.1753
  672POPI   GL210328   5.846  13.532   6.413  0.0853  0.2817  0.0273
  672POPI   C1A10329   6.329  13.735   6.457 -0.0982 -0.2195  0.3394
  672POPI   D2A10330   6.465  13.726   6.808  0.1567 -0.1422 -0.0087
  672POPI   C3A10331   6.490  13.402   7.139 -0.1806  0.1448 -0.1228
  672POPI   C4A10332   6.630  13.038   7.388  0.1481  0.0068  0.1720
  672POPI   C1B10333   6.072  13.390   6.878 -0.2748 -0.2135  0.1745
  672POPI   C2B10334   5.986  13.329   7.363  0.1398  0.0592  0.0929
  672POPI   C3B10335   6.223  13.043   7.688  0.0998 -0.0095  0.0102
  672POPI   C4B10336   6.328  13.090   8.139  0.2144  0.0193  0.0954
  673POPI    C110337   1.535   3.329   6.426 -0.1648  0.2708  0.0838
  673POPI    C210338   1.417   3.602   6.159 -0.0674  0.0878 -0.1504
  673POPI    C310339   1.501   3.230   6.040  0.0808  0.0321  0.1201
  673POPI   PO410340   1.757   3.414   6.541  0.0140 -0.0922 -0.0251
  673POPI   GL110341   1.872   3.311   6.890 -0.0784 -0.0713 -0.1161
  673POPI   GL210342   1.624   3.103   7.053 -0.0013  0.2216 -0.5322
  673POPI   C1A10343   2.133   3.291   7.295 -0.2821 -0.3218  0.2580
  673POPI   D2A10344   2.059   3.025   7.548  0.2418 -0.0766 -0.0279
  673POPI   C3A10345   2.061   2.929   8.058  0.1205  0.3071 -0.0926
  673POPI   C4A10346   1.958   2.514   8.306 -0.0767 -0.1996 -0.1618
  673POPI   C1B10347   1.271   3.337   7.321  0.0362 -0.1956  0.0946
  673POPI   C2B10348   0.984   3.159   7.653 -0.1246  0.1481  0.1993
  673POPI   C3B10349   0.629   3.000   7.848 -0.2697  0.0264 -0.1107
  673POPI   C4B10350   0.507   2.851   8.197  0.1570  0.2122  0.1277
  674POPI    C110351  12.204  11.964   6.121 -0.0312  0.3375 -0.0654
  674POPI    C210352  12.595  11.886   6.084 -0.0486  0.1608  0.1073
  674POPI    C310353  12.391  12.037   5.775  0.0514 -0.2028 -0.1442
  674POPI   PO410354  12.130  11.724   6.341  0.0156  0.2208  0.0155
  674POPI   GL110355  12.149  11.677   6.759  0.0349 -0.1468  0.3254
  674POPI   GL210356  11.787  11.765   6.769 -0.1373 -0.1314 -0.3795
  674POPI   C1A10357  12.213  11.671   7.237  0.1143 -0.1847 -0.0096
  674POPI   D2A10358  12.294  11.540   7.638  0.3196  0.0240 -0.0074
  674POPI   C3A10359  12.142  11.272   7.930 -0.0359 -0.1118  0.0037
  674POPI   C4A10360  12.141  10.786   7.970 -0.1685  0.1890 -0.1025
  674POPI   C1B10361  11.920  12.000   7.096  0.4509 -0.0084  0.0566
  674POPI   C2B10362  11.956  11.959   7.531 -0.0844 -0.1218  0.0137
  674POPI   C3B10363  11.990  11.905   7.978 -0.2776  0.0116 -0.1063
  674POPI   C4B10364  11.939  11.532   8.331 -0.0227  0.0106  0.1606
  675POPI    C110365  16.819   3.947   6.812  0.0961 -0.1011 -0.0863
  675POPI    C210366  16.799   3.929   6.413 -0.1288  0.2041 -0.0924
  675POPI    C310367  16.466   3.985   6.628  0.0351  0.3917  0.1168
  675POPI   PO410368  17.040   4.101   6.866  0.0279 -0.1209 -0.0809
  675POPI   GL110369  17.190   4.304   7.268 -0.2315  0.1348  0.0773
  675POPI   GL210370  17.449   4.056   7.156  0.0110 -0.0446  0.0568
  675POPI   C1A10371  17.031   4.231   7.594 -0.0168  0.1165 -0.1506
  675POPI   D2A10372  16.976   4.229   7.933 -0.0896  0.1242  0.1938
  675POPI   C3A10373  16.627   4.197   8.165  0.2837 -0.0726 -0.3780
  675POPI   C4A10374  16.313   4.240   8.492 -0.1120 -0.0154 -0.0575
  675POPI   C1B10375  17.336   3.776   7.462  0.1824 -0.3215 -0.1125
  675POPI   C2B10376  17.132   3.767   7.823  0.1697  0.2087  0.0864
  675POPI   C3B10377  16.982   3.839   8.310  0.1382 -0.2005  0.0820
  675POPI   C4B10378  17.082   3.654   8.738  0.3573 -0.0140 -0.1536
  676POPI    C110379   3.276   7.424   6.409 -0.1814  0.1749 -0.0461
  676POPI    C210380   3.428   7.514   6.768 -0.3012 -0.0939  0.0753
  676POPI    C310381   3.589   7.671   6.437 -0.0143 -0.0610  0.2271
  676POPI   PO410382   3.304   7.163   6.404  0.2593  0.0004  0.0056
  676POPI   GL110383   3.067   7.035   6.743  0.0649  0.1710  0.0950
  676POPI   GL210384   3.216   6.785   6.992 -0.1730  0.0562  0.1314
  676POPI   C1A10385   3.203   7.307   7.112  0.1698 -0.4509 -0.0443
  676POPI   D2A10386   3.398   7.673   7.283 -0.0169  0.1510 -0.1570
  676POPI   C3A10387   3.501   7.855   7.693 -0.2062  0.0239  0.1328
  676POPI   C4A10388   3.487   7.699   8.083  0.0897 -0.0915 -0.4909
  676POPI   C1B10389   3.110   6.913   7.432 -0.0372 -0.2421  0.2690
  676POPI   C2B10390   3.259   6.897   7.919 -0.1069 -0.0617 -0.0913
  676POPI   C3B10391   3.279   6.809   8.331  0.0815  0.2592 -0.0520
  676POPI   C4B10392   3.578   6.558   8.517 -0.1248  0.0749  0.3185
  677POPI    C110393   0.466   9.169   6.340 -0.0471 -0.2598  0.1712
  677POPI    C210394   0.772   8.949   6.205  0.0841 -0.0427  0.1106
  677POPI    C310395   0.407   8.900   6.050  0.2115  0.1292 -0.2557
  677POPI   PO410396   0.453   9.176   6.619 -0.0543 -0.0293  0.0604
  677POPI   GL110397   0.279   9.366   7.007 -0.1549 -0.0457 -0.3414
  677POPI   GL210398   0.046   9.295   6.853  0.0881 -0.3430 -0.0224
  677POPI   C1A10399   0.375   9.199   7.433  0.2564 -0.0419  0.1454
  677POPI   D2A10400   0.439   9.268   7.836 -0.0577 -0.0621  0.1129
  677POPI   C3A10401   0.459   9.474   8.240 -0.1791  0.0500  0.0322
  677POPI   C4A10402   0.655   9.387   8.635 -0.1207 -0.1362  0.1060
  677POPI   C1B10403  -0.154   9.165   7.205  0.1242 -0.1509  0.2530
  677POPI   C2B10404  -0.125   9.370   7.616  0.0225 -0.1575 -0.0702
  677POPI   C3B10405  -0.042   9.349   8.115 -0.0601  0.2186  0.1227
  677POPI   C4B10406  -0.402   9.105   8.452  0.1633 -0.0284 -0.0785
  678POPI    C110407   2.997   5.705   6.736 -0.1786  0.4508  0.0938
  678POPI    C210408   2.768   5.685   6.409  0.0185 -0.0108 -0.0242
  678POPI    C310409   3.154   5.785   6.377  0.0334 -0.0377  0.0699
  678POPI   PO410410   2.784   5.893   6.878 -0.0909  0.1000  0.1509
  678POPI   GL110411   2.788   6.033   7.158  0.0695  0.1154 -0.2201
  678POPI   GL210412   2.525   6.011   7.373 -0.4934  0.0203  0.0384
  678POPI   C1A10413   2.993   6.051   7.596  0.2331  0.0004  0.4502
  678POPI   D2A10414   3.254   5.871   7.986  0.3010 -0.1818 -0.2285
  678POPI   C3A10415   2.941   5.938   8.239  0.1369 -0.0317  0.2021
  678POPI   C4A10416   2.791   5.980   8.508 -0.1553  0.1254 -0.2085
  678POPI   C1B10417   2.535   6.120   7.788  0.0075 -0.0281 -0.0068
  678POPI   C2B10418   2.406   6.210   8.180  0.1388  0.0492 -0.0945
  678POPI   C3B10419   2.420   6.358   8.558  0.2682 -0.0343 -0.3560
  678POPI   C4B10420   2.224   6.666   8.784  0.0138 -0.2461  0.1001
  679POPI    C110421   8.177   8.992   6.206  0.2219 -0.0102  0.0441
  679POPI    C210422   8.445   8.833   5.954  0.1657  0.1221 -0.1003
  679POPI    C310423   8.254   9.171   5.857 -0.0914  0.0020 -0.0210
  679POPI   PO410424   8.206   9.092   6.404  0.1962 -0.5390  0.0778
  679POPI   GL110425   8.336   9.201   6.846  0.0101 -0.2352 -0.0463
  679POPI   GL210426   8.629   9.362   6.869 -0.0135 -0.0227  0.1802
  679POPI   C1A10427   8.255   9.154   7.217  0.1174 -0.1117  0.2791
  679POPI   D2A10428   8.451   9.065   7.617 -0.4887  0.1119  0.3224
  679POPI   C3A10429   8.486   9.209   7.979 -0.0118  0.2979  0.0010
  679POPI   C4A10430   8.501   9.317   8.413 -0.1226 -0.0094 -0.1494
  679POPI   C1B10431   8.681   9.551   7.293  0.0410 -0.0758  0.3705
  679POPI   C2B10432   8.772   9.479   7.741 -0.2855  0.0974  0.1569
  679POPI   C3B10433   8.816   9.624   8.074  0.0921 -0.1769  0.3657
  679POPI   C4B10434   9.085   9.860   8.345  0.0709  0.0699  0.1982
  680POPI    C110435  15.038   7.254   6.306  0.0316  0.1303 -0.1390
  680POPI    C210436  14.653   7.154   6.349  0.0420  0.1542  0.0139
  680POPI    C310437  14.766   7.389   6.045 -0.0348 -0.0096 -0.1428
  680POPI   PO410438  15.206   7.142   6.517  0.0608 -0.3639  0.1252
  680POPI   GL110439  15.239   6.999   6.974  0.0147 -0.0665 -0.1360
  680POPI   GL210440  15.034   6.830   7.146  0.0478 -0.1126 -0.0728
  680POPI   C1A10441  15.517   6.710   7.062  0.1609 -0.1854  0.0012
  680POPI   D2A10442  15.890   6.842   7.080  0.0755 -0.2210 -0.0160
  680POPI   C3A10443  16.014   7.023   7.447 -0.0876 -0.0219  0.3707
  680POPI   C4A10444  16.175   7.037   7.850  0.1702  0.1056  0.2614
  680POPI   C1B10445  14.924   6.913   7.498 -0.0135 -0.0949 -0.0882
  680POPI   C2B10446  14.753   6.758   7.905 -0.1244  0.1260 -0.0119
  680POPI   C3B10447  14.682   6.812   8.319  0.0748 -0.0696  0.1012
  680POPI   C4B10448  14.911   7.075   8.674  0.0427 -0.1538  0.1305
  681POPI    C110449  12.802  13.174   6.108  0.2351 -0.2248  0.2320
  681POPI    C210450  12.692  12.799   6.021  0.0589 -0.0955 -0.1203
  681POPI    C310451  12.741  13.067   5.728  0.0937  0.1830  0.1350
  681POPI   PO410452  12.967  13.174   6.249 -0.2259 -0.0492  0.1229
  681POPI   GL110453  12.998  13.101   6.649 -0.0380  0.0571 -0.4150
  681POPI   GL210454  12.940  13.463   6.723 -0.1045 -0.2675 -0.0075
  681POPI   C1A10455  13.226  12.902   7.046 -0.0552 -0.1018  0.0588
  681POPI   D2A10456  13.311  12.601   7.283 -0.0723  0.1152 -0.0244
  681POPI   C3A10457  13.401  12.334   7.046  0.0812  0.1661  0.1697
  681POPI   C4A10458  13.323  12.415   6.622 -0.0331 -0.3148 -0.0909
  681POPI   C1B10459  12.959  13.364   7.235  0.0348  0.1594  0.2900
  681POPI   C2B10460  12.781  13.470   7.613  0.2062  0.0142  0.0299
  681POPI   C3B10461  12.514  13.613   8.073  0.0500 -0.0027  0.2030
  681POPI   C4B10462  12.359  13.860   8.456  0.1712 -0.0711  0.0752
  682POPS   CNO10463   0.111   0.570   5.911  0.0599  0.2568  0.0618
  682POPS   PO410464   0.329   0.835   6.250  0.0107  0.1733 -0.0781
  682POPS   GL110465   0.349   0.716   6.660 -0.1357  0.1878  0.0320
  682POPS   GL210466   0.079   0.946   6.797 -0.0199 -0.0087 -0.3392
  682POPS   C1A10467   0.627   0.603   7.079 -0.0967 -0.0472 -0.2681
  682POPS   D2A10468   0.920   0.596   7.359 -0.0185  0.1698 -0.0857
  682POPS   C3A10469   1.167   0.300   7.623  0.2317 -0.0823 -0.0420
  682POPS   C4A10470   0.898   0.024   7.814  0.0650  0.1704 -0.2097
  682POPS   C1B10471  -0.033   0.732   7.179 -0.1207  0.0775 -0.1735
  682POPS   C2B10472   0.054   0.582   7.626 -0.0600 -0.1236 -0.0716
  682POPS   C3B10473   0.196   0.272   7.984 -0.1008  0.2226 -0.0666
  682POPS   C4B10474  -0.054   0.058   8.309  0.0984  0.0126  0.0120
  683POPS   CNO10475   7.646   9.501   5.892  0.0999 -0.0272  0.0532
  683POPS   PO410476   7.460   9.463   6.314  0.0739  0.0711  0.0512
  683POPS   GL110477   7.425   9.440   6.801 -0.1568  0.0385 -0.2250
  683POPS   GL210478   7.183   9.335   6.843 -0.4195  0.2182  0.0008
  683POPS   C1A10479   7.627   9.705   7.077 -0.1569  0.0031  0.0770
  683POPS   D2A10480   7.905  10.027   7.223 -0.1085  0.2634 -0.2034
  683POPS   C3A10481   8.098  10.129   7.626  0.2358 -0.2736  0.1030
  683POPS   C4A10482   8.258  10.308   8.086  0.0287 -0.0471 -0.1519
  683POPS   C1B10483   7.275   9.358   7.321  0.0205  0.1220  0.1892
  683POPS   C2B10484   7.427   9.681   7.513 -0.2538 -0.0468 -0.0458
  683POPS   C3B10485   7.440  10.024   7.809  0.0509  0.1623 -0.0191
  683POPS   C4B10486   7.408  10.117   8.285 -0.1754  0.0209  0.2975
  684POPS   CNO10487   8.494  16.606   5.419  0.0659 -0.0561 -0.0561
  684POPS   PO410488   8.134  16.533   5.747 -0.0639 -0.0655 -0.1920
  684POPS   GL110489   8.084  16.719   6.093 -0.2271  0.1783 -0.1433
  684POPS   GL210490   8.114  17.080   6.086 -0.0667  0.1078 -0.1221
  684POPS   C1A10491   8.023  16.609   6.537  0.2032  0.0899 -0.0439
  684POPS   D2A10492   7.873  16.812   6.788  0.2471 -0.0289  0.1885
  684POPS   C3A10493   7.866  16.866   7.212  0.0573 -0.0548 -0.0368
  684POPS   C4A10494   7.785  17.127   7.456  0.0237 -0.1517  0.2579
  684POPS   C1B10495   8.086  17.091   6.508 -0.1323 -0.3541 -0.0104
  684POPS   C2B10496   8.073  17.231   6.970 -0.1844 -0.1664  0.0158
  684POPS   C3B10497   8.249  17.251   7.358  0.0172  0.0309  0.1179
  684POPS   C4B10498   8.189  17.191   7.801  0.2791  0.0296  0.0445
  685POPS   CNO10499   5.881  10.012   5.953 -0.2198 -0.3468  0.0161
  685POPS   PO410500   6.125  10.020   6.300  0.0709  0.2454 -0.0833
  685POPS   GL110501   6.154   9.987   6.714  0.3485  0.1097 -0.1036
  685POPS   GL210502   6.165   9.708   6.862 -0.0150  0.0585 -0.2879
  685POPS   C1A10503   6.108  10.046   7.209  0.2442  0.1471 -0.0169
  685POPS   D2A10504   6.141  10.177   7.600 -0.3385 -0.0431  0.1353
  685POPS   C3A10505   5.861  10.148   7.981 -0.2649 -0.1463  0.2972
  685POPS   C4A10506   5.730   9.954   8.246 -0.1823 -0.1709  0.0734
  685POPS   C1B10507   6.470   9.751   7.039 -0.1228  0.1749 -0.3098
  685POPS   C2B10508   6.518   9.801   7.492  0.1329 -0.0607  0.3911
  685POPS   C3B10509   6.621  10.196   7.770  0.1424 -0.2637  0.0622
  685POPS   C4B10510   6.905  10.239   8.202  0.1003  0.1606  0.0453
  686POPS   CNO10511  16.208  16.179   5.454 -0.2158 -0.0487  0.2147
  686POPS   PO410512  16.108  15.749   5.705 -0.3533 -0.0152  0.0308
  686POPS   GL110513  16.163  15.808   6.070 -0.1237  0.0414 -0.2089
  686POPS   GL210514  15.966  15.790   6.164  0.2060  0.0660 -0.1563
  686POPS   C1A10515  16.490  15.748   6.408 -0.2777 -0.1530  0.1563
  686POPS   D2A10516  16.934  15.653   6.697 -0.1750 -0.2462 -0.0590
  686POPS   C3A10517  17.023  15.577   7.092 -0.3409  0.1578 -0.0650
  686POPS   C4A10518  16.749  15.818   7.405  0.2192  0.2343 -0.2557
  686POPS   C1B10519  16.083  15.429   6.341  0.1923  0.0591 -0.2518
  686POPS   C2B10520  15.991  14.997   6.371 -0.0679  0.0395  0.1345
  686POPS   C3B10521  15.849  14.661   6.701  0.0306 -0.0296  0.0819
  686POPS   C4B10522  15.711  14.539   7.120 -0.4417  0.1191  0.1633
  687POPS   CNO10523   6.736   7.090   6.547 -0.0081  0.1002 -0.0281
  687POPS   PO410524   7.040   6.934   6.270  0.2811 -0.1422  0.2000
  687POPS   GL110525   7.214   6.719   6.652  0.0424 -0.2125 -0.1551
  687POPS   GL210526   7.520   6.758   6.810  0.0762 -0.0774  0.0134
  687POPS   C1A10527   7.268   6.497   7.109  0.1985  0.3020  0.3903
  687POPS   D2A10528   7.405   6.221   7.404  0.1078 -0.0227 -0.2195
  687POPS   C3A10529   7.227   6.134   7.888  0.1910 -0.1371  0.1087
  687POPS   C4A10530   7.019   6.137   8.273 -0.0896 -0.0629 -0.2520
  687POPS   C1B10531   7.708   6.677   7.112 -0.1933 -0.1450 -0.3888
  687POPS   C2B10532   7.827   6.902   7.516 -0.1941  0.1691 -0.0153
  687POPS   C3B10533   7.651   7.132   7.812  0.1217 -0.0428  0.0133
  687POPS   C4B10534   7.672   7.628   7.886  0.1235 -0.2850 -0.3262
  688POPS   CNO10535   5.224   9.243   5.995 -0.0088  0.0241 -0.1071
  688POPS   PO410536   5.068   8.948   6.259  0.1430  0.0208 -0.0272
  688POPS   GL110537   4.973   9.049   6.767 -0.0107 -0.0546 -0.1971
  688POPS   GL210538   5.016   8.875   7.175 -0.3389  0.1843  0.0765
  688POPS   C1A10539   5.047   9.386   7.067  0.0061  0.2817  0.2280
  688POPS   D2A10540   5.050   9.595   7.464 -0.1658 -0.3058  0.2669
  688POPS   C3A10541   4.654   9.637   7.746  0.1534 -0.0793 -0.0514
  688POPS   C4A10542   4.517   9.599   8.179  0.3183 -0.0249 -0.0068
  688POPS   C1B10543   5.058   8.577   7.490  0.1971 -0.0793  0.3595
  688POPS   C2B10544   4.936   8.400   7.798  0.1694  0.2892 -0.0347
  688POPS   C3B10545   4.641   8.565   8.062 -0.1523 -0.2906  0.0322
  688POPS   C4B10546   4.472   8.600   8.461 -0.0670 -0.0862  0.1261
  689POPS   CNO10547  13.256  15.991   6.367  0.4537 -0.1715  0.2925
  689POPS   PO410548  13.507  16.329   6.354  0.0045 -0.1152 -0.3679
  689POPS   GL110549  13.269  16.412   6.686 -0.0879  0.3387  0.0341
  689POPS   GL210550  12.936  16.275   6.703  0.1880 -0.0055 -0.0711
  689POPS   C1A10551  13.339  16.608   7.087  0.0192  0.1757 -0.0231
  689POPS   D2A10552  13.590  16.608   7.474 -0.0145 -0.0248  0.0594
  689POPS   C3A10553  13.572  16.826   7.690 -0.0467  0.2018 -0.1975
  689POPS   C4A10554  13.425  17.109   8.137 -0.0544  0.3332  0.0139
  689POPS   C1B10555  12.963  16.308   7.113 -0.4043  0.3913 -0.1845
  689POPS   C2B10556  12.982  16.621   7.446  0.1369  0.0101  0.1041
  689POPS   C3B10557  13.059  16.872   7.762  0.0096  0.3754  0.0493
  689POPS   C4B10558  12.779  17.108   8.101  0.2115 -0.1242  0.1199
  690POPS   CNO10559   8.902   8.070   6.272  0.1290  0.0529 -0.1213
  690POPS   PO410560   8.726   7.684   6.318  0.1934 -0.4346 -0.0977
  690POPS   GL110561   8.971   7.574   6.586 -0.0332  0.0257  0.1406
  690POPS   GL210562   8.837   7.839   6.755  0.4493  0.0091 -0.1866
  690POPS   C1A10563   9.076   7.511   6.982  0.1551  0.0508 -0.0030
  690POPS   D2A10564   9.286   7.370   7.101 -0.0505  0.1455  0.0996
  690POPS   C3A10565   9.371   7.332   7.485  0.0803  0.1551  0.4630
  690POPS   C4A10566   9.610   6.939   7.702  0.0761  0.5998 -0.0605
  690POPS   C1B10567   8.499   7.755   7.016 -0.0293 -0.0235 -0.0627
  690POPS   C2B10568   8.172   7.447   7.153  0.0976 -0.1606 -0.2242
  690POPS   C3B10569   8.170   7.256   7.566 -0.0452 -0.0048 -0.1200
  690POPS   C4B10570   8.517   7.111   7.858 -0.0184 -0.1948  0.0444
  691POPS   CNO10571  16.935  14.122   6.290 -0.1849  0.2818  0.0301
  691POPS   PO410572  16.646  13.891   6.061 -0.0609  0.3655  0.1643
  691POPS   GL110573  16.505  13.796   6.500 -0.0286  0.1784  0.1501
  691POPS   GL210574  16.189  13.816   6.542 -0.1915 -0.0540 -0.3210
  691POPS   C1A10575  16.639  13.536   6.911 -0.0514 -0.1507 -0.2002
  691POPS   D2A10576  16.538  13.408   7.232  0.0429  0.2580  0.0841
  691POPS   C3A10577  16.530  13.304   7.715  0.0542  0.1650  0.1130
  691POPS   C4A10578  16.528  13.448   8.143 -0.1297  0.0093 -0.2908
  691POPS   C1B10579  16.336  13.934   7.009  0.2188 -0.0042 -0.3163
  691POPS   C2B10580  16.371  13.820   7.468  0.1634 -0.1292 -0.3138
  691POPS   C3B10581  16.177  14.079   7.746  0.1885  0.0856 -0.0170
  691POPS   C4B10582  15.783  14.050   8.032 -0.2422  0.0815  0.1700
  692POPS   CNO10583  16.913  15.718   6.072 -0.1218 -0.3576  0.2022
  692POPS   PO410584  17.189  16.201   5.987  0.0002  0.1397 -0.0937
  692POPS   GL110585  17.190  16.389   6.459 -0.1682  0.1622  0.0177
  692POPS   GL210586  16.831  16.128   6.403 -0.0064 -0.1359  0.2438
  692POPS   C1A10587  17.421  16.559   6.812  0.0868  0.0587  0.4765
  692POPS   D2A10588  17.416  16.544   7.333  0.0147 -0.1994 -0.3717
  692POPS   C3A10589  17.330  16.402   7.647  0.2563 -0.0279 -0.0078
  692POPS   C4A10590  17.118  16.288   8.136 -0.1833 -0.3783  0.1739
  692POPS   C1B10591  16.585  16.070   6.802 -0.2989  0.3021  0.1277
  692POPS   C2B10592  16.340  16.019   7.253 -0.0246  0.0539 -0.0606
  692POPS   C3B10593  16.339  15.950   7.672 -0.0930 -0.0617  0.2604
  692POPS   C4B10594  16.666  15.984   7.919 -0.0617 -0.0149 -0.1282
  693POPS   CNO10595  17.567   8.429   6.577  0.1574  0.0298  0.0479
  693POPS   PO410596  17.199   8.360   6.642  0.1696  0.0428 -0.1042
  693POPS   GL110597  17.028   8.290   6.985 -0.0457 -0.0922 -0.2084
  693POPS   GL210598  17.229   8.090   7.089 -0.0102  0.1698  0.2301
  693POPS   C1A10599  16.885   8.288   7.487  0.0064 -0.2830  0.5180
  693POPS   D2A10600  16.945   8.359   7.923 -0.0032  0.5245 -0.1878
  693POPS   C3A10601  17.124   8.782   8.071 -0.0699 -0.0107 -0.3752
  693POPS   C4A10602  17.070   9.205   7.922  0.1275 -0.0311  0.4631
  693POPS   C1B10603  17.250   7.970   7.529 -0.3263 -0.4070 -0.1518
  693POPS   C2B10604  17.335   7.863   8.010 -0.0735  0.1694 -0.2502
  693POPS   C3B10605  17.107   8.041   8.321  0.4768 -0.0796  0.0956
  693POPS   C4B10606  16.868   8.160   8.677 -0.1234 -0.1776  0.0248
  694POPS   CNO10607   7.860   4.860   6.100 -0.0223 -0.4212 -0.3351
  694POPS   PO410608   7.745   4.958   6.553  0.1657 -0.1372  0.1418
  694POPS   GL110609   7.662   4.638   6.788 -0.1984  0.2432  0.2317
  694POPS   GL210610   7.623   4.387   6.648  0.2186 -0.1605 -0.0975
  694POPS   C1A10611   7.419   4.427   7.115  0.0754 -0.0535  0.1503
  694POPS   D2A10612   7.243   4.225   7.559  0.0178  0.3575  0.1110
  694POPS   C3A10613   7.367   4.458   7.944  0.0709  0.1769  0.1486
  694POPS   C4A10614   7.500   4.413   8.259 -0.0844 -0.1927 -0.0624
  694POPS   C1B10615   7.685   4.064   6.882  0.0841 -0.3099  0.0549
  694POPS   C2B10616   7.486   3.898   7.216 -0.1097  0.1182 -0.0823
  694POPS   C3B10617   7.568   3.747   7.593  0.0504 -0.0784  0.2169
  694POPS   C4B10618   7.695   3.952   7.913  0.0840 -0.0836 -0.4073
  695POPS   CNO10619  13.170  11.126   6.231 -0.1873  0.0209  0.2427
  695POPS   PO410620  13.341  11.147   6.559 -0.0872 -0.0717 -0.0200
  695POPS   GL110621  13.313  11.075   6.857  0.2624 -0.1032 -0.2526
  695POPS   GL210622  13.086  10.851   6.994 -0.2989  0.1074  0.4193
  695POPS   C1A10623  13.442  11.112   7.307  0.0991  0.2279  0.0856
  695POPS   D2A10624  13.784  11.184   7.488  0.2048 -0.0769  0.1223
  695POPS   C3A10625  13.600  11.354   7.750  0.1051 -0.3488 -0.0779
  695POPS   C4A10626  13.441  11.414   8.220  0.2320  0.0779 -0.1451
  695POPS   C1B10627  13.110  10.808   7.343 -0.2556 -0.1528 -0.1416
  695POPS   C2B10628  13.218  10.984   7.759 -0.0326 -0.1885 -0.0336
  695POPS   C3B10629  12.955  11.079   8.224 -0.1518  0.0043  0.0503
  695POPS   C4B10630  12.501  11.020   8.236  0.2946  0.1706 -0.0177
  696POPS   CNO10631  15.300  10.017   6.268  0.2253  0.0570  0.2262
  696POPS   PO410632  15.484   9.851   6.571 -0.1595  0.0517  0.4335
  696POPS   GL110633  15.397  10.166   6.854 -0.1154  0.0302 -0.0524
  696POPS   GL210634  15.159  10.158   7.060  0.1338  0.1821  0.0292
  696POPS   C1A10635  15.573  10.203   7.341  0.0279  0.1015  0.0451
  696POPS   D2A10636  15.581  10.127   7.762 -0.2872  0.1793  0.1625
  696POPS   C3A10637  15.699  10.377   8.087  0.1045  0.1449  0.3095
  696POPS   C4A10638  15.496  10.070   8.300  0.2825 -0.2025  0.0302
  696POPS   C1B10639  15.146   9.907   7.376 -0.1226  0.1417 -0.0471
  696POPS   C2B10640  15.122   9.836   7.781 -0.1031  0.1246 -0.1948
  696POPS   C3B10641  14.980   9.921   8.206 -0.0904 -0.0206 -0.1311
  696POPS   C4B10642  14.905  10.059   8.616 -0.1149  0.2442 -0.1116
  697POPS   CNO10643   0.001   9.403   6.392 -0.2624 -0.0399 -0.0889
  697POPS   PO410644   0.073   9.861   6.209  0.4909  0.1182  0.0320
  697POPS   GL110645  -0.066   9.930   6.677 -0.0018  0.2429  0.2935
  697POPS   GL210646   0.093   9.862   6.956 -0.0612  0.1216 -0.1025
  697POPS   C1A10647  -0.325  10.125   6.947  0.0936  0.0329  0.0311
  697POPS   D2A10648  -0.770  10.321   7.018  0.0504 -0.2716  0.0594
  697POPS   C3A10649  -0.939  10.043   7.230  0.1481 -0.0940  0.2122
  697POPS   C4A10650  -1.146  10.153   7.590 -0.2230 -0.2572  0.2826
  697POPS   C1B10651   0.143   9.729   7.402 -0.3398 -0.0938 -0.1203
  697POPS   C2B10652   0.151   9.821   7.894  0.1360  0.0686 -0.1166
  697POPS   C3B10653   0.049   9.789   8.245  0.1054  0.0263  0.0380
  697POPS   C4B10654  -0.140   9.669   8.529 -0.0032  0.1134 -0.1026
  698POPS   CNO10655   1.438  14.761   6.429  0.0228  0.0602  0.2334
  698POPS   PO410656   1.122  14.540   6.596  0.1775 -0.1776 -0.1080
  698POPS   GL110657   0.962  14.383   6.910 -0.0883  0.3243 -0.1404
  698POPS   GL210658   0.780  13.995   6.783  0.0994  0.0416  0.0171
  698POPS   C1A10659   0.960  14.219   7.285  0.0182 -0.1355  0.2923
  698POPS   D2A10660   0.930  14.374   7.701  0.0749 -0.0579 -0.0361
  698POPS   C3A10661   0.622  14.120   7.963  0.0911  0.1037  0.0587
  698POPS   C4A10662   0.526  14.068   8.330  0.0192  0.0508 -0.0041
  698POPS   C1B10663   0.607  13.820   7.171  0.3104 -0.2523 -0.0962
  698POPS   C2B10664   0.842  13.821   7.553  0.0728 -0.3369 -0.3417
  698POPS   C3B10665   1.142  13.814   7.881 -0.0723  0.0552  0.0453
  698POPS   C4B10666   1.330  13.659   8.254  0.2007  0.2524  0.1557
  699POPS   CNO10667   8.958   5.630   6.689  0.2621 -0.2433  0.4722
  699POPS   PO410668   9.392   5.609   6.662  0.1180  0.3427  0.1057
  699POPS   GL110669   9.501   5.193   6.919  0.2363  0.0582  0.0724
  699POPS   GL210670   9.339   5.047   7.015 -0.0754  0.3586  0.0322
  699POPS   C1A10671   9.663   5.117   7.312  0.0796  0.0496 -0.1235
  699POPS   D2A10672   9.873   4.907   7.608 -0.1156 -0.0639  0.1452
  699POPS   C3A10673   9.879   4.954   8.098 -0.4453 -0.0068  0.0903
  699POPS   C4A10674  10.112   5.246   8.187 -0.2385  0.0089  0.0614
  699POPS   C1B10675   9.253   4.804   7.359 -0.0568  0.1406 -0.0686
  699POPS   C2B10676   9.026   4.639   7.571  0.1530 -0.2662 -0.0416
  699POPS   C3B10677   8.848   4.759   7.918 -0.2962 -0.0507 -0.1885
  699POPS   C4B10678   9.044   4.855   8.323 -0.1115  0.0989  0.2991
  700POPS   CNO10679  14.321  10.150   5.958  0.0342  0.1749  0.0629
  700POPS   PO410680  14.470  10.341   6.334 -0.1221 -0.1208  0.0365
  700POPS   GL110681  14.616  10.432   6.835 -0.4312  0.0595 -0.2455
  700POPS   GL210682  14.912  10.544   6.854 -0.0163 -0.0512  0.0163
  700POPS   C1A10683  14.396  10.453   7.261 -0.0509  0.2408  0.0691
  700POPS   D2A10684  14.297  10.348   7.699  0.0990  0.0360 -0.1065
  700POPS   C3A10685  13.846  10.500   7.811 -0.3545  0.1158  0.1897
  700POPS   C4A10686  13.655  10.860   7.906 -0.0102  0.3229  0.1000
  700POPS   C1B10687  14.865  10.611   7.318  0.1068 -0.0307 -0.1883
  700POPS   C2B10688  15.132  10.328   7.731 -0.3184  0.0272 -0.1878
  700POPS   C3B10689  15.173  10.401   8.151  0.0129 -0.3425  0.0645
  700POPS   C4B10690  15.201  10.490   8.597 -0.0483 -0.1473 -0.1343
  701POPS   CNO10691  16.130  11.458   5.876  0.1370 -0.0548 -0.1192
  701POPS   PO410692  16.405  11.578   6.261  0.2187  0.0865  0.1271
  701POPS   GL110693  16.388  11.691   6.673  0.1443 -0.1106 -0.2424
  701POPS   GL210694  16.674  11.742   6.700  0.1522 -0.2073  0.2794
  701POPS   C1A10695  16.311  11.926   7.050 -0.1208 -0.1281  0.0513
  701POPS   D2A10696  16.357  12.113   7.376  0.0379 -0.0145  0.2550
  701POPS   C3A10697  16.721  12.084   7.528  0.2070  0.0326 -0.0254
  701POPS   C4A10698  16.871  11.904   7.962  0.1115  0.1438  0.2538
  701POPS   C1B10699  16.815  12.069   6.997  0.0175 -0.0078  0.2701
  701POPS   C2B10700  17.183  12.115   7.267 -0.4017  0.1418  0.0358
  701POPS   C3B10701  17.445  12.139   7.637  0.1499 -0.3016 -0.0169
  701POPS   C4B10702  17.793  12.240   7.925 -0.3111 -0.1443 -0.1179
  702POPS   CNO10703  15.198   0.287   6.568  0.1174 -0.2252 -0.2361
  702POPS   PO410704  15.134  -0.055   6.278  0.0613 -0.0076 -0.1692
  702POPS   GL110705  14.770   0.001   6.542 -0.0628 -0.0144 -0.0225
  702POPS   GL210706  14.637   0.413   6.450  0.0376 -0.1572  0.1650
  702POPS   C1A10707  14.481   0.007   6.893 -0.0493 -0.2008 -0.0279
  702POPS   D2A10708  14.414   0.268   7.196 -0.0964 -0.0105  0.2841
  702POPS   C3A10709  14.319   0.250   7.661  0.2903 -0.1589 -0.2770
  702POPS   C4A10710  14.267   0.390   8.094  0.0140 -0.1973  0.2825
  702POPS   C1B10711  14.446   0.522   6.754  0.1246  0.2521 -0.2731
  702POPS   C2B10712  14.240   0.792   7.023 -0.0179  0.4496  0.0350
  702POPS   C3B10713  14.017   1.038   7.410  0.1526  0.0558 -0.2424
  702POPS   C4B10714  14.133   1.293   7.747 -0.1483  0.1748  0.0086
  703POPS   CNO10715  17.461   3.954   6.650 -0.2839  0.0315 -0.0976
  703POPS   PO410716  17.683   3.656   6.397 -0.0113 -0.0070  0.3226
  703POPS   GL110717  17.960   3.590   6.787  0.0114  0.2036 -0.1985
  703POPS   GL210718  17.968   3.281   6.993 -0.0755 -0.0857  0.1298
  703POPS   C1A10719  17.792   3.699   7.238  0.0419  0.0525 -0.0530
  703POPS   D2A10720  17.768   3.817   7.671  0.0896  0.0250 -0.1226
  703POPS   C3A10721  17.598   3.604   7.999  0.0212 -0.1380 -0.2424
  703POPS   C4A10722  17.271   3.371   8.305  0.2240 -0.0616  0.0372
  703POPS   C1B10723  18.086   3.161   7.431 -0.0788 -0.1843  0.2204
  703POPS   C2B10724  17.980   3.353   7.700 -0.0977  0.0220 -0.0672
  703POPS   C3B10725  18.071   3.333   8.240 -0.2110  0.0347 -0.0160
  703POPS   C4B10726  18.399   3.317   8.551  0.1602  0.1547 -0.1169
  704POPS   CNO10727   4.852   3.939   5.957 -0.1182  0.2290  0.0106
  704POPS   PO410728   4.723   3.841   6.306  0.0008  0.2068  0.1215
  704POPS   GL110729   4.848   3.880   6.766 -0.1748 -0.2031  0.1630
  704POPS   GL210730   5.141   3.949   6.965  0.0304  0.1054 -0.0119
  704POPS   C1A10731   4.900   3.585   7.173  0.2476  0.0652  0.1266
  704POPS   D2A10732   5.040   3.791   7.579  0.2818  0.0081 -0.0471
  704POPS   C3A10733   4.840   3.919   7.965 -0.1848  0.1067  0.3490
  704POPS   C4A10734   4.907   3.974   8.369  0.0184 -0.1061 -0.2318
  704POPS   C1B10735   5.386   4.032   7.316 -0.1434  0.2581 -0.0575
  704POPS   C2B10736   5.450   3.955   7.841  0.2242  0.3481 -0.0018
  704POPS   C3B10737   5.377   4.152   8.256 -0.2328 -0.1166  0.0977
  704POPS   C4B10738   5.212   4.202   8.711 -0.0614  0.0936  0.2085
  705POPS   CNO10739   9.569   9.767   5.934  0.0615  0.2099 -0.0168
  705POPS   PO410740   9.754  10.079   6.291 -0.0637  0.1328  0.4604
  705POPS   GL110741   9.613  10.143   6.737 -0.0786 -0.1937  0.1446
  705POPS   GL210742   9.697  10.418   6.823 -0.1365 -0.0938 -0.0947
  705POPS   C1A10743   9.594   9.961   7.156 -0.0969 -0.0651  0.3084
  705POPS   D2A10744   9.701   9.698   7.559  0.1921 -0.1566 -0.1710
  705POPS   C3A10745   9.653   9.978   7.943  0.0532 -0.0082  0.1972
  705POPS   C4A10746   9.839  10.196   8.375  0.2571  0.2401 -0.2596
  705POPS   C1B10747   9.772  10.487   7.237 -0.2104  0.2080  0.1949
  705POPS   C2B10748   9.830  10.433   7.657 -0.3773  0.0766  0.1127
  705POPS   C3B10749  10.037  10.333   7.982  0.1512  0.1959  0.0456
  705POPS   C4B10750  10.458  10.310   8.034  0.1955  0.2036 -0.0100
  706POPS   CNO10751   7.478  13.185   5.275  0.0458 -0.0749 -0.0641
  706POPS   PO410752   7.386  13.366   5.611  0.1297 -0.1821 -0.3158
  706POPS   GL110753   7.412  13.258   5.921  0.1524  0.1403 -0.1619
  706POPS   GL210754   7.275  13.005   6.115 -0.2196 -0.2158 -0.0128
  706POPS   C1A10755   7.285  13.444   6.337 -0.0373 -0.0093  0.0392
  706POPS   D2A10756   7.459  13.340   6.765 -0.0872 -0.0207 -0.0349
  706POPS   C3A10757   7.944  13.157   6.903 -0.1325 -0.2399 -0.2647
  706POPS   C4A10758   8.296  13.370   7.251 -0.0041 -0.0415  0.0993
  706POPS   C1B10759   7.506  12.985   6.399 -0.1090  0.0416 -0.4086
  706POPS   C2B10760   7.640  12.781   6.778 -0.0546  0.1946  0.4692
  706POPS   C3B10761   7.548  12.726   7.186 -0.1140 -0.3052 -0.2220
  706POPS   C4B10762   7.504  12.805   7.606 -0.1951  0.2530 -0.0741
  707POPS   CNO10763  11.328   5.773   6.640 -0.2034 -0.0427  0.0240
  707POPS   PO410764  10.998   5.413   6.545 -0.0587  0.1236 -0.2402
  707POPS   GL110765  11.066   5.311   6.923  0.0657 -0.2118  0.0782
  707POPS   GL210766  11.222   5.082   6.968  0.1074 -0.0124  0.1167
  707POPS   C1A10767  10.648   5.132   7.195  0.0239 -0.2256 -0.0779
  707POPS   D2A10768  10.508   4.818   7.453 -0.1211 -0.1502 -0.0314
  707POPS   C3A10769  10.323   4.860   7.826 -0.0652  0.2010 -0.1886
  707POPS   C4A10770  10.384   4.899   8.419 -0.1676 -0.1640  0.0173
  707POPS   C1B10771  11.069   4.974   7.366 -0.2772  0.0351 -0.1302
  707POPS   C2B10772  10.916   4.985   7.810 -0.1499 -0.0161  0.2827
  707POPS   C3B10773  10.662   5.137   8.072  0.2364  0.1313 -0.1220
  707POPS   C4B10774  10.860   5.152   8.521  0.0378 -0.1381 -0.0644
  708POPS   CNO10775  13.062  12.159   6.330  0.2377  0.1376 -0.4392
  708POPS   PO410776  12.811  12.321   6.018  0.0303 -0.3805 -0.0771
  708POPS   GL110777  12.604  12.342   6.511 -0.1196  0.0578 -0.0239
  708POPS   GL210778  12.446  12.058   6.628 -0.0304  0.0461  0.0361
  708POPS   C1A10779  12.892  12.494   6.892  0.1099 -0.0115  0.1168
  708POPS   D2A10780  12.875  12.360   7.289 -0.0935  0.0903 -0.2371
  708POPS   C3A10781  12.605  12.630   7.618  0.1302  0.2343  0.2223
  708POPS   C4A10782  12.810  12.722   8.100  0.2184 -0.1073 -0.3456
  708POPS   C1B10783  12.557  12.042   6.948 -0.1925 -0.2062  0.0278
  708POPS   C2B10784  12.380  12.125   7.328  0.1052  0.1066 -0.1453
  708POPS   C3B10785  12.494  12.144   7.793 -0.0498  0.0596 -0.1557
  708POPS   C4B10786  12.377  12.048   8.256  0.1180  0.0927 -0.1471
  709POPS   CNO10787   5.702   2.910   5.952 -0.1044  0.1820 -0.2463
  709POPS   PO410788   5.604   3.080   6.385 -0.1578 -0.1387 -0.1767
  709POPS   GL110789   5.375   3.161   6.784  0.1960 -0.5219 -0.0140
  709POPS   GL210790   5.152   3.423   6.780 -0.2084 -0.1412  0.0234
  709POPS   C1A10791   5.268   3.021   7.164  0.1754  0.1634  0.0238
  709POPS   D2A10792   5.218   2.838   7.602  0.0575 -0.0255 -0.2337
  709POPS   C3A10793   5.206   3.222   7.768 -0.0770 -0.0156 -0.1331
  709POPS   C4A10794   5.136   3.553   8.029 -0.2903 -0.0871  0.0899
  709POPS   C1B10795   5.489   3.545   7.062 -0.1583 -0.0405 -0.2553
  709POPS   C2B10796   5.501   3.567   7.513  0.0635  0.0154  0.1602
  709POPS   C3B10797   5.738   3.560   7.978 -0.0682  0.2780 -0.1952
  709POPS   C4B10798   5.627   3.763   8.317  0.2140  0.0795  0.1118
  710POPS   CNO10799  15.547   6.198   6.476 -0.2208 -0.1347  0.0635
  710POPS   PO410800  15.664   5.821   6.635  0.2320  0.0962 -0.2237
  710POPS   GL110801  15.690   5.960   7.063  0.1059  0.0391  0.3989
  710POPS   GL210802  15.403   6.197   7.125  0.1134 -0.2541  0.1271
  710POPS   C1A10803  15.736   6.125   7.506  0.0207  0.1128  0.3347
  710POPS   D2A10804  15.757   6.263   7.914  0.0265  0.0700 -0.0022
  710POPS   C3A10805  16.057   6.123   8.144  0.2078 -0.0482 -0.1171
  710POPS   C4A10806  16.470   6.245   8.389  0.2123  0.0888  0.0658
  710POPS   C1B10807  15.418   6.504   7.489 -0.2013  0.0718 -0.4622
  710POPS   C2B10808  15.170   6.531   7.805  0.0165  0.2695 -0.0601
  710POPS   C3B10809  15.296   6.557   8.166  0.2380  0.0691 -0.2140
  710POPS   C4B10810  15.635   6.473   8.452  0.0366 -0.4638  0.0786
  711POPS   CNO10811   6.244   7.804   5.984 -0.2980 -0.2403 -0.1407
  711POPS   PO410812   5.901   7.997   6.235 -0.1931 -0.0767 -0.2843
  711POPS   GL110813   6.108   7.739   6.494 -0.1596 -0.0132  0.1332
  711POPS   GL210814   5.872   7.710   6.775 -0.1493 -0.2768  0.1680
  711POPS   C1A10815   6.316   7.526   6.928 -0.0203  0.1343 -0.1189
  711POPS   D2A10816   6.233   7.237   7.049 -0.2117 -0.0256 -0.0652
  711POPS   C3A10817   6.404   6.973   7.376 -0.1695 -0.0532 -0.4226
  711POPS   C4A10818   6.815   7.019   7.635  0.0894 -0.0962 -0.0953
  711POPS   C1B10819   5.957   7.714   7.222 -0.2001  0.0555 -0.5320
  711POPS   C2B10820   6.113   7.476   7.579 -0.1410  0.1095  0.1973
  711POPS   C3B10821   6.121   7.021   7.769  0.1168  0.3433 -0.0742
  711POPS   C4B10822   6.178   6.577   7.898  0.1651 -0.2092 -0.2903
  712POPS   CNO10823  10.098  12.244   5.320 -0.1925 -0.0042  0.1087
  712POPS   PO410824  10.173  12.244   5.888  0.0951  0.1943  0.0910
  712POPS   GL110825  10.261  12.383   6.366  0.0288 -0.0477 -0.1623
  712POPS   GL210826  10.036  12.209   6.421 -0.0243 -0.0726 -0.0491
  712POPS   C1A10827   9.965  12.710   6.638  0.1325 -0.0075  0.1342
  712POPS   D2A10828   9.509  12.785   6.859  0.1883 -0.0705  0.1563
  712POPS   C3A10829   9.348  12.677   7.208  0.0778  0.0750  0.2619
  712POPS   C4A10830   9.051  12.803   7.495 -0.2440  0.0561  0.0392
  712POPS   C1B10831  10.188  12.312   6.854  0.2585  0.0010  0.2453
  712POPS   C2B10832  10.213  12.346   7.368 -0.0643  0.0953 -0.1263
  712POPS   C3B10833  10.271  12.307   7.797 -0.2616 -0.0143  0.1471
  712POPS   C4B10834  10.118  12.062   8.031  0.2113 -0.0317 -0.0547
  713POPS   CNO10835  11.565   3.065   5.470  0.0434  0.0525 -0.3066
  713POPS   PO410836  11.578   3.327   5.828 -0.0373  0.3031 -0.0958
  713POPS   GL110837  11.521   3.381   6.298  0.1872  0.0815  0.3200
  713POPS   GL210838  11.688   3.165   6.449 -0.2123  0.2324 -0.0648
  713POPS   C1A10839  11.193   3.324   6.632 -0.2843 -0.1026 -0.2445
  713POPS   D2A10840  11.044   3.293   6.984 -0.1314  0.0257  0.0451
  713POPS   C3A10841  11.253   3.043   7.261 -0.1494 -0.1011 -0.0458
  713POPS   C4A10842  11.171   3.006   7.668  0.0152  0.1005 -0.0205
  713POPS   C1B10843  11.465   2.929   6.819  0.0102 -0.0257 -0.0776
  713POPS   C2B10844  11.481   2.601   7.148 -0.2055 -0.0370 -0.0278
  713POPS   C3B10845  11.436   2.597   7.589 -0.1225 -0.5657  0.0466
  713POPS   C4B10846  11.460   2.463   8.014  0.0680  0.3700  0.0562
  714POPS   CNO10847   5.314   0.691   5.949  0.1810 -0.3034 -0.2308
  714POPS   PO410848   5.235   0.343   6.194 -0.2878  0.3632 -0.1308
  714POPS   GL110849   5.232   0.619   6.586  0.0527 -0.0949 -0.1230
  714POPS   GL210850   5.396   0.794   6.529 -0.1268  0.1608 -0.0375
  714POPS   C1A10851   5.146   0.669   7.010  0.0203  0.2555  0.2983
  714POPS   D2A10852   5.226   0.737   7.405  0.0148  0.3368  0.0908
  714POPS   C3A10853   5.147   0.515   7.739  0.0975 -0.1113 -0.0786
  714POPS   C4A10854   5.034   0.551   8.210 -0.3004 -0.1281  0.0655
  714POPS   C1B10855   5.536   0.982   6.828  0.1410 -0.2086 -0.0099
  714POPS   C2B10856   5.642   0.887   7.231 -0.1401  0.2678  0.1359
  714POPS   C3B10857   5.785   0.668   7.655 -0.0776  0.0306 -0.1365
  714POPS   C4B10858   5.846   0.523   8.153  0.1194 -0.0071  0.0729
  715POPS   CNO10859   8.940   6.535   6.738 -0.3847  0.1363 -0.1672
  715POPS   PO410860   8.725   6.106   6.702 -0.2498  0.1422 -0.0911
  715POPS   GL110861   8.524   5.893   6.856 -0.0227 -0.0010  0.1144
  715POPS   GL210862   8.453   5.963   7.223  0.0359  0.1036 -0.1896
  715POPS   C1A10863   8.720   5.538   7.174  0.0099 -0.4246 -0.2226
  715POPS   D2A10864   9.181   5.505   7.269 -0.1880  0.1172 -0.1053
  715POPS   C3A10865   9.241   5.254   7.548 -0.0688  0.0640 -0.1889
  715POPS   C4A10866   9.375   4.959   7.853  0.1330  0.1151  0.2254
  715POPS   C1B10867   8.477   6.153   7.651 -0.1264  0.0067  0.1389
  715POPS   C2B10868   8.421   6.180   8.114  0.0493  0.0585  0.3713
  715POPS   C3B10869   7.957   6.215   8.293 -0.1254 -0.1520  0.1122
  715POPS   C4B10870   7.520   6.381   8.373 -0.0240 -0.0538  0.0504
  716POPS   CNO10871   3.028   0.300   6.589 -0.0746 -0.1748 -0.1716
  716POPS   PO410872   3.132   0.741   6.456  0.0916  0.0171  0.1304
  716POPS   GL110873   3.054   0.753   6.890  0.0450  0.0854  0.6093
  716POPS   GL210874   3.324   0.885   6.945 -0.1087  0.0077  0.0585
  716POPS   C1A10875   2.817   0.851   7.283  0.0640 -0.1429 -0.0417
  716POPS   D2A10876   2.777   0.803   7.716  0.3274  0.1133  0.4000
  716POPS   C3A10877   2.435   0.574   7.960  0.0889  0.1247  0.2305
  716POPS   C4A10878   2.164   0.766   8.305  0.0567  0.0297 -0.2732
  716POPS   C1B10879   3.302   0.736   7.327 -0.0022  0.1636 -0.0796
  716POPS   C2B10880   3.291   0.602   7.822  0.2241  0.1642  0.1156
  716POPS   C3B10881   3.388   0.314   8.069  0.2284 -0.2334 -0.0462
  716POPS   C4B10882   3.337   0.244   8.492  0.1765 -0.0612 -0.0928
  717POPS   CNO10883   7.233   4.104   6.695 -0.3587 -0.3894  0.0153
  717POPS   PO410884   6.970   4.425   6.430  0.1634  0.2683  0.0612
  717POPS   GL110885   6.966   4.572   6.825  0.0827  0.2073  0.0477
  717POPS   GL210886   7.200   4.827   6.888  0.0308  0.0729 -0.3338
  717POPS   C1A10887   6.910   4.579   7.244 -0.0683  0.2829 -0.0120
  717POPS   D2A10888   6.741   4.349   7.575 -0.0380  0.3159 -0.0974
  717POPS   C3A10889   6.854   4.603   8.039 -0.2232 -0.1520  0.0014
  717POPS   C4A10890   6.976   4.680   8.375  0.3345 -0.0363  0.1695
  717POPS   C1B10891   7.083   5.114   7.276 -0.2649 -0.1093  0.2322
  717POPS   C2B10892   6.905   5.173   7.716  0.0921 -0.3781 -0.1715
  717POPS   C3B10893   6.841   5.136   8.178 -0.1763  0.0222 -0.3050
  717POPS   C4B10894   6.748   5.124   8.498 -0.0927 -0.0663  0.2850
  718POPS   CNO10895   0.999   0.999   5.898  0.1362 -0.3749  0.0276
  718POPS   PO410896   1.287   1.229   6.254  0.4446 -0.0624 -0.1338
  718POPS   GL110897   1.166   1.181   6.663 -0.1873  0.0999 -0.1177
  718POPS   GL210898   1.143   0.831   6.787 -0.1492 -0.1955 -0.0583
  718POPS   C1A10899   0.943   1.359   7.022  0.0903 -0.0909  0.1893
  718POPS   D2A10900   0.806   1.298   7.478 -0.0452 -0.2163 -0.2106
  718POPS   C3A10901   1.065   1.620   7.791 -0.1387  0.1140  0.0826
  718POPS   C4A10902   0.884   1.810   8.164  0.1105 -0.0843 -0.1510
  718POPS   C1B10903   1.243   1.004   7.304  0.1638  0.0710  0.1221
  718POPS   C2B10904   1.099   0.933   7.802 -0.2643 -0.1454  0.0372
  718POPS   C3B10905   1.123   0.703   8.228  0.1555  0.0241 -0.0119
  718POPS   C4B10906   0.780   0.610   8.579 -0.0942 -0.0048  0.0635
  719POPS   CNO10907  13.085  15.705   6.024 -0.0669  0.2311 -0.2863
  719POPS   PO410908  12.637  15.548   6.189 -0.3120  0.2625 -0.1471
  719POPS   GL110909  12.783  15.648   6.646  0.0233  0.1050 -0.0323
  719POPS   GL210910  12.731  15.360   6.873  0.0573 -0.1939  0.0337
  719POPS   C1A10911  12.778  15.827   7.024  0.0200 -0.1694 -0.2282
  719POPS   D2A10912  12.775  16.013   7.426 -0.0514 -0.3546  0.1440
  719POPS   C3A10913  12.544  16.329   7.577  0.1206  0.0299  0.0923
  719POPS   C4A10914  12.541  16.759   7.748 -0.2441 -0.1396 -0.3298
  719POPS   C1B10915  12.941  15.099   7.147 -0.0980 -0.1435 -0.0622
  719POPS   C2B10916  13.170  15.071   7.560 -0.1504  0.1774  0.0156
  719POPS   C3B10917  13.259  14.721   7.731 -0.1631 -0.1332 -0.0672
  719POPS   C4B10918  13.000  14.420   7.935  0.1142 -0.0116 -0.1861
  720POPS   CNO10919  10.400  13.161   5.776 -0.1257  0.1463  0.2320
  720POPS   PO410920  10.263  13.436   6.073  0.1546  0.3283  0.0193
  720POPS   GL110921  10.095  13.620   6.389 -0.0851 -0.2821 -0.1013
  720POPS   GL210922   9.851  13.750   6.421  0.0502  0.1163 -0.2909
  720POPS   C1A10923  10.054  13.566   6.834  0.0761 -0.0536  0.3078
  720POPS   D2A10924  10.048  13.498   7.268 -0.0460  0.0141  0.0686
  720POPS   C3A10925  10.157  13.764   7.569  0.1383  0.2804 -0.1264
  720POPS   C4A10926  10.232  14.090   7.800 -0.2005 -0.0086 -0.0213
  720POPS   C1B10927   9.873  14.031   6.840  0.0861  0.0123  0.0303
  720POPS   C2B10928   9.877  13.955   7.217  0.0577 -0.0590  0.1138
  720POPS   C3B10929   9.719  14.021   7.708 -0.0787 -0.0259 -0.0042
  720POPS   C4B10930   9.418  14.036   7.922  0.2531 -0.0782  0.0998
  721POPS   CNO10931   7.277   0.467   5.680  0.2487  0.1533 -0.0454
  721POPS   PO410932   7.429  -0.020   5.645  0.1404 -0.1453  0.1878
  721POPS   GL110933   7.422   0.163   6.110 -0.2604  0.0641 -0.3229
  721POPS   GL210934   7.247  -0.098   6.190 -0.1617 -0.3283  0.2892
  721POPS   C1A10935   7.391   0.342   6.549 -0.1883  0.1964 -0.0225
  721POPS   D2A10936   7.502   0.500   6.951 -0.2929  0.1509 -0.1795
  721POPS   C3A10937   7.721   0.460   7.270 -0.0370  0.2501  0.1256
  721POPS   C4A10938   7.704   0.489   7.710  0.2255  0.1125  0.1328
  721POPS   C1B10939   7.126  -0.088   6.599  0.3047 -0.1872 -0.0761
  721POPS   C2B10940   6.838  -0.094   6.987  0.0589  0.0711 -0.4397
  721POPS   C3B10941   6.867   0.096   7.411 -0.3597 -0.2375 -0.1127
  721POPS   C4B10942   6.731   0.139   7.799 -0.0965 -0.1470 -0.0597
  722POPS   CNO10943  15.557  10.947   6.413  0.1837 -0.0866 -0.1544
  722POPS   PO410944  15.600  11.322   6.588  0.2817  0.0198  0.0018
  722POPS   GL110945  15.879  11.318   6.930  0.0316 -0.0421  0.0664
  722POPS   GL210946  16.047  11.482   6.948 -0.0134 -0.3540  0.1785
  722POPS   C1A10947  15.833  11.173   7.306 -0.3488 -0.1035 -0.1347
  722POPS   D2A10948  15.803  11.286   7.722 -0.1672  0.2393 -0.0913
  722POPS   C3A10949  15.939  11.010   8.034 -0.1785  0.4496  0.0185
  722POPS   C4A10950  15.928  11.102   8.521  0.0228 -0.1483 -0.0182
  722POPS   C1B10951  16.046  11.583   7.379 -0.0709  0.2384 -0.1062
  722POPS   C2B10952  16.074  11.757   7.771 -0.2059  0.1130  0.1394
  722POPS   C3B10953  16.009  11.667   8.181 -0.0492  0.3284  0.1363
  722POPS   C4B10954  15.620  11.388   8.320  0.1169 -0.1559 -0.1224
  723POPS   CNO10955   5.656  12.516   6.417 -0.0509 -0.0032  0.0895
  723POPS   PO410956   5.924  12.481   6.051  0.1323 -0.0868  0.0862
  723POPS   GL110957   6.214  12.690   6.367  0.2424  0.1852  0.3261
  723POPS   GL210958   6.440  12.851   6.227 -0.0773 -0.1467 -0.3442
  723POPS   C1A10959   6.225  12.955   6.681 -0.2505 -0.1502 -0.2316
  723POPS   D2A10960   6.230  12.925   7.112 -0.0464 -0.1570 -0.0805
  723POPS   C3A10961   6.499  12.525   7.277  0.2204  0.0523 -0.0044
  723POPS   C4A10962   6.644  12.546   7.771  0.0917 -0.3084 -0.1367
  723POPS   C1B10963   6.765  12.624   6.392 -0.0438  0.1352 -0.2358
  723POPS   C2B10964   7.228  12.562   6.301  0.0838  0.1797  0.0336
  723POPS   C3B10965   7.505  12.347   6.612 -0.6401  0.2559  0.0984
  723POPS   C4B10966   7.649  12.310   6.993  0.0547 -0.1599  0.0681
  724POPS   CNO10967  12.243   3.965   6.340 -0.0187 -0.0825  0.2673
  724POPS   PO410968  12.187   4.176   6.618  0.0250 -0.0697  0.1215
  724POPS   GL110969  12.003   4.042   6.955  0.3229  0.2585  0.0640
  724POPS   GL210970  11.688   4.298   6.841  0.2122 -0.0456  0.0572
  724POPS   C1A10971  11.930   3.824   7.316 -0.2108 -0.1616 -0.0071
  724POPS   D2A10972  11.804   3.846   7.682 -0.1656  0.2119 -0.0224
  724POPS   C3A10973  11.947   3.885   8.054  0.1579 -0.1307 -0.1611
  724POPS   C4A10974  11.777   3.649   8.402 -0.3946 -0.1098 -0.1662
  724POPS   C1B10975  11.527   4.101   7.207  0.1395 -0.0295 -0.1210
  724POPS   C2B10976  11.415   4.097   7.606  0.0262  0.0116  0.2080
  724POPS   C3B10977  11.475   3.916   8.051  0.1454  0.2825 -0.0383
  724POPS   C4B10978  11.242   3.802   8.458 -0.1789 -0.3526 -0.1107
  725POPS   CNO10979  13.622  12.452   6.281  0.0797  0.0953 -0.2063
  725POPS   PO410980  13.815  12.082   6.075 -0.2565  0.4085  0.1095
  725POPS   GL110981  13.848  11.962   6.462 -0.2989  0.1606 -0.1690
  725POPS   GL210982  13.914  12.194   6.652  0.0986 -0.1636 -0.2298
  725POPS   C1A10983  13.534  11.910   6.692 -0.2469 -0.1189 -0.1985
  725POPS   D2A10984  13.401  11.878   7.212 -0.1753 -0.0404 -0.1437
  725POPS   C3A10985  13.374  12.172   7.585 -0.0662 -0.1081  0.2476
  725POPS   C4A10986  13.057  12.500   7.713 -0.1788 -0.1575  0.2838
  725POPS   C1B10987  13.865  12.386   6.908 -0.0551  0.2798  0.2742
  725POPS   C2B10988  13.752  12.376   7.324  0.0780 -0.1015 -0.0505
  725POPS   C3B10989  13.648  12.616   7.694  0.0234 -0.1359 -0.0467
  725POPS   C4B10990  13.450  12.533   8.171  0.1533  0.2365  0.1496
  726POPS   CNO10991   2.703   9.415   6.117 -0.2711 -0.1841 -0.2420
  726POPS   PO410992   2.973   9.194   6.367  0.1770 -0.1045 -0.0468
  726POPS   GL110993   2.871   9.178   6.873 -0.1128  0.0137 -0.0904
  726POPS   GL210994   2.768   9.512   7.047 -0.0354 -0.2391 -0.0958
  726POPS   C1A10995   2.876   9.154   7.332 -0.1025  0.0819 -0.0371
  726POPS   D2A10996   2.838   9.008   7.806 -0.0271  0.2418  0.0940
  726POPS   C3A10997   3.109   8.719   8.152  0.1435 -0.1114 -0.0883
  726POPS   C4A10998   3.061   8.780   8.505 -0.0227  0.3037  0.1500
  726POPS   C1B10999   2.565   9.663   7.544 -0.2284  0.0030 -0.0988
  726POPS   C2B11000   2.334   9.768   7.913  0.0662 -0.1521  0.1124
  726POPS   C3B11001   2.244   9.773   8.347  0.1021 -0.0778  0.0510
  726POPS   C4B11002   2.305   9.604   8.671  0.2714  0.0962 -0.1560
  727POPS   CNO11003  17.121  13.709   6.018  0.2706 -0.1517 -0.0792
  727POPS   PO411004  17.251  13.640   6.378 -0.2436  0.0423  0.1859
  727POPS   GL111005  17.120  13.756   6.729  0.2575 -0.1019 -0.0057
  727POPS   GL211006  17.135  14.027   6.838 -0.0480  0.2251  0.1428
  727POPS   C1A11007  16.980  13.793   7.225 -0.2762 -0.2503  0.0619
  727POPS   D2A11008  16.869  13.766   7.628  0.4746 -0.0158 -0.1830
  727POPS   C3A11009  16.875  14.246   7.760 -0.0791  0.0058 -0.2145
  727POPS   C4A11010  16.662  14.536   8.013 -0.0136 -0.0061  0.1643
  727POPS   C1B11011  17.241  14.224   7.127  0.1396  0.2057  0.0377
  727POPS   C2B11012  17.478  14.172   7.525  0.5818  0.2137  0.0385
  727POPS   C3B11013  17.609  14.536   7.802 -0.1990  0.0412  0.1477
  727POPS   C4B11014  17.805  14.466   8.293 -0.1127 -0.2947 -0.2346
  728POPS   CNO11015  11.967  17.092   6.082  0.1111  0.4026  0.1334
  728POPS   PO411016  11.716  16.856   6.108  0.1232  0.1917 -0.2206
  728POPS   GL111017  11.722  16.741   6.596 -0.1008  0.2557  0.0357
  728POPS   GL211018  11.894  17.038   6.703  0.0434  0.0963  0.4230
  728POPS   C1A11019  11.511  16.588   6.983 -0.0919 -0.1694 -0.0782
  728POPS   D2A11020  11.509  16.605   7.455  0.1424  0.0667  0.1966
  728POPS   C3A11021  11.396  16.334   7.751  0.0097  0.0576 -0.1036
  728POPS   C4A11022  11.174  16.301   8.154 -0.0998  0.0664  0.0132
  728POPS   C1B11023  11.772  16.944   7.160 -0.1363 -0.0460 -0.0184
  728POPS   C2B11024  11.699  17.075   7.708 -0.2593  0.1366 -0.0250
  728POPS   C3B11025  11.668  17.213   8.117  0.0548 -0.1782 -0.3271
  728POPS   C4B11026  11.966  17.196   8.506  0.1491  0.1622 -0.1334
  729POPS   CNO11027   9.284  12.384   5.935  0.0902  0.2133 -0.2111
  729POPS   PO411028   8.981  12.577   5.903 -0.2562 -0.1053 -0.2733
  729POPS   GL111029   8.900  12.492   6.225  0.2924 -0.0391 -0.1999
  729POPS   GL211030   9.224  12.568   6.481 -0.0368 -0.1721 -0.1241
  729POPS   C1A11031   8.660  12.403   6.585  0.0090 -0.4257 -0.3414
  729POPS   D2A11032   8.471  12.436   7.029 -0.0340  0.0328  0.1077
  729POPS   C3A11033   8.166  12.343   7.251  0.0532 -0.2535  0.1993
  729POPS   C4A11034   7.813  12.403   7.487 -0.1565  0.0177 -0.2244
  729POPS   C1B11035   8.975  12.834   6.752 -0.1470  0.0382 -0.1563
  729POPS   C2B11036   8.789  12.832   7.067  0.1505 -0.1580 -0.0069
  729POPS   C3B11037   8.553  12.837   7.455  0.2064 -0.0582 -0.0409
  729POPS   C4B11038   8.236  12.770   7.914 -0.1523  0.1777  0.2580
  730POPS   CNO11039  14.545   2.257   6.087 -0.1383 -0.0342  0.0037
  730POPS   PO411040  14.841   2.101   6.321 -0.0686 -0.1206  0.3126
  730POPS   GL111041  14.636   2.142   6.607  0.1483 -0.0347 -0.2864
  730POPS   GL211042  14.459   2.395   6.629 -0.0491 -0.0797 -0.2575
  730POPS   C1A11043  14.443   2.070   6.990  0.1316 -0.2805  0.3102
  730POPS   D2A11044  14.250   2.099   7.294  0.0461 -0.1031 -0.0084
  730POPS   C3A11045  14.320   1.766   7.663 -0.1506 -0.1519  0.0509
  730POPS   C4A11046  14.628   1.690   7.874 -0.2234 -0.0457  0.0202
  730POPS   C1B11047  14.403   2.797   6.908  0.2164  0.2287  0.0476
  730POPS   C2B11048  14.607   2.939   7.238  0.3628  0.0054 -0.0829
  730POPS   C3B11049  14.713   3.267   7.455 -0.0557 -0.0822  0.1169
  730POPS   C4B11050  14.844   3.576   7.624  0.0418 -0.0952 -0.1063
  731POPS   CNO11051   8.156   8.330   6.084 -0.2647 -0.1590  0.0425
  731POPS   PO411052   7.866   8.567   6.289  0.2461 -0.2109  0.0413
  731POPS   GL111053   7.838   8.773   6.666  0.4586  0.1648 -0.6395
  731POPS   GL211054   7.808   9.167   6.620  0.1436 -0.0533  0.1642
  731POPS   C1A11055   7.990   8.783   7.152 -0.1405 -0.3272 -0.0656
  731POPS   D2A11056   8.050   8.823   7.604  0.0843 -0.3076 -0.0346
  731POPS   C3A11057   7.715   8.995   7.881  0.0452 -0.1518 -0.1649
  731POPS   C4A11058   7.535   9.077   8.191 -0.2110  0.1980 -0.0093
  731POPS   C1B11059   7.841   9.257   7.024 -0.0205 -0.1203 -0.0807
  731POPS   C2B11060   7.760   9.302   7.392 -0.0801  0.2520  0.0644
  731POPS   C3B11061   7.843   9.481   7.700  0.1581 -0.2437  0.1234
  731POPS   C4B11062   8.013   9.428   8.063 -0.2721 -0.1004  0.0602
  732POPS   CNO11063   0.938   4.423   5.997  0.0306 -0.0170 -0.0256
  732POPS   PO411064   0.792   4.215   6.430 -0.1313  0.0666 -0.2646
  732POPS   GL111065   0.682   3.968   6.851  0.2284 -0.0919  0.0189
  732POPS   GL211066   0.930   4.013   7.028 -0.0813 -0.2401 -0.2483
  732POPS   C1A11067   0.460   4.100   7.166  0.2654  0.0394  0.0962
  732POPS   D2A11068   0.450   4.211   7.534 -0.3605 -0.2278 -0.0274
  732POPS   C3A11069   0.574   4.172   7.844  0.1324 -0.4942 -0.1923
  732POPS   C4A11070   0.373   3.872   8.130 -0.2514 -0.1359 -0.1930
  732POPS   C1B11071   1.229   3.891   7.178  0.1955  0.1500  0.0929
  732POPS   C2B11072   1.371   3.767   7.581  0.0121 -0.3923 -0.1110
  732POPS   C3B11073   1.235   3.507   7.890 -0.3564 -0.0653 -0.3983
  732POPS   C4B11074   1.105   3.276   8.166  0.0373  0.0829  0.1486
  733POPS   CNO11075  15.725   8.842   5.841 -0.1975 -0.3417 -0.1418
  733POPS   PO411076  15.846   9.052   6.297  0.1789  0.1803 -0.3191
  733POPS   GL111077  15.981   8.953   6.695 -0.1499 -0.2710  0.1427
  733POPS   GL211078  15.935   9.265   6.884  0.2055 -0.0914  0.1651
  733POPS   C1A11079  15.819   8.881   7.171 -0.1676 -0.1027 -0.1728
  733POPS   D2A11080  15.608   8.750   7.679  0.0744  0.1713  0.2706
  733POPS   C3A11081  15.378   8.978   7.964 -0.0034 -0.4724 -0.0220
  733POPS   C4A11082  14.988   8.998   8.116 -0.4402 -0.0047  0.0328
  733POPS   C1B11083  16.150   9.543   7.211  0.3824 -0.4179 -0.1588
  733POPS   C2B11084  16.259   9.635   7.595 -0.4081  0.2721 -0.1532
  733POPS   C3B11085  16.281   9.397   8.018  0.0111  0.1898 -0.0688
  733POPS   C4B11086  16.462   9.586   8.471  0.3797 -0.3859 -0.0346
  734POPS   CNO11087   5.235  16.147   5.890  0.1446  0.3394  0.1110
  734POPS   PO411088   5.202  16.449   6.226  0.0500 -0.1127 -0.0349
  734POPS   GL111089   5.419  16.494   6.691  0.3513 -0.0829 -0.1611
  734POPS   GL211090   5.328  16.213   6.904 -0.1196 -0.0423 -0.0162
  734POPS   C1A11091   5.676  16.409   7.145 -0.1128  0.2068  0.1582
  734POPS   D2A11092   5.749  16.445   7.614  0.0405 -0.1567 -0.0728
  734POPS   C3A11093   6.012  16.575   7.885 -0.0713 -0.0252  0.2536
  734POPS   C4A11094   6.251  16.841   8.182 -0.1354 -0.1557  0.1122
  734POPS   C1B11095   5.391  16.057   7.346  0.1355 -0.2294 -0.1103
  734POPS   C2B11096   5.402  15.954   7.834 -0.1886 -0.0904  0.0878
  734POPS   C3B11097   5.670  16.063   8.029 -0.1915  0.1099 -0.0292
  734POPS   C4B11098   5.610  16.371   8.400  0.0755 -0.0448 -0.0073
  735POPS   CNO11099  14.766   4.284   6.287  0.0921 -0.1393 -0.0768
  735POPS   PO411100  15.093   3.937   6.352  0.0985 -0.4467 -0.0822
  735POPS   GL111101  15.340   3.824   6.653  0.0316  0.0695  0.1473
  735POPS   GL211102  15.639   3.910   6.564 -0.0596 -0.1250 -0.2738
  735POPS   C1A11103  15.524   3.780   7.054 -0.0213  0.1129 -0.0999
  735POPS   D2A11104  15.656   3.762   7.434 -0.1741 -0.0960  0.0511
  735POPS   C3A11105  16.105   3.833   7.573  0.0362 -0.0107 -0.2368
  735POPS   C4A11106  16.283   3.931   8.031  0.0407  0.2374 -0.0902
  735POPS   C1B11107  16.008   3.887   6.901 -0.0212 -0.2128  0.0431
  735POPS   C2B11108  16.426   3.927   7.157 -0.0951 -0.1889 -0.0902
  735POPS   C3B11109  16.798   3.853   7.381 -0.2796  0.1087 -0.0252
  735POPS   C4B11110  16.665   3.652   7.839 -0.1247 -0.1239  0.1882
  736POPS   CNO11111   3.951  14.702   6.014 -0.0725 -0.0107 -0.0856
  736POPS   PO411112   4.179  15.068   5.931  0.0168 -0.2765  0.1723
  736POPS   GL111113   4.127  15.133   6.350 -0.1862 -0.2251  0.1208
  736POPS   GL211114   3.878  14.936   6.434  0.1272  0.0444  0.0624
  736POPS   C1A11115   4.127  15.325   6.708 -0.0075 -0.0416  0.0189
  736POPS   D2A11116   4.106  15.200   7.201  0.0467 -0.1465 -0.0733
  736POPS   C3A11117   4.293  15.060   7.569  0.1337  0.4224 -0.4455
  736POPS   C4A11118   4.092  14.972   7.937 -0.1180 -0.0233  0.2071
  736POPS   C1B11119   3.977  14.858   6.851  0.2086 -0.1083  0.0694
  736POPS   C2B11120   3.996  14.645   7.272 -0.0232 -0.3802  0.1511
  736POPS   C3B11121   3.733  14.611   7.753 -0.2053 -0.0235 -0.0518
  736POPS   C4B11122   3.869  14.599   8.237 -0.1200  0.0773 -0.0180
  737POPS   CNO11123   9.826  13.624   5.440 -0.0941 -0.0357  0.1011
  737POPS   PO411124   9.486  13.562   5.750 -0.2549 -0.4086 -0.1954
  737POPS   GL111125   9.579  13.405   6.111 -0.0868  0.3966 -0.0305
  737POPS   GL211126   9.777  13.192   6.237  0.0966 -0.0293 -0.1446
  737POPS   C1A11127   9.380  13.582   6.495 -0.0840  0.0965  0.0611
  737POPS   D2A11128   9.504  13.649   6.881 -0.1925 -0.4197 -0.0041
  737POPS   C3A11129   9.326  13.692   7.270 -0.2003  0.1457 -0.1737
  737POPS   C4A11130   9.048  13.746   7.602 -0.2868  0.0177 -0.2999
  737POPS   C1B11131   9.779  13.206   6.660  0.0133 -0.1461 -0.2087
  737POPS   C2B11132   9.852  13.098   7.050 -0.0487 -0.0653 -0.2177
  737POPS   C3B11133   9.878  12.988   7.444 -0.1309 -0.1001 -0.1502
  737POPS   C4B11134   9.678  12.978   7.794  0.0367 -0.2552 -0.0160
  738POPS   CNO11135  12.102  13.672   6.198  0.2619  0.0637  0.2934
  738POPS   PO411136  12.332  13.260   6.246 -0.3073  0.2238  0.0550
  738POPS   GL111137  12.294  13.502   6.649 -0.1013 -0.0447 -0.0405
  738POPS   GL211138  12.091  13.700   6.720 -0.0405 -0.3091  0.0293
  738POPS   C1A11139  12.466  13.599   7.025  0.1150  0.1303  0.0388
  738POPS   D2A11140  12.430  13.749   7.509  0.0902 -0.0099 -0.0725
  738POPS   C3A11141  12.117  13.540   7.826  0.0626 -0.0783 -0.4128
  738POPS   C4A11142  12.088  13.353   8.190 -0.3799  0.1365 -0.0223
  738POPS   C1B11143  11.925  13.959   6.981 -0.1660  0.1549  0.0861
  738POPS   C2B11144  11.525  14.015   7.178 -0.0761  0.1784 -0.0596
  738POPS   C3B11145  11.284  13.999   7.472  0.0120  0.1405 -0.2327
  738POPS   C4B11146  11.261  13.798   7.775 -0.2298  0.0180  0.0031
  739POPS   CNO11147  11.769   5.332   6.116  0.1813 -0.2698  0.3599
  739POPS   PO411148  11.820   5.554   6.480  0.1507  0.2183  0.1506
  739POPS   GL111149  11.892   5.980   6.756  0.1253  0.1400  0.4815
  739POPS   GL211150  11.928   5.912   7.033  0.2911 -0.1444 -0.1737
  739POPS   C1A11151  11.581   6.260   7.000 -0.0920  0.0762 -0.0734
  739POPS   D2A11152  11.369   6.619   7.213 -0.1942  0.1965  0.1736
  739POPS   C3A11153  11.632   6.880   7.347  0.0436  0.2544  0.0369
  739POPS   C4A11154  12.011   7.120   7.485  0.0113 -0.3298  0.1420
  739POPS   C1B11155  11.758   5.934   7.455 -0.2732  0.0063  0.0168
  739POPS   C2B11156  11.683   6.272   7.731 -0.1881 -0.1559  0.1450
  739POPS   C3B11157  11.714   6.404   8.193 -0.0246  0.0480 -0.0189
  739POPS   C4B11158  11.462   6.198   8.462  0.0769 -0.1800  0.4917
  740POPS   CNO11159   4.888  15.617   5.732 -0.2166 -0.0712  0.1081
  740POPS   PO411160   4.944  15.738   6.188  0.1156  0.1562  0.0571
  740POPS   GL111161   4.862  15.783   6.616 -0.4375 -0.4345 -0.1612
  740POPS   GL211162   5.022  15.865   6.841  0.0293 -0.1524  0.1402
  740POPS   C1A11163   4.475  15.963   6.647 -0.2270 -0.2311 -0.2098
  740POPS   D2A11164   4.197  16.148   6.767 -0.0702  0.0407 -0.2322
  740POPS   C3A11165   4.281  15.964   7.164 -0.0267  0.3489 -0.3287
  740POPS   C4A11166   4.603  15.663   7.103  0.1374 -0.1717 -0.0777
  740POPS   C1B11167   5.056  15.681   7.295 -0.1786 -0.0575 -0.2824
  740POPS   C2B11168   5.158  15.529   7.713  0.0506  0.2286 -0.1722
  740POPS   C3B11169   4.926  15.336   8.068  0.1025  0.4054  0.0006
  740POPS   C4B11170   4.968  15.353   8.479  0.1778 -0.2895  0.3481
  741POPS   CNO11171   4.177  12.421   6.688 -0.0377  0.1325 -0.0036
  741POPS   PO411172   4.282  12.688   6.385 -0.0528 -0.0472  0.0131
  741POPS   GL111173   4.543  12.776   6.811  0.2793 -0.2401  0.1578
  741POPS   GL211174   4.827  12.977   6.775 -0.1008  0.1386  0.2991
  741POPS   C1A11175   4.546  12.835   7.203  0.0619  0.1385  0.0069
  741POPS   D2A11176   4.467  12.756   7.573  0.2652 -0.1394  0.1708
  741POPS   C3A11177   4.453  13.020   7.795  0.0806  0.3405 -0.1564
  741POPS   C4A11178   4.435  13.242   8.069  0.0536 -0.0927  0.0518
  741POPS   C1B11179   5.046  12.846   7.204 -0.1330 -0.1309 -0.1193
  741POPS   C2B11180   5.293  12.591   7.407 -0.0399  0.0400 -0.0195
  741POPS   C3B11181   5.577  12.370   7.660  0.0183  0.0323 -0.2027
  741POPS   C4B11182   5.740  12.336   8.079 -0.1618 -0.1761  0.0589
  742POPS   CNO11183  14.041   0.544   6.482 -0.0441  0.0018  0.2891
  742POPS   PO411184  14.232   0.900   6.276  0.1301  0.0450  0.2722
  742POPS   GL111185  14.032   1.032   6.656 -0.0000  0.0168  0.0419
  742POPS   GL211186  13.663   0.847   6.547 -0.1263 -0.2096  0.0515
  742POPS   C1A11187  14.042   1.284   6.973 -0.0983  0.0564 -0.1509
  742POPS   D2A11188  14.247   1.541   7.245 -0.1259  0.1304  0.1301
  742POPS   C3A11189  14.569   1.368   7.468  0.0825  0.1882  0.0776
  742POPS   C4A11190  14.590   1.151   7.901  0.2281 -0.1225 -0.0648
  742POPS   C1B11191  13.675   0.808   7.051  0.2693 -0.0962  0.1434
  742POPS   C2B11192  13.531   0.939   7.399 -0.2399 -0.1199  0.0699
  742POPS   C3B11193  13.611   0.925   7.939  0.1409 -0.1109  0.2062
  742POPS   C4B11194  13.763   1.305   8.138 -0.0621 -0.0595 -0.0627
  743POPS   CNO11195  10.488   9.322   6.178  0.0362 -0.0039 -0.0332
  743POPS   PO411196  10.859   9.095   6.367  0.0573  0.2999 -0.1402
  743POPS   GL111197  10.686   9.152   6.696 -0.0190  0.0761 -0.0850
  743POPS   GL211198  10.591   8.818   6.810  0.0214 -0.1206  0.1495
  743POPS   C1A11199  10.586   9.348   7.098  0.2602  0.0498 -0.4465
  743POPS   D2A11200  10.753   9.224   7.538  0.0305 -0.3126  0.0505
  743POPS   C3A11201  10.840   9.389   7.937 -0.0437  0.0035  0.0856
  743POPS   C4A11202  10.950   9.233   8.297 -0.1166 -0.0487  0.2671
  743POPS   C1B11203  10.911   8.984   7.099 -0.2920 -0.2612  0.4298
  743POPS   C2B11204  11.238   8.719   7.258  0.1104  0.0596  0.1761
  743POPS   C3B11205  11.300   8.622   7.738  0.2817 -0.2704  0.1810
  743POPS   C4B11206  11.371   8.535   8.105  0.0381  0.0060  0.1839
  744POPS   CNO11207  10.568   5.267   6.268  0.0013  0.1103 -0.0963
  744POPS   PO411208  10.227   5.008   6.375  0.0832 -0.1526  0.1509
  744POPS   GL111209  10.522   4.917   6.760 -0.1932 -0.1316 -0.2189
  744POPS   GL211210  10.281   4.733   6.966 -0.0880 -0.2765 -0.0362
  744POPS   C1A11211  10.857   4.720   6.971  0.0543 -0.0600 -0.1874
  744POPS   D2A11212  10.799   4.454   7.301  0.2576 -0.1787 -0.2157
  744POPS   C3A11213  10.534   4.393   7.774  0.1081  0.0589 -0.1262
  744POPS   C4A11214  10.330   4.084   8.058  0.1680 -0.4806  0.3018
  744POPS   C1B11215  10.298   4.445   7.182  0.1260  0.2942 -0.1302
  744POPS   C2B11216  10.036   4.420   7.595 -0.0112 -0.0907  0.0842
  744POPS   C3B11217   9.873   4.220   7.916  0.1291  0.1658 -0.0935
  744POPS   C4B11218   9.929   3.814   8.253 -0.2175 -0.3155 -0.0242
  745POPS   CNO11219   2.702   7.713   5.857 -0.1141 -0.4020 -0.1083
  745POPS   PO411220   2.369   7.512   6.171 -0.1273 -0.1633 -0.0772
  745POPS   GL111221   2.252   7.710   6.635  0.0586  0.0223  0.0090
  745POPS   GL211222   2.097   8.057   6.701 -0.1192  0.1855 -0.1364
  745POPS   C1A11223   2.346   7.484   7.068 -0.1148 -0.1070  0.0763
  745POPS   D2A11224   2.358   7.731   7.406 -0.1896  0.0008  0.1211
  745POPS   C3A11225   2.527   7.568   7.776  0.0465  0.2816 -0.0290
  745POPS   C4A11226   2.354   7.322   8.136  0.1489 -0.1794  0.2106
  745POPS   C1B11227   2.224   8.097   7.129 -0.0914 -0.0051  0.0083
  745POPS   C2B11228   2.005   8.092   7.510 -0.1143 -0.1775 -0.1422
  745POPS   C3B11229   1.799   8.224   7.959  0.0399  0.0538  0.0972
  745POPS   C4B11230   1.584   8.201   8.428  0.0810 -0.2193 -0.0574
  746POPS   CNO11231  15.205   1.750   6.225  0.1803 -0.3954 -0.1404
  746POPS   PO411232  15.277   1.807   6.607  0.0929  0.0878  0.0755
  746POPS   GL111233  15.432   1.667   6.949  0.1797 -0.0506  0.0064
  746POPS   GL211234  15.816   1.786   6.919  0.2427  0.3692  0.2087
  746POPS   C1A11235  15.506   1.571   7.381 -0.0149  0.1648 -0.1849
  746POPS   D2A11236  15.566   1.513   7.691 -0.0155 -0.0078  0.0324
  746POPS   C3A11237  15.388   1.500   8.025 -0.1395  0.0900  0.1076
  746POPS   C4A11238  15.282   1.921   8.184 -0.0169  0.0907  0.2723
  746POPS   C1B11239  15.749   2.000   7.369 -0.0667 -0.1032  0.1677
  746POPS   C2B11240  15.505   1.991   7.657 -0.0915 -0.1816 -0.0531
  746POPS   C3B11241  14.994   1.982   7.744 -0.2201 -0.1131 -0.0741
  746POPS   C4B11242  14.742   1.826   7.419 -0.2720 -0.1790  0.1597
  747POPS   CNO11243   4.522   7.703   6.445  0.1521  0.1071  0.0655
  747POPS   PO411244   4.705   7.697   6.850 -0.0962  0.1456 -0.1826
  747POPS   GL111245   4.847   7.681   7.171 -0.0206  0.0032  0.0646
  747POPS   GL211246   4.855   7.392   7.249 -0.0504 -0.1387 -0.3286
  747POPS   C1A11247   4.934   7.678   7.658 -0.1631  0.0985 -0.1346
  747POPS   D2A11248   5.091   7.458   8.099 -0.2530  0.2729  0.2598
  747POPS   C3A11249   5.083   7.765   8.451  0.1766 -0.0222  0.1336
  747POPS   C4A11250   5.245   7.993   8.766  0.1614  0.4900 -0.0624
  747POPS   C1B11251   4.745   7.109   7.654  0.0953 -0.1774 -0.0032
  747POPS   C2B11252   4.853   7.017   8.137 -0.0488  0.0200 -0.1400
  747POPS   C3B11253   4.634   6.795   8.432 -0.1749  0.0119 -0.1794
  747POPS   C4B11254   4.478   6.717   8.873 -0.2773 -0.4692 -0.1093
  748POPS   CNO11255   0.215   6.758   6.264 -0.0196  0.2636 -0.3083
  748POPS   PO411256   0.369   6.656   6.599 -0.1516  0.0781  0.1739
  748POPS   GL111257   0.456   6.863   6.950  0.2610  0.0457  0.0607
  748POPS   GL211258   0.174   6.825   7.102 -0.1053  0.0055 -0.2180
  748POPS   C1A11259   0.674   6.972   7.316  0.0068  0.0518 -0.0542
  748POPS   D2A11260   1.049   7.087   7.633 -0.3193 -0.0175 -0.1276
  748POPS   C3A11261   1.094   7.111   8.159 -0.0909 -0.1231 -0.2604
  748POPS   C4A11262   0.989   7.132   8.569  0.0811 -0.1472 -0.1768
  748POPS   C1B11263   0.280   6.876   7.567  0.1840  0.0496 -0.0538
  748POPS   C2B11264   0.183   7.094   7.907 -0.1162  0.1282 -0.0289
  748POPS   C3B11265  -0.052   7.234   8.260 -0.0270  0.1327 -0.1692
  748POPS   C4B11266  -0.301   7.559   8.409 -0.0557 -0.4290  0.2193
  749POPS   CNO11267  14.210   6.711   6.082  0.2072  0.2556  0.2731
  749POPS   PO411268  13.729   6.745   6.130 -0.1776  0.2498 -0.0035
  749POPS   GL111269  13.598   6.694   6.578  0.2503  0.0161 -0.3454
  749POPS   GL211270  13.307   6.803   6.638 -0.1662  0.0879  0.1906
  749POPS   C1A11271  13.550   6.830   7.042 -0.1174 -0.4473  0.1510
  749POPS   D2A11272  13.414   6.984   7.452  0.0805  0.0182  0.0634
  749POPS   C3A11273  13.423   6.937   7.925 -0.0670 -0.0556  0.0299
  749POPS   C4A11274  13.759   7.176   8.167 -0.0474  0.1495  0.2374
  749POPS   C1B11275  13.092   7.109   6.907  0.0291  0.2935  0.0601
  749POPS   C2B11276  13.001   7.266   7.343 -0.0206  0.0494 -0.1192
  749POPS   C3B11277  13.003   7.303   7.752 -0.3166 -0.1957 -0.2847
  749POPS   C4B11278  13.036   7.194   8.143  0.2451 -0.0725 -0.0369
  750POPS   CNO11279   2.119  14.299   5.768  0.1490 -0.3369  0.2407
  750POPS   PO411280   2.131  14.031   6.064 -0.1141  0.1041 -0.0268
  750POPS   GL111281   2.179  14.218   6.415 -0.0168  0.2256  0.3150
  750POPS   GL211282   2.310  14.038   6.644  0.2607 -0.1108  0.1598
  750POPS   C1A11283   2.043  14.633   6.673 -0.1047  0.3739 -0.2076
  750POPS   D2A11284   1.704  14.861   6.852 -0.5016 -0.1082 -0.0971
  750POPS   C3A11285   1.716  14.864   7.256  0.1179 -0.3219 -0.1036
  750POPS   C4A11286   1.824  14.476   7.535 -0.2016  0.1897 -0.0982
  750POPS   C1B11287   2.455  13.956   7.106  0.1063 -0.3603 -0.3159
  750POPS   C2B11288   2.602  14.006   7.569  0.1632  0.1089 -0.1995
  750POPS   C3B11289   2.588  14.039   7.969 -0.0766 -0.1517 -0.3292
  750POPS   C4B11290   2.589  14.412   8.158 -0.0389  0.1409 -0.0856
  751POPS   CNO11291   4.277   3.076   6.527  0.0322 -0.2738 -0.0272
  751POPS   PO411292   4.673   2.942   6.512 -0.0961  0.0017  0.0789
  751POPS   GL111293   4.827   3.062   6.891  0.0995  0.0879  0.0371
  751POPS   GL211294   4.517   3.135   7.056  0.3071 -0.0863 -0.2349
  751POPS   C1A11295   4.867   3.124   7.449  0.3832  0.0903  0.1710
  751POPS   D2A11296   4.640   3.427   7.769 -0.0036  0.0023 -0.0578
  751POPS   C3A11297   4.512   3.492   8.183  0.1905  0.1805 -0.3037
  751POPS   C4A11298   4.698   3.534   8.554 -0.0547 -0.2426 -0.0207
  751POPS   C1B11299   4.367   3.264   7.431  0.1767 -0.1713  0.0253
  751POPS   C2B11300   4.091   3.341   7.766 -0.0952  0.1149 -0.2165
  751POPS   C3B11301   3.987   3.422   8.203  0.1892 -0.0655 -0.1859
  751POPS   C4B11302   3.635   3.459   8.399  0.0282  0.0615  0.2541
  752YOPS   CNO11303   3.767   4.307   6.778  0.5024  0.1155  0.0765
  752YOPS   PO411304   3.377   4.084   6.649  0.0025 -0.0780 -0.1532
  752YOPS   GL111305   3.218   4.170   7.108  0.3769 -0.2217  0.0112
  752YOPS   GL211306   3.327   4.529   7.109  0.4428  0.2261  0.1989
  752YOPS   C1A11307   3.100   4.143   7.582 -0.1921  0.1005  0.0739
  752YOPS   D2A11308   3.087   4.178   8.049  0.0555 -0.4330  0.1100
  752YOPS   C3A11309   3.268   4.083   8.420 -0.2417  0.2001 -0.2815
  752YOPS   C4A11310   3.255   3.692   8.567 -0.0241  0.0729 -0.0980
  752YOPS   C1B11311   3.257   4.710   7.479 -0.0552  0.1656  0.0343
  752YOPS   C2B11312   3.090   4.791   7.863  0.1939 -0.0102 -0.1081
  752YOPS   D3B11313   3.031   4.941   8.305  0.1333  0.1238  0.0734
  752YOPS   C4B11314   3.401   4.754   8.601  0.0891  0.2326  0.0878
  753YOPS   CNO11315  17.160   3.564   6.508  0.0638  0.0508 -0.1558
  753YOPS   PO411316  16.801   3.476   6.285  0.1877  0.2878 -0.1614
  753YOPS   GL111317  16.591   3.436   6.672 -0.1228  0.1944 -0.2953
  753YOPS   GL211318  16.936   3.377   6.953 -0.0921 -0.3804 -0.1161
  753YOPS   C1A11319  16.462   3.446   7.040 -0.3581  0.0208  0.1167
  753YOPS   D2A11320  16.449   3.469   7.439  0.1542 -0.1799 -0.0312
  753YOPS   C3A11321  16.137   3.433   7.822  0.1999  0.0026  0.0664
  753YOPS   C4A11322  16.184   3.408   8.227  0.0058 -0.0212  0.1519
  753YOPS   C1B11323  16.939   3.339   7.367  0.0391  0.0052 -0.3544
  753YOPS   C2B11324  16.950   3.240   7.810 -0.4159  0.1072  0.2783
  753YOPS   D3B11325  16.725   3.319   8.300 -0.2257  0.0039  0.0617
  753YOPS   C4B11326  16.890   3.226   8.590  0.3405  0.0196 -0.1836
  754YOPS   CNO11327   3.518  12.839   6.144 -0.0706  0.1095  0.0007
  754YOPS   PO411328   3.427  12.896   6.501 -0.4643  0.2022 -0.2681
  754YOPS   GL111329   3.508  12.695   6.940 -0.1795 -0.0311 -0.3920
  754YOPS   GL211330   3.749  12.459   6.889  0.2583 -0.1365  0.1104
  754YOPS   C1A11331   3.550  12.789   7.335  0.1673 -0.0133  0.2164
  754YOPS   D2A11332   3.518  12.990   7.756 -0.3882 -0.2141 -0.1410
  754YOPS   C3A11333   3.268  12.970   8.153  0.2364  0.0142  0.2647
  754YOPS   C4A11334   3.359  12.732   8.569 -0.0199 -0.0212 -0.0909
  754YOPS   C1B11335   3.549  12.330   7.272 -0.2399  0.2585 -0.1042
  754YOPS   C2B11336   3.371  12.395   7.660 -0.0173  0.1363  0.0562
  754YOPS   D3B11337   3.603  12.543   8.070 -0.1218 -0.1804  0.0576
  754YOPS   C4B11338   3.979  12.346   8.105 -0.1457  0.1671  0.1212
  755YOPS   CNO11339   6.558   9.204   5.969 -0.1768 -0.1287  0.1213
  755YOPS   PO411340   6.418   9.226   6.368  0.3355 -0.2569  0.3313
  755YOPS   GL111341   6.430   9.193   6.866  0.1524  0.0762  0.0247
  755YOPS   GL211342   6.694   9.120   6.870  0.1631 -0.1039 -0.1656
  755YOPS   C1A11343   6.248   9.376   7.243 -0.0539 -0.3305 -0.0050
  755YOPS   D2A11344   6.323   9.252   7.719 -0.0027 -0.0425 -0.1399
  755YOPS   C3A11345   6.434   9.224   8.183  0.1119  0.1564 -0.1496
  755YOPS   C4A11346   6.568   9.458   8.487  0.0348 -0.2528 -0.0629
  755YOPS   C1B11347   6.777   9.380   7.295  0.1950 -0.0779  0.1044
  755YOPS   C2B11348   6.772   9.402   7.703  0.1925  0.1816  0.2706
  755YOPS   D3B11349   6.602   9.628   8.021 -0.0856  0.3116  0.3527
  755YOPS   C4B11350   6.312   9.851   8.233 -0.1329 -0.3048 -0.0895
  756YOPS   CNO11351   8.308  15.823   5.325  0.0282 -0.1870  0.0544
  756YOPS   PO411352   8.452  16.108   5.676 -0.4394  0.1247 -0.0997
  756YOPS   GL111353   8.343  16.266   6.233 -0.2285 -0.3698  0.1576
  756YOPS   GL211354   8.271  15.986   6.349 -0.0146 -0.1514  0.3187
  756YOPS   C1A11355   8.324  16.307   6.769  0.0536  0.1975 -0.3556
  756YOPS   D2A11356   8.318  16.154   7.189 -0.1290  0.1320  0.1276
  756YOPS   C3A11357   8.265  16.260   7.606  0.0600  0.1251 -0.1714
  756YOPS   C4A11358   8.489  16.537   7.833 -0.0988  0.1644 -0.1100
  756YOPS   C1B11359   8.277  15.766   6.790 -0.0430 -0.2203  0.0719
  756YOPS   C2B11360   8.031  15.618   7.035 -0.0970  0.0633 -0.0102
  756YOPS   D3B11361   7.977  15.405   7.388 -0.2758  0.4971 -0.1195
  756YOPS   C4B11362   8.230  15.340   7.785  0.2952  0.0783 -0.3302
  757YOPS   CNO11363  11.008  15.887   6.110 -0.1815 -0.1801 -0.1720
  757YOPS   PO411364  11.174  16.162   6.225 -0.1990  0.1850  0.4745
  757YOPS   GL111365  10.871  16.301   6.507  0.1713 -0.0847 -0.0632
  757YOPS   GL211366  10.807  16.492   6.751 -0.0152 -0.1185  0.2214
  757YOPS   C1A11367  10.833  16.036   6.922 -0.0280 -0.0273  0.0923
  757YOPS   D2A11368  10.811  16.063   7.378 -0.0368 -0.0119 -0.3393
  757YOPS   C3A11369  10.565  15.982   7.728  0.0463  0.1607  0.3040
  757YOPS   C4A11370  10.608  15.933   8.202 -0.0386 -0.4197  0.2906
  757YOPS   C1B11371  10.440  16.765   6.896 -0.0334  0.1108 -0.0411
  757YOPS   C2B11372  10.453  17.020   7.148 -0.1399  0.0916  0.2495
  757YOPS   D3B11373  10.559  16.996   7.616 -0.0755 -0.0942 -0.0199
  757YOPS   C4B11374  10.885  16.906   7.936 -0.0602 -0.3625  0.3041
  758YOPS   CNO11375   9.746  10.567   6.132  0.3635 -0.0075  0.0066
  758YOPS   PO411376   9.763  11.049   6.173  0.0346 -0.1817  0.1457
  758YOPS   GL111377   9.713  11.179   6.641  0.3386  0.0306  0.0127
  758YOPS   GL211378   9.626  10.890   6.676 -0.0484 -0.0151  0.2485
  758YOPS   C1A11379   9.945  11.394   6.941 -0.3913 -0.0579 -0.2558
  758YOPS   D2A11380  10.033  11.489   7.358 -0.4188 -0.2943 -0.1343
  758YOPS   C3A11381  10.275  11.255   7.643 -0.0399  0.0203  0.1719
  758YOPS   C4A11382  10.106  11.193   8.137 -0.1238 -0.3057  0.2049
  758YOPS   C1B11383   9.713  10.955   7.079 -0.4012 -0.1656  0.0466
  758YOPS   C2B11384   9.828  10.983   7.474 -0.4956  0.0466  0.0904
  758YOPS   D3B11385   9.902  10.836   7.943  0.0058  0.0505 -0.1626
  758YOPS   C4B11386   9.686  10.635   8.136 -0.1115 -0.1642 -0.1947
  759YOPS   CNO11387   2.540  12.632   6.191 -0.2147 -0.1921  0.0213
  759YOPS   PO411388   2.780  12.990   6.184 -0.2201 -0.3248  0.2296
  759YOPS   GL111389   2.906  12.970   6.586 -0.5836  0.1274  0.1960
  759YOPS   GL211390   2.895  12.632   6.727 -0.0324  0.3249 -0.2363
  759YOPS   C1A11391   3.132  13.201   7.049  0.2788  0.0772  0.1694
  759YOPS   D2A11392   3.075  13.239   7.528 -0.1612 -0.2964 -0.0053
  759YOPS   C3A11393   3.147  13.392   7.977 -0.3113 -0.1737 -0.3461
  759YOPS   C4A11394   2.993  13.279   8.355  0.1873 -0.1284 -0.0304
  759YOPS   C1B11395   3.007  12.770   7.217 -0.0136 -0.1041 -0.0350
  759YOPS   C2B11396   3.026  12.708   7.717 -0.0758 -0.0408 -0.2465
  759YOPS   D3B11397   2.713  12.793   8.033 -0.3668 -0.0947 -0.0418
  759YOPS   C4B11398   2.834  12.788   8.396  0.0475  0.1977 -0.1001
  760YOPS   CNO11399   5.719   0.891   5.704  0.2561  0.0921 -0.0645
  760YOPS   PO411400   5.866   0.681   6.085 -0.0240 -0.0613 -0.0985
  760YOPS   GL111401   6.023   0.657   6.464 -0.0377 -0.0013 -0.0076
  760YOPS   GL211402   6.291   0.928   6.587  0.1456 -0.0716  0.1426
  760YOPS   C1A11403   5.994   0.731   6.938  0.1617  0.4039 -0.1096
  760YOPS   D2A11404   6.185   0.898   7.409 -0.2440 -0.1100  0.1784
  760YOPS   C3A11405   6.511   0.984   7.633  0.3313 -0.0572 -0.3819
  760YOPS   C4A11406   6.782   1.144   7.869 -0.0703 -0.0273 -0.1789
  760YOPS   C1B11407   6.508   0.658   6.908 -0.0733 -0.1129  0.3016
  760YOPS   C2B11408   6.673   0.614   7.375 -0.2455  0.1048  0.0388
  760YOPS   D3B11409   6.872   0.612   7.735 -0.0923 -0.0510 -0.1461
  760YOPS   C4B11410   7.007   0.316   8.159  0.0545  0.3961  0.0761
  761YOPS   CNO11411   0.536   7.875   6.037 -0.0548 -0.3895 -0.2277
  761YOPS   PO411412   0.173   8.135   6.264 -0.0860 -0.4838  0.0789
  761YOPS   GL111413   0.320   8.120   6.714 -0.1911  0.0264 -0.0519
  761YOPS   GL211414   0.574   8.373   6.998 -0.2613  0.0816 -0.0468
  761YOPS   C1A11415   0.066   8.236   7.063  0.0095 -0.0747 -0.1761
  761YOPS   D2A11416   0.084   8.158   7.450 -0.1164  0.2219 -0.3082
  761YOPS   C3A11417   0.144   8.106   7.795 -0.1450 -0.3888 -0.2045
  761YOPS   C4A11418   0.556   7.906   7.781  0.2273  0.4143 -0.0376
  761YOPS   C1B11419   0.524   8.470   7.393 -0.0246  0.4809  0.1413
  761YOPS   C2B11420   0.807   8.422   7.782 -0.0562 -0.0883  0.0726
  761YOPS   D3B11421   0.854   8.361   8.309 -0.1875 -0.3634  0.0070
  761YOPS   C4B11422   1.092   8.705   8.586 -0.0970 -0.0503 -0.1743
  762YOPS   CNO11423   2.119  11.743   6.348  0.1402 -0.2016 -0.0569
  762YOPS   PO411424   1.882  12.185   6.276 -0.0741  0.1410  0.1646
  762YOPS   GL111425   2.119  12.056   6.726  0.0493  0.0074 -0.0854
  762YOPS   GL211426   2.304  12.245   6.655  0.0951  0.0312  0.4129
  762YOPS   C1A11427   2.159  11.974   7.168  0.1141  0.0805  0.2446
  762YOPS   D2A11428   2.253  11.867   7.568 -0.1527 -0.2994 -0.1248
  762YOPS   C3A11429   2.347  11.960   8.020  0.1098  0.1475 -0.0756
  762YOPS   C4A11430   2.024  11.811   8.356 -0.2195 -0.1023  0.1111
  762YOPS   C1B11431   2.441  12.422   7.084  0.2177  0.2878  0.0752
  762YOPS   C2B11432   2.334  12.747   7.218  0.0656 -0.0343  0.1807
  762YOPS   D3B11433   2.595  13.100   7.132 -0.1772  0.1045  0.2435
  762YOPS   C4B11434   2.391  13.480   7.346  0.1734  0.0125 -0.2257
  763YOPS   CNO11435  15.041   9.580   6.331 -0.0375 -0.2204  0.2235
  763YOPS   PO411436  15.082   9.609   6.766 -0.2098  0.1289 -0.0843
  763YOPS   GL111437  14.787   9.689   7.096  0.0425 -0.0661  0.1500
  763YOPS   GL211438  14.688  10.002   7.117 -0.0775 -0.0092 -0.0484
  763YOPS   C1A11439  14.716   9.618   7.505 -0.1991 -0.1086  0.0202
  763YOPS   D2A11440  14.675   9.552   7.844 -0.0635 -0.1049  0.0575
  763YOPS   C3A11441  14.711   9.369   8.258  0.0825 -0.1494 -0.1644
  763YOPS   C4A11442  14.980   9.525   8.577  0.5997 -0.0227  0.4035
  763YOPS   C1B11443  14.681  10.137   7.472  0.1258  0.6135  0.0808
  763YOPS   C2B11444  14.707  10.166   7.902 -0.1093 -0.0113 -0.0442
  763YOPS   D3B11445  14.670  10.661   7.938  0.2124 -0.0741  0.0739
  763YOPS   C4B11446  15.025  10.800   7.765  0.1116 -0.0148  0.1771
  764YOPS   CNO11447   1.144   9.721   5.917  0.1815  0.0581 -0.0760
  764YOPS   PO411448   1.298   9.866   6.308  0.0664  0.0805 -0.2703
  764YOPS   GL111449   1.368  10.038   6.727  0.0011 -0.2209  0.2501
  764YOPS   GL211450   1.207  10.297   6.939 -0.4992  0.1710 -0.0429
  764YOPS   C1A11451   1.598  10.086   7.141  0.0773  0.1787 -0.0757
  764YOPS   D2A11452   1.611  10.250   7.545 -0.1750  0.2235  0.1587
  764YOPS   C3A11453   1.460  10.350   7.853 -0.0240 -0.2346 -0.0303
  764YOPS   C4A11454   1.755  10.511   8.132  0.0282 -0.1325 -0.2175
  764YOPS   C1B11455   1.018  10.065   7.216 -0.3062 -0.0697  0.0525
  764YOPS   C2B11456   0.937  10.082   7.678 -0.1403 -0.2285 -0.1928
  764YOPS   D3B11457   1.068  10.165   8.102  0.1473 -0.0766 -0.0371
  764YOPS   C4B11458   0.886  10.304   8.561 -0.0013 -0.1215 -0.2673
  765YOPS   CNO11459   7.629   4.029   6.278 -0.0061 -0.0460 -0.1756
  765YOPS   PO411460   7.954   4.399   6.309 -0.0752 -0.1095 -0.0723
  765YOPS   GL111461   8.176   4.176   6.637  0.1032  0.1048  0.0780
  765YOPS   GL211462   8.112   4.371   6.957  0.3742 -0.2628 -0.2259
  765YOPS   C1A11463   8.370   4.021   7.045  0.0147 -0.1099  0.3315
  765YOPS   D2A11464   8.591   3.930   7.434  0.0151 -0.0124 -0.1653
  765YOPS   C3A11465   8.534   3.869   7.863 -0.1193  0.1495 -0.3678
  765YOPS   C4A11466   8.514   4.297   8.119  0.4187 -0.1472 -0.0898
  765YOPS   C1B11467   8.032   4.595   7.294  0.2558 -0.0078  0.0824
  765YOPS   C2B11468   7.783   4.584   7.643  0.0229  0.0345  0.4239
  765YOPS   D3B11469   7.795   4.861   7.950 -0.0288  0.1033  0.0323
  765YOPS   C4B11470   8.070   4.969   8.251  0.2047  0.1690 -0.3311
  766YOPS   CNO11471   1.636   8.747   6.736  0.0261  0.2450 -0.0523
  766YOPS   PO411472   1.224   8.844   6.498 -0.0984  0.0904  0.0739
  766YOPS   GL111473   1.129   8.756   6.954 -0.2460  0.1584 -0.2082
  766YOPS   GL211474   1.084   9.082   7.122 -0.2958  0.2055  0.0735
  766YOPS   C1A11475   1.546   8.631   7.182 -0.0832  0.0232  0.0096
  766YOPS   D2A11476   1.680   8.503   7.535  0.0419 -0.0320  0.1389
  766YOPS   C3A11477   1.750   8.719   7.970 -0.0231  0.0473 -0.0707
  766YOPS   C4A11478   2.129   8.940   8.132  0.0709 -0.0603  0.0646
  766YOPS   C1B11479   1.431   9.133   7.418  0.0039  0.1434  0.2262
  766YOPS   C2B11480   1.594   9.153   7.896  0.1225 -0.0022  0.1331
  766YOPS   D3B11481   1.457   9.101   8.224  0.3325  0.1395  0.0239
  766YOPS   C4B11482   1.608   8.681   8.457 -0.0286  0.0173 -0.0348
  767YOPS   CNO11483   3.721  17.000   6.130 -0.0587  0.1134  0.0402
  767YOPS   PO411484   3.743  16.740   6.570  0.1952  0.2195 -0.0185
  767YOPS   GL111485   3.626  16.792   6.938  0.0785 -0.1953 -0.1338
  767YOPS   GL211486   3.298  16.811   6.987 -0.0891 -0.0250  0.1553
  767YOPS   C1A11487   3.748  16.658   7.302 -0.0780  0.2176 -0.3852
  767YOPS   D2A11488   3.807  16.507   7.608 -0.0519 -0.0995  0.2075
  767YOPS   C3A11489   4.074  16.342   7.879  0.2122  0.0011  0.1320
  767YOPS   C4A11490   4.224  15.928   7.795  0.0200 -0.0526  0.0622
  767YOPS   C1B11491   3.302  16.555   7.327 -0.0953  0.2431  0.1218
  767YOPS   C2B11492   3.315  16.514   7.752  0.0160  0.0234  0.0451
  767YOPS   D3B11493   3.002  16.346   7.958  0.2204 -0.1832 -0.2069
  767YOPS   C4B11494   2.928  16.645   8.230 -0.1857 -0.0664 -0.2021
  768YOPS   CNO11495  11.308   8.026   6.365  0.1208  0.1325  0.1202
  768YOPS   PO411496  11.491   7.631   6.373  0.2508  0.0966  0.0689
  768YOPS   GL111497  11.564   7.852   6.737 -0.1341  0.0005 -0.2003
  768YOPS   GL211498  11.372   8.058   6.858  0.1061 -0.0102 -0.0560
  768YOPS   C1A11499  11.779   7.925   7.202 -0.0136 -0.0040  0.3915
  768YOPS   D2A11500  11.756   7.858   7.630 -0.0503 -0.0269 -0.0947
  768YOPS   C3A11501  11.754   7.733   8.062  0.1068  0.1052  0.3308
  768YOPS   C4A11502  11.983   7.942   8.353 -0.2273  0.0607 -0.0833
  768YOPS   C1B11503  11.525   8.345   7.057  0.0667 -0.0776 -0.0709
  768YOPS   C2B11504  11.636   8.320   7.524  0.3718  0.0113 -0.0190
  768YOPS   D3B11505  11.758   8.249   7.970  0.0168  0.0289 -0.0500
  768YOPS   C4B11506  11.484   8.090   8.334 -0.1220  0.2827  0.2813
  769YOPS   CNO11507   3.115  11.880   6.446 -0.1573 -0.2740 -0.2424
  769YOPS   PO411508   3.087  11.538   6.332  0.0369 -0.3998  0.2487
  769YOPS   GL111509   2.878  11.517   6.777 -0.0266 -0.0446  0.3870
  769YOPS   GL211510   2.553  11.651   6.985 -0.1126 -0.1551 -0.0483
  769YOPS   C1A11511   2.983  11.706   7.112  0.1881  0.3079  0.2217
  769YOPS   D2A11512   3.015  11.843   7.598 -0.0756 -0.0064 -0.1016
  769YOPS   C3A11513   3.370  11.821   7.775 -0.1366 -0.2631  0.3295
  769YOPS   C4A11514   3.380  12.030   8.091  0.0023 -0.2584 -0.2269
  769YOPS   C1B11515   2.610  11.575   7.480 -0.0803 -0.3946  0.0367
  769YOPS   C2B11516   2.634  11.577   7.829 -0.1193  0.1526 -0.2847
  769YOPS   D3B11517   2.881  11.840   8.170  0.0298 -0.0036  0.1217
  769YOPS   C4B11518   2.873  12.081   8.437  0.1675 -0.0275 -0.0158
  770YOPS   CNO11519  14.479  17.089   5.688 -0.5294  0.0561 -0.1629
  770YOPS   PO411520  14.661  16.888   6.081  0.2398 -0.1267 -0.0445
  770YOPS   GL111521  14.861  16.974   6.548 -0.1790  0.0671  0.1763
  770YOPS   GL211522  14.733  16.710   6.796 -0.2017  0.0331  0.1348
  770YOPS   C1A11523  14.835  17.197   6.861 -0.2209  0.2563  0.0047
  770YOPS   D2A11524  15.014  17.331   7.312  0.1950  0.0192 -0.1045
  770YOPS   C3A11525  14.967  17.310   7.715 -0.0302  0.0828 -0.0920
  770YOPS   C4A11526  14.808  17.088   8.128  0.2236  0.1509  0.0183
  770YOPS   C1B11527  14.759  16.857   7.286 -0.1195  0.0538  0.0480
  770YOPS   C2B11528  14.666  16.805   7.614  0.0898 -0.0640 -0.2069
  770YOPS   D3B11529  14.329  16.915   7.950  0.0824 -0.1355  0.2647
  770YOPS   C4B11530  14.418  16.932   8.378  0.0842  0.0127  0.2489
  771YOPS   CNO11531  12.825   8.785   5.982 -0.1346  0.0561  0.1571
  771YOPS   PO411532  12.839   8.909   6.419  0.0001  0.0081 -0.0396
  771YOPS   GL111533  12.923   8.739   6.809  0.0368 -0.0730 -0.3430
  771YOPS   GL211534  12.645   8.823   7.074  0.0112 -0.1773 -0.1279
  771YOPS   C1A11535  13.077   8.538   7.136 -0.1756  0.0031  0.3907
  771YOPS   D2A11536  13.033   8.635   7.599 -0.2326  0.0290 -0.0844
  771YOPS   C3A11537  13.085   8.627   8.133  0.0448 -0.1325  0.0615
  771YOPS   C4A11538  13.426   8.302   8.286 -0.2704  0.2105  0.0148
  771YOPS   C1B11539  12.629   8.946   7.501 -0.0485 -0.3612 -0.1280
  771YOPS   C2B11540  12.587   8.696   7.929 -0.0704  0.2897  0.3016
  771YOPS   D3B11541  12.663   8.467   8.395 -0.2677  0.2583  0.2863
  771YOPS   C4B11542  13.090   8.273   8.602  0.1960 -0.1597  0.0427
  772YOPS   CNO11543   6.874  16.304   6.076 -0.1287 -0.0510  0.0163
  772YOPS   PO411544   6.510  16.130   6.099  0.1474 -0.0511 -0.5443
  772YOPS   GL111545   6.607  16.224   6.491  0.3822  0.1282 -0.1374
  772YOPS   GL211546   6.521  16.534   6.724 -0.2766  0.2112  0.2045
  772YOPS   C1A11547   6.760  15.849   6.727  0.0174  0.1685  0.3021
  772YOPS   D2A11548   6.908  15.791   7.030 -0.1265 -0.2838  0.0417
  772YOPS   C3A11549   7.165  15.765   7.402 -0.0019  0.3095  0.0538
  772YOPS   C4A11550   7.134  15.605   7.838  0.0972 -0.0256  0.0356
  772YOPS   C1B11551   6.658  16.290   6.996  0.2488  0.0518  0.0399
  772YOPS   C2B11552   6.677  16.230   7.452  0.1231  0.2826 -0.1529
  772YOPS   D3B11553   6.855  16.040   7.745  0.1752  0.1018 -0.0323
  772YOPS   C4B11554   7.058  16.325   7.938 -0.1167 -0.0328 -0.0937
  773YOPS   CNO11555  15.905   0.733   6.464 -0.2893 -0.1490 -0.0657
  773YOPS   PO411556  15.623   0.462   6.275  0.1291 -0.1371  0.1015
  773YOPS   GL111557  15.668   0.300   6.710  0.0462  0.1653 -0.0359
  773YOPS   GL211558  15.856  -0.081   6.770 -0.0061 -0.1010  0.1683
  773YOPS   C1A11559  15.469   0.550   7.024  0.3871 -0.0938  0.3882
  773YOPS   D2A11560  15.236   0.674   7.419  0.0944 -0.0219 -0.1709
  773YOPS   C3A11561  15.204   0.550   7.855  0.0622 -0.2166 -0.1464
  773YOPS   C4A11562  15.231   0.408   8.261 -0.1403 -0.1121 -0.1531
  773YOPS   C1B11563  15.705   0.082   7.157  0.1318 -0.0513  0.1663
  773YOPS   C2B11564  15.781   0.086   7.652 -0.0846  0.0658  0.3991
  773YOPS   D3B11565  15.685   0.182   8.070 -0.0223  0.1222 -0.1058
  773YOPS   C4B11566  15.945   0.100   8.398 -0.0162  0.1777 -0.0045
  774YOPS   CNO11567  14.168  11.157   6.186 -0.2808  0.0175 -0.1075
  774YOPS   PO411568  14.162  11.119   6.588  0.1651 -0.0804  0.0726
  774YOPS   GL111569  14.332  11.341   6.830  0.0926  0.1380  0.3003
  774YOPS   GL211570  14.649  11.674   6.834  0.2286  0.1005 -0.0827
  774YOPS   C1A11571  14.133  11.458   7.204 -0.0602 -0.2051 -0.1183
  774YOPS   D2A11572  13.840  11.655   7.467 -0.1202 -0.2366 -0.0560
  774YOPS   C3A11573  13.694  11.824   7.726 -0.3190  0.0018 -0.2106
  774YOPS   C4A11574  13.974  11.870   8.105  0.4221  0.0635 -0.0301
  774YOPS   C1B11575  14.650  11.583   7.310 -0.3393 -0.2632 -0.2681
  774YOPS   C2B11576  14.325  11.632   7.624 -0.1563  0.0199 -0.1002
  774YOPS   D3B11577  14.099  11.432   7.851  0.0482 -0.3320  0.0217
  774YOPS   C4B11578  14.300  11.350   8.222  0.1800  0.0870 -0.1281
  775YOPS   CNO11579  13.576   5.385   5.965 -0.0395  0.0753 -0.2641
  775YOPS   PO411580  13.418   5.360   6.373 -0.0575 -0.1966  0.2939
  775YOPS   GL111581  13.494   5.605   6.717 -0.0026 -0.1230  0.0283
  775YOPS   GL211582  13.378   5.981   6.769  0.0642  0.0642  0.0728
  775YOPS   C1A11583  13.542   5.421   7.151  0.0462  0.1224 -0.0957
  775YOPS   D2A11584  13.407   5.366   7.662 -0.2580  0.1622 -0.3219
  775YOPS   C3A11585  13.371   5.314   8.084 -0.0007 -0.0865 -0.0716
  775YOPS   C4A11586  13.500   4.916   8.339  0.0929  0.2009 -0.1269
  775YOPS   C1B11587  13.307   6.060   7.163  0.0406 -0.0783  0.1212
  775YOPS   C2B11588  13.283   6.180   7.630  0.3542 -0.0726  0.0093
  775YOPS   D3B11589  13.350   6.425   7.960 -0.1153 -0.0694 -0.2253
  775YOPS   C4B11590  13.465   6.365   8.278  0.2349  0.0536 -0.0728
  776YOPS   CNO11591  14.237  16.815   6.300 -0.0031  0.1558  0.0670
  776YOPS   PO411592  14.008  16.486   6.212  0.1197  0.1021  0.0791
  776YOPS   GL111593  13.908  16.623   6.618  0.0091  0.2468 -0.0360
  776YOPS   GL211594  14.162  16.362   6.675  0.0886 -0.0253 -0.0376
  776YOPS   C1A11595  13.783  16.364   7.049 -0.2457 -0.0839 -0.2052
  776YOPS   D2A11596  13.939  16.256   7.456  0.0483  0.0709 -0.3580
  776YOPS   C3A11597  14.264  16.138   7.535 -0.1811  0.1027  0.2871
  776YOPS   C4A11598  14.309  15.747   7.771 -0.0727  0.0661 -0.0015
  776YOPS   C1B11599  14.119  16.022   7.021 -0.1859 -0.0348 -0.0129
  776YOPS   C2B11600  13.929  15.753   7.398 -0.2493 -0.1625  0.1175
  776YOPS   D3B11601  14.026  15.400   7.641 -0.1110 -0.0498 -0.0456
  776YOPS   C4B11602  14.445  15.204   7.605 -0.1668 -0.1758  0.2748
  777YOPS   CNO11603  16.598  11.282   5.850 -0.1842  0.0030  0.0791
  777YOPS   PO411604  16.962  11.185   5.847  0.1799  0.2943  0.1214
  777YOPS   GL111605  16.877  11.534   6.259 -0.1389  0.0347 -0.1630
  777YOPS   GL211606  16.812  11.320   6.509 -0.0104 -0.0438 -0.2018
  777YOPS   C1A11607  17.134  11.649   6.605 -0.1659  0.2722  0.3072
  777YOPS   D2A11608  17.069  11.663   7.050  0.0560 -0.1744  0.0877
  777YOPS   C3A11609  17.145  11.577   7.439  0.0366  0.0363  0.1909
  777YOPS   C4A11610  17.045  11.297   7.859  0.0455  0.1012 -0.1168
  777YOPS   C1B11611  16.993  11.197   6.905  0.0422  0.1690 -0.2897
  777YOPS   C2B11612  17.123  11.068   7.353  0.1639  0.1237  0.3529
  777YOPS   D3B11613  17.117  10.759   7.647  0.0116  0.0249  0.4508
  777YOPS   C4B11614  17.352  10.615   7.929  0.0022  0.0753 -0.0743
  778YOPS   CNO11615   6.129   5.239   5.936 -0.2298 -0.0381 -0.3935
  778YOPS   PO411616   6.568   5.118   6.141  0.1672  0.1130 -0.3099
  778YOPS   GL111617   6.663   4.874   6.553  0.0191 -0.0452  0.1159
  778YOPS   GL211618   6.474   4.582   6.712  0.0587 -0.3433  0.0956
  778YOPS   C1A11619   6.618   5.006   7.011 -0.2210  0.1486  0.0299
  778YOPS   D2A11620   6.565   4.862   7.506 -0.1018 -0.0051 -0.0523
  778YOPS   C3A11621   6.424   4.989   7.823 -0.2283 -0.1400 -0.1385
  778YOPS   C4A11622   6.187   5.321   7.678 -0.1616  0.2261 -0.3426
  778YOPS   C1B11623   6.505   4.439   7.117 -0.0556 -0.0530  0.2082
  778YOPS   C2B11624   6.257   4.339   7.490 -0.0925 -0.0544  0.0816
  778YOPS   D3B11625   6.167   4.534   7.920  0.2535  0.1671 -0.1090
  778YOPS   C4B11626   6.403   4.761   8.243  0.0022 -0.4512 -0.0131
  779YOPS   CNO11627  15.435  11.786   6.377 -0.0709 -0.2173 -0.1133
  779YOPS   PO411628  15.095  11.929   6.584 -0.3136  0.2177  0.0296
  779YOPS   GL111629  15.123  12.026   7.003  0.2700  0.1277 -0.1761
  779YOPS   GL211630  15.085  11.701   7.195 -0.0906  0.3437  0.2484
  779YOPS   C1A11631  15.068  12.170   7.433  0.0692 -0.0495 -0.1853
  779YOPS   D2A11632  14.992  12.200   7.935  0.1308  0.0415  0.0837
  779YOPS   C3A11633  15.395  12.328   8.028  0.2690 -0.0799 -0.3731
  779YOPS   C4A11634  15.767  12.104   8.065 -0.1910  0.1011 -0.3128
  779YOPS   C1B11635  14.985  11.703   7.669 -0.1858 -0.0942 -0.3383
  779YOPS   C2B11636  14.807  11.629   7.994  0.0477  0.2218  0.2365
  779YOPS   D3B11637  14.577  11.720   8.332  0.1312 -0.1666 -0.1079
  779YOPS   C4B11638  14.760  11.949   8.600 -0.0385  0.0436 -0.0650
  780YOPS   CNO11639  16.856   6.397   6.835  0.0847  0.2758 -0.1298
  780YOPS   PO411640  17.252   6.325   6.754 -0.0922  0.2011  0.1309
  780YOPS   GL111641  17.316   6.412   7.205  0.1169 -0.0230 -0.4855
  780YOPS   GL211642  17.048   6.202   7.312  0.2665 -0.0638 -0.0803
  780YOPS   C1A11643  17.458   6.588   7.610 -0.0256  0.0455 -0.2987
  780YOPS   D2A11644  17.658   6.622   8.031 -0.1070  0.2245 -0.1017
  780YOPS   C3A11645  17.871   6.300   8.308  0.1227  0.0744 -0.1076
  780YOPS   C4A11646  17.904   6.315   8.721  0.1033 -0.0288 -0.2464
  780YOPS   C1B11647  16.702   6.327   7.508  0.2861 -0.1321 -0.5160
  780YOPS   C2B11648  16.231   6.264   7.570 -0.1270 -0.0484 -0.2204
  780YOPS   D3B11649  15.915   6.569   7.503  0.2431  0.0458 -0.1404
  780YOPS   C4B11650  15.727   6.765   7.878 -0.0230  0.0555 -0.1573
  781YOPS   CNO11651  10.732   7.667   5.430  0.2403  0.1423 -0.2121
  781YOPS   PO411652  10.546   7.686   5.861  0.2493 -0.1134 -0.3260
  781YOPS   GL111653  10.431   7.710   6.314  0.0516  0.1003  0.1300
  781YOPS   GL211654  10.549   7.397   6.495 -0.2121  0.0539  0.1331
  781YOPS   C1A11655  10.309   7.852   6.757 -0.1352  0.1420 -0.1638
  781YOPS   D2A11656  10.286   7.635   7.197  0.0546 -0.1572  0.0650
  781YOPS   C3A11657  10.201   7.800   7.617  0.0147  0.2114 -0.0184
  781YOPS   C4A11658   9.950   7.952   7.984 -0.1924  0.0711 -0.0614
  781YOPS   C1B11659  10.730   7.372   6.942  0.1395  0.0063  0.1766
  781YOPS   C2B11660  10.858   7.378   7.386  0.0295  0.2083  0.1615
  781YOPS   D3B11661  11.111   7.501   7.731 -0.0528  0.2808 -0.0490
  781YOPS   C4B11662  11.643   7.406   7.693  0.5177 -0.0521  0.0337
  782POPE   NH311663  11.430   5.186   6.520 -0.0084 -0.0612  0.1180
  782POPE   PO411664  11.827   4.909   6.381  0.2821  0.1165  0.3369
  782POPE   GL111665  11.869   5.093   6.781  0.2158  0.2731  0.0386
  782POPE   GL211666  12.101   5.057   7.032  0.0804  0.1441  0.0328
  782POPE   C1A11667  11.673   5.022   7.197  0.0694  0.0015 -0.0762
  782POPE   D2A11668  11.509   4.929   7.659 -0.0841 -0.0486  0.1428
  782POPE   C3A11669  11.830   5.031   8.014  0.1374  0.2990 -0.0748
  782POPE   C4A11670  12.156   4.981   8.187  0.0257  0.1377 -0.4165
  782POPE   C1B11671  12.118   4.978   7.511  0.3601  0.3382  0.1849
  782POPE   C2B11672  12.339   4.736   7.812 -0.1460 -0.0426  0.0320
  782POPE   C3B11673  12.755   4.675   8.047  0.1150  0.0224  0.4799
  782POPE   C4B11674  13.112   4.646   8.414  0.0557  0.0151  0.2028
  783POPE   NH311675   5.923   6.504   6.448 -0.2273  0.2217 -0.0809
  783POPE   PO411676   5.862   6.020   6.568  0.0072 -0.0770  0.2021
  783POPE   GL111677   5.973   5.846   6.889 -0.1908  0.0737 -0.3704
  783POPE   GL211678   5.675   5.640   6.948  0.1786  0.2595  0.1509
  783POPE   C1A11679   6.021   5.879   7.272  0.1885 -0.3142  0.0119
  783POPE   D2A11680   5.836   5.788   7.645  0.1849  0.0114  0.0820
  783POPE   C3A11681   6.096   5.626   8.043 -0.0095  0.0095 -0.1485
  783POPE   C4A11682   6.355   5.317   8.284  0.2322 -0.0329  0.2736
  783POPE   C1B11683   5.798   5.349   7.368  0.2390 -0.2716  0.1299
  783POPE   C2B11684   5.671   5.303   7.844 -0.0915 -0.1113  0.0774
  783POPE   C3B11685   5.335   5.151   8.250  0.1660  0.1151  0.0083
  783POPE   C4B11686   5.405   5.292   8.603  0.1655 -0.4850  0.0564
  784POPE   NH311687  14.513   4.643   7.043 -0.2233  0.0243  0.1538
  784POPE   PO411688  14.594   5.087   6.919 -0.2159  0.0093 -0.1727
  784POPE   GL111689  14.765   5.013   7.272  0.1614 -0.1002  0.1282
  784POPE   GL211690  15.064   4.882   7.507  0.1078  0.0028 -0.0424
  784POPE   C1A11691  14.560   4.859   7.665 -0.1699  0.0029  0.1515
  784POPE   D2A11692  14.278   4.790   8.052  0.0358 -0.0484  0.3019
  784POPE   C3A11693  14.391   4.976   8.477  0.0937  0.0297 -0.1595
  784POPE   C4A11694  14.695   5.194   8.766  0.0821  0.1123  0.0298
  784POPE   C1B11695  15.333   4.421   7.745 -0.3121 -0.0832  0.0188
  784POPE   C2B11696  15.288   4.363   8.152  0.0246  0.1702 -0.0198
  784POPE   C3B11697  15.496   4.381   8.479  0.0999  0.0411 -0.1314
  784POPE   C4B11698  15.840   4.183   8.783 -0.0857  0.0214 -0.0222
  785POPE   NH311699  11.058  10.820   6.164 -0.0035 -0.1901 -0.2181
  785POPE   PO411700  11.317  10.567   6.307  0.0531  0.1631 -0.3540
  785POPE   GL111701  11.345  10.968   6.546 -0.3083  0.3558  0.0696
  785POPE   GL211702  11.082  11.172   6.543  0.1193 -0.3020 -0.2937
  785POPE   C1A11703  11.341  11.123   6.980 -0.1586  0.2302  0.0582
  785POPE   D2A11704  11.281  11.004   7.311 -0.1638 -0.2246  0.0291
  785POPE   C3A11705  11.277  11.248   7.662 -0.2105  0.1114  0.0934
  785POPE   C4A11706  10.973  11.357   7.943 -0.0608 -0.0429 -0.0629
  785POPE   C1B11707  11.060  10.689   6.839  0.1792  0.1365 -0.0114
  785POPE   C2B11708  11.333  10.537   7.149 -0.0546 -0.0031  0.0111
  785POPE   C3B11709  11.361  10.621   7.680  0.0586 -0.0633  0.1115
  785POPE   C4B11710  11.171  10.925   8.012  0.1796  0.1040  0.0730
  786POPE   NH311711   8.823   9.720   6.569 -0.1860 -0.2144 -0.0849
  786POPE   PO411712   9.027   9.333   6.602 -0.0835 -0.0457 -0.2077
  786POPE   GL111713   8.981   9.012   6.876 -0.0465  0.0057  0.0786
  786POPE   GL211714   8.830   9.048   7.171 -0.0457 -0.2222  0.0477
  786POPE   C1A11715   9.071   8.603   7.177  0.0279  0.2232  0.0814
  786POPE   D2A11716   9.393   8.459   7.548 -0.2581  0.0530 -0.0090
  786POPE   C3A11717   9.427   8.186   7.901  0.1411  0.1419 -0.1661
  786POPE   C4A11718   9.317   7.851   8.216  0.2694 -0.2803  0.2577
  786POPE   C1B11719   8.914   8.851   7.591  0.1379  0.3753  0.2731
  786POPE   C2B11720   9.052   8.586   7.925 -0.3015  0.1466 -0.0166
  786POPE   C3B11721   8.974   8.259   8.235 -0.2942  0.0124  0.1248
  786POPE   C4B11722   8.997   8.054   8.678  0.1227 -0.0252  0.1530
  787POPE   NH311723  15.250   4.337   6.682 -0.2359 -0.2071  0.0822
  787POPE   PO411724  14.835   4.351   6.788 -0.2010 -0.2015 -0.0982
  787POPE   GL111725  14.944   4.420   7.185 -0.2347  0.0290  0.1503
  787POPE   GL211726  15.264   4.223   7.183  0.1613  0.1490  0.3111
  787POPE   C1A11727  14.811   4.421   7.656  0.1233 -0.1251  0.3114
  787POPE   D2A11728  14.797   4.653   8.041  0.3276 -0.2764 -0.2312
  787POPE   C3A11729  14.797   4.311   8.266  0.3799 -0.0985 -0.2158
  787POPE   C4A11730  15.010   4.149   8.657  0.0342 -0.1847 -0.0175
  787POPE   C1B11731  15.173   3.946   7.482  0.1275 -0.1007  0.1004
  787POPE   C2B11732  15.150   3.892   7.890 -0.2032  0.3089 -0.0712
  787POPE   C3B11733  15.189   3.892   8.251  0.0563 -0.3249 -0.1217
  787POPE   C4B11734  15.475   3.887   8.559  0.1978 -0.0038 -0.3273
  788POPE   NH311735   3.746   3.866   6.429  0.0212  0.0263  0.0714
  788POPE   PO411736   3.312   3.598   6.461  0.0872 -0.0916  0.4642
  788POPE   GL111737   3.391   3.286   6.745  0.0663 -0.1663 -0.1840
  788POPE   GL211738   3.477   3.223   6.946 -0.1091 -0.0971  0.2109
  788POPE   C1A11739   3.041   3.280   7.144 -0.1520 -0.1922  0.0930
  788POPE   D2A11740   2.612   3.100   7.272  0.2901 -0.0993 -0.2672
  788POPE   C3A11741   2.567   2.967   7.636  0.3323  0.3207 -0.1449
  788POPE   C4A11742   2.557   2.931   8.049  0.1181  0.0266 -0.0560
  788POPE   C1B11743   3.468   3.270   7.359  0.3127 -0.0300 -0.0097
  788POPE   C2B11744   3.178   3.280   7.641  0.3023 -0.1983  0.2139
  788POPE   C3B11745   3.111   3.017   8.069  0.0204  0.0602  0.0479
  788POPE   C4B11746   3.363   2.933   8.417  0.1403  0.1128 -0.1394
  789POPE   NH311747  16.967   3.058   6.482 -0.0625 -0.0238 -0.2301
  789POPE   PO411748  17.200   2.610   6.462  0.1552 -0.0695 -0.0194
  789POPE   GL111749  17.266   2.476   6.785  0.5179 -0.0623  0.0608
  789POPE   GL211750  17.315   2.242   6.814 -0.1457 -0.4310 -0.1495
  789POPE   C1A11751  16.963   2.509   7.100 -0.2834 -0.1986 -0.0060
  789POPE   D2A11752  16.789   2.489   7.524 -0.3740 -0.0204 -0.3639
  789POPE   C3A11753  16.327   2.541   7.584 -0.1405 -0.1278 -0.0513
  789POPE   C4A11754  16.041   2.620   8.013 -0.1439 -0.0679  0.0976
  789POPE   C1B11755  17.291   2.233   7.326  0.0644  0.0916  0.0065
  789POPE   C2B11756  17.494   2.497   7.671 -0.0098  0.2440 -0.0918
  789POPE   C3B11757  17.716   2.622   8.014  0.0918  0.0901 -0.1521
  789POPE   C4B11758  17.852   2.314   8.242 -0.1531  0.0954  0.0545
  790POPE   NH311759   2.423   4.490   6.848  0.0824 -0.1891  0.1314
  790POPE   PO411760   2.517   4.042   6.835  0.0170  0.0901  0.0338
  790POPE   GL111761   2.718   4.139   7.194 -0.0014 -0.0046 -0.1830
  790POPE   GL211762   2.662   4.484   7.279  0.2028 -0.1693  0.3896
  790POPE   C1A11763   2.609   4.019   7.680  0.1282  0.1950  0.0946
  790POPE   D2A11764   2.597   3.990   8.185  0.0835 -0.1436  0.0275
  790POPE   C3A11765   2.818   4.073   8.562  0.1218 -0.2207  0.2853
  790POPE   C4A11766   2.713   4.088   8.945  0.2278  0.0589  0.3185
  790POPE   C1B11767   2.652   4.506   7.796  0.2175 -0.0796  0.1777
  790POPE   C2B11768   2.729   4.555   8.238  0.0090  0.4846  0.1212
  790POPE   C3B11769   2.919   4.573   8.621  0.1540 -0.0925 -0.0234
  790POPE   C4B11770   2.970   4.981   8.794  0.1912  0.1016  0.1216
  791POPE   NH311771   9.361  11.205   5.771  0.0357 -0.1392 -0.0080
  791POPE   PO411772   9.041  11.402   6.006 -0.2013 -0.0735 -0.0263
  791POPE   GL111773   9.034  11.412   6.448  0.0779  0.0791  0.0681
  791POPE   GL211774   8.822  11.205   6.484  0.2276  0.0997  0.3050
  791POPE   C1A11775   8.989  11.599   6.811 -0.2181  0.1092  0.2830
  791POPE   D2A11776   8.852  11.658   7.161 -0.0606 -0.1755 -0.0148
  791POPE   C3A11777   9.034  11.761   7.486 -0.2290 -0.0270 -0.1706
  791POPE   C4A11778   9.121  12.033   7.781  0.1546  0.1846 -0.0791
  791POPE   C1B11779   8.791  11.158   6.932 -0.1823 -0.0462  0.5062
  791POPE   C2B11780   8.871  11.100   7.352  0.2323 -0.2308  0.0657
  791POPE   C3B11781   8.980  11.253   7.719  0.2609 -0.0454  0.0201
  791POPE   C4B11782   8.998  11.001   8.118 -0.2276 -0.0668 -0.1196
  792POPE   NH311783   2.843   3.457   6.290  0.0908  0.0183  0.2386
  792POPE   PO411784   2.633   3.519   6.680 -0.2619  0.2375 -0.2026
  792POPE   GL111785   2.569   3.557   7.089 -0.1906  0.0881 -0.0055
  792POPE   GL211786   2.381   3.798   7.237 -0.1832  0.0471 -0.0817
  792POPE   C1A11787   2.956   3.716   7.392  0.0390  0.0994 -0.5203
  792POPE   D2A11788   3.439   3.740   7.461 -0.0225 -0.0826  0.1698
  792POPE   C3A11789   3.608   3.417   7.798 -0.3306 -0.1130  0.0681
  792POPE   C4A11790   3.643   3.135   7.991  0.1349  0.0254 -0.0683
  792POPE   C1B11791   2.501   3.506   7.566 -0.0009  0.1366 -0.0489
  792POPE   C2B11792   2.740   3.413   7.951 -0.2557 -0.2282 -0.4444
  792POPE   C3B11793   2.864   3.381   8.383 -0.1642  0.2324 -0.0355
  792POPE   C4B11794   3.114   3.252   8.716  0.1540  0.0321  0.0855
  793POPE   NH311795  15.079   3.453   6.468  0.3287 -0.0369 -0.0530
  793POPE   PO411796  14.732   3.127   6.435  0.0657  0.0172  0.1053
  793POPE   GL111797  14.639   3.229   6.826 -0.0449 -0.2234 -0.2402
  793POPE   GL211798  14.335   3.284   6.791  0.0245  0.2422  0.0865
  793POPE   C1A11799  14.621   3.605   7.130 -0.2850  0.0663  0.0960
  793POPE   D2A11800  14.561   3.970   7.449 -0.1063 -0.0086  0.2291
  793POPE   C3A11801  14.659   3.998   7.763 -0.0067 -0.1084 -0.3042
  793POPE   C4A11802  14.756   3.631   8.102  0.0239 -0.1150 -0.2322
  793POPE   C1B11803  14.266   3.288   7.251  0.0621  0.1865 -0.5146
  793POPE   C2B11804  14.264   3.123   7.639 -0.0109 -0.1246 -0.3348
  793POPE   C3B11805  14.180   2.996   8.056  0.0446  0.0404  0.2258
  793POPE   C4B11806  13.989   3.071   8.493  0.0284 -0.1455 -0.1791
  794POPE   NH311807  14.929  12.619   6.059  0.0365  0.1036  0.1981
  794POPE   PO411808  14.653  12.639   6.444 -0.0461 -0.2447  0.1147
  794POPE   GL111809  14.542  12.716   6.795  0.0282  0.2295 -0.2333
  794POPE   GL211810  14.187  12.678   6.701 -0.2285 -0.1067  0.2513
  794POPE   C1A11811  14.513  12.927   7.215  0.0974 -0.1056  0.2766
  794POPE   D2A11812  14.455  13.087   7.627  0.0178 -0.0399  0.1342
  794POPE   C3A11813  14.240  13.370   7.957 -0.4306  0.4326 -0.1088
  794POPE   C4A11814  14.251  13.539   8.424 -0.1323  0.0395  0.0034
  794POPE   C1B11815  14.263  12.498   7.175 -0.0937 -0.2451  0.1878
  794POPE   C2B11816  14.195  12.572   7.605 -0.1172 -0.1094 -0.1129
  794POPE   C3B11817  14.360  12.713   8.046  0.0244  0.0214 -0.1659
  794POPE   C4B11818  14.570  13.088   8.102  0.0145 -0.2421 -0.3786
  795POPE   NH311819  12.168   2.312   6.326 -0.0833 -0.0728 -0.0902
  795POPE   PO411820  12.046   1.942   6.227  0.3296 -0.0183  0.1998
  795POPE   GL111821  12.075   1.916   6.651  0.0988 -0.0030  0.0593
  795POPE   GL211822  12.264   1.751   6.639 -0.1798 -0.0769 -0.1051
  795POPE   C1A11823  11.978   2.008   7.089 -0.1381  0.1857  0.0948
  795POPE   D2A11824  11.561   2.074   7.149 -0.0354 -0.2626  0.0143
  795POPE   C3A11825  11.448   2.129   7.565 -0.0097  0.2491  0.2355
  795POPE   C4A11826  11.219   1.917   7.922 -0.3353  0.1723 -0.0834
  795POPE   C1B11827  12.330   1.646   7.159 -0.1737  0.1952  0.1465
  795POPE   C2B11828  12.347   1.662   7.630 -0.0866 -0.0289  0.0609
  795POPE   C3B11829  12.378   1.564   7.978  0.0277 -0.2573 -0.1911
  795POPE   C4B11830  12.452   1.653   8.362  0.0705 -0.0081 -0.0152
  796POPE   NH311831   1.860   0.322   6.708  0.1249  0.1035 -0.0974
  796POPE   PO411832   2.275   0.132   6.567  0.2264  0.0303  0.0766
  796POPE   GL111833   2.298   0.312   6.979 -0.1149  0.2814  0.1125
  796POPE   GL211834   2.596   0.455   6.974  0.0027 -0.0642 -0.2318
  796POPE   C1A11835   2.145   0.109   7.407  0.1544  0.1447 -0.1530
  796POPE   D2A11836   2.189   0.046   7.886 -0.3053 -0.1805 -0.2570
  796POPE   C3A11837   2.379   0.164   8.264  0.1078 -0.3103 -0.1607
  796POPE   C4A11838   2.505   0.478   8.576  0.2090  0.3062 -0.0734
  796POPE   C1B11839   2.429   0.536   7.462 -0.0946  0.3154  0.1059
  796POPE   C2B11840   2.036   0.505   7.646 -0.1039  0.1959  0.1833
  796POPE   C3B11841   1.872   0.405   8.001 -0.2383  0.0297  0.1006
  796POPE   C4B11842   1.694   0.523   8.404 -0.1418  0.0072  0.3615
  797POPE   NH311843   9.918   3.923   6.112  0.3100 -0.1507 -0.2284
  797POPE   PO411844  10.027   3.449   6.187  0.1314  0.1467  0.2139
  797POPE   GL111845  10.008   3.212   6.608 -0.0888  0.2029  0.0407
  797POPE   GL211846  10.138   2.854   6.699 -0.0368  0.0401 -0.0599
  797POPE   C1A11847   9.832   3.133   7.027  0.0405 -0.1756  0.1607
  797POPE   D2A11848   9.793   2.990   7.407 -0.2581 -0.0858 -0.3018
  797POPE   C3A11849   9.822   3.273   7.694  0.1029 -0.0496  0.3359
  797POPE   C4A11850   9.853   3.338   8.133  0.2399  0.0469  0.1381
  797POPE   C1B11851  10.047   2.352   6.625  0.0685 -0.2373  0.0402
  797POPE   C2B11852  10.031   2.134   7.040 -0.0307 -0.2148  0.0336
  797POPE   C3B11853  10.117   2.184   7.460 -0.1661  0.4568  0.0557
  797POPE   C4B11854  10.051   2.198   7.913  0.4350  0.4244 -0.2783
  798POPE   NH311855  10.217   8.061   5.994 -0.2202 -0.2332 -0.0723
  798POPE   PO411856  10.049   8.430   6.104 -0.1324  0.0616  0.0153
  798POPE   GL111857  10.218   8.276   6.535 -0.1956 -0.2115  0.2787
  798POPE   GL211858  10.062   8.501   6.720 -0.0086 -0.1290 -0.2280
  798POPE   C1A11859  10.447   8.283   6.980 -0.1008 -0.2086 -0.0057
  798POPE   D2A11860  10.449   8.356   7.349  0.0195  0.0243  0.0667
  798POPE   C3A11861  10.387   8.233   7.743  0.2166  0.1566  0.1517
  798POPE   C4A11862  10.424   8.008   8.123 -0.1396  0.0995  0.2256
  798POPE   C1B11863  10.171   8.734   7.131 -0.3585 -0.0910 -0.3005
  798POPE   C2B11864  10.480   8.891   7.302  0.0471 -0.0595  0.0687
  798POPE   C3B11865  10.784   8.728   7.615  0.3447 -0.0090  0.0673
  798POPE   C4B11866  10.974   8.826   8.013 -0.0651  0.2334  0.0748
  799POPE   NH311867  14.279   1.018   5.617 -0.1653  0.3507  0.3651
  799POPE   PO411868  13.966   1.251   5.933 -0.1119 -0.0237  0.0762
  799POPE   GL111869  13.793   1.231   6.257  0.2188 -0.0753  0.1165
  799POPE   GL211870  13.521   1.104   6.167  0.0007 -0.2255 -0.2386
  799POPE   C1A11871  13.726   1.363   6.591  0.0539  0.0548  0.0301
  799POPE   D2A11872  13.554   1.266   6.824  0.1221 -0.0310 -0.0677
  799POPE   C3A11873  13.732   1.422   7.290 -0.0902  0.2970 -0.2534
  799POPE   C4A11874  13.651   1.345   7.688 -0.1851 -0.2235 -0.0985
  799POPE   C1B11875  13.164   1.106   6.484  0.1622  0.1047  0.1968
  799POPE   C2B11876  13.220   0.888   6.845 -0.1001  0.0646  0.0950
  799POPE   C3B11877  13.021   0.809   7.301  0.1682 -0.3159 -0.1753
  799POPE   C4B11878  12.904   0.739   7.735  0.0553  0.0424 -0.1542
  800POPE   NH311879  12.654   8.448   6.304  0.2247  0.0300  0.2306
  800POPE   PO411880  12.791   7.997   6.293  0.2442 -0.3705 -0.3490
  800POPE   GL111881  12.566   7.782   6.666 -0.1037 -0.3514 -0.3578
  800POPE   GL211882  12.575   7.419   6.866 -0.0296  0.0813  0.0873
  800POPE   C1A11883  12.325   8.026   7.043  0.1082 -0.2948  0.1350
  800POPE   D2A11884  12.115   8.303   7.279 -0.1308  0.0932 -0.0912
  800POPE   C3A11885  12.140   8.155   7.678 -0.1126  0.0671 -0.2208
  800POPE   C4A11886  12.301   7.884   7.949 -0.1107  0.0997  0.2710
  800POPE   C1B11887  12.558   7.647   7.228 -0.1440  0.2413  0.0077
  800POPE   C2B11888  12.686   7.762   7.590 -0.0519 -0.0174  0.2309
  800POPE   C3B11889  12.663   7.558   7.935  0.1754  0.2104  0.0612
  800POPE   C4B11890  12.553   7.464   8.184  0.1632 -0.3355 -0.2009
  801POPE   NH311891   0.007  10.856   6.384 -0.1723  0.0949 -0.1869
  801POPE   PO411892   0.109  10.497   6.189 -0.3781 -0.5348  0.4194
  801POPE   GL111893   0.046  10.453   6.693  0.3149  0.2066  0.0426
  801POPE   GL211894   0.235  10.608   6.808  0.0300 -0.3795 -0.2065
  801POPE   C1A11895   0.029  10.319   7.206 -0.2125 -0.0132  0.2169
  801POPE   D2A11896   0.077  10.583   7.542  0.0506 -0.2749 -0.0578
  801POPE   C3A11897   0.284  10.753   7.954  0.1648  0.0255  0.1656
  801POPE   C4A11898   0.563  11.165   8.243  0.1006  0.0989  0.0219
  801POPE   C1B11899   0.426  10.795   7.205  0.1040  0.2795  0.0424
  801POPE   C2B11900   0.638  10.609   7.647  0.4303 -0.0722  0.3876
  801POPE   C3B11901   0.574  10.360   7.955  0.0635  0.1433 -0.0598
  801POPE   C4B11902   0.536  10.006   8.285  0.2146 -0.2111 -0.2524
  802POPE   NH311903   0.895  10.053   6.476  0.0533  0.2641  0.1818
  802POPE   PO411904   0.672  10.473   6.261 -0.1815  0.0337  0.1273
  802POPE   GL111905   0.782  10.515   6.711  0.0447 -0.1333  0.0093
  802POPE   GL211906   0.624  10.231   6.942 -0.1296  0.0334  0.4047
  802POPE   C1A11907   0.913  10.573   7.174 -0.4332  0.0107 -0.2797
  802POPE   D2A11908   1.170  10.468   7.471  0.1190  0.1231  0.1352
  802POPE   C3A11909   1.051  10.622   7.899 -0.1930  0.1170  0.1252
  802POPE   C4A11910   0.828  10.713   8.219  0.0048  0.2322 -0.1239
  802POPE   C1B11911   0.519  10.248   7.322 -0.1400 -0.0121  0.0061
  802POPE   C2B11912   0.335  10.168   7.563  0.0022 -0.1412  0.1039
  802POPE   C3B11913  -0.157  10.169   7.697 -0.2681 -0.3847 -0.2096
  802POPE   C4B11914  -0.255  10.175   8.103  0.0374 -0.1200 -0.2175
  803POPE   NH311915  12.268   1.524   5.976  0.0329 -0.3702  0.3694
  803POPE   PO411916  12.600   1.284   6.028  0.1192 -0.1021  0.4020
  803POPE   GL111917  12.517   1.334   6.461  0.2526  0.2012  0.0857
  803POPE   GL211918  12.829   1.517   6.535 -0.0581  0.2385  0.0795
  803POPE   C1A11919  12.292   1.267   6.739 -0.0945  0.0066  0.1508
  803POPE   D2A11920  11.918   1.066   6.912 -0.1698 -0.0560  0.0625
  803POPE   C3A11921  12.008   0.790   7.231 -0.1041  0.2298  0.3573
  803POPE   C4A11922  12.098   0.664   7.599  0.1685 -0.1070  0.1159
  803POPE   C1B11923  13.130   1.449   6.840  0.0714 -0.2492  0.0703
  803POPE   C2B11924  13.234   1.269   7.213  0.0735 -0.0804 -0.0136
  803POPE   C3B11925  13.179   1.152   7.680  0.0971  0.2350  0.0460
  803POPE   C4B11926  12.796   1.273   7.894  0.1402  0.0914 -0.0811
  804POPE   NH311927  10.065   0.318   5.761 -0.1011  0.0788  0.1535
  804POPE   PO411928   9.749   0.356   6.002  0.1526  0.0426 -0.0756
  804POPE   GL111929   9.615   0.518   6.431 -0.1778 -0.1386 -0.0053
  804POPE   GL211930   9.411   0.321   6.583  0.2187  0.1966 -0.0452
  804POPE   C1A11931   9.311   0.837   6.624  0.0132  0.3648  0.1711
  804POPE   D2A11932   9.298   0.926   7.085  0.0672 -0.4666 -0.1139
  804POPE   C3A11933   9.716   1.097   7.227  0.0236 -0.1504 -0.5110
  804POPE   C4A11934  10.056   0.914   7.410 -0.0161  0.1412  0.0391
  804POPE   C1B11935   9.414   0.362   6.940  0.4023  0.1301  0.3203
  804POPE   C2B11936   9.467   0.275   7.396  0.0943 -0.1429 -0.1987
  804POPE   C3B11937   9.415   0.335   7.920 -0.0969  0.3645 -0.1406
  804POPE   C4B11938   9.062   0.621   8.090  0.0846  0.3356  0.0207
  805POPE   NH311939   5.034  13.493   5.912 -0.0036 -0.0828  0.1042
  805POPE   PO411940   4.804  13.382   6.210 -0.0926  0.1610  0.2340
  805POPE   GL111941   4.895  13.453   6.626 -0.3183 -0.2548  0.1593
  805POPE   GL211942   5.177  13.312   6.867  0.4705  0.1120  0.5214
  805POPE   C1A11943   5.015  13.914   6.704  0.0685  0.1022  0.3843
  805POPE   D2A11944   4.840  14.326   6.962  0.2918 -0.1451  0.0469
  805POPE   C3A11945   5.034  14.214   7.247  0.0670  0.0383 -0.1533
  805POPE   C4A11946   4.924  14.288   7.629 -0.0334  0.1003 -0.2329
  805POPE   C1B11947   5.001  13.652   7.071  0.0562  0.0459  0.1394
  805POPE   C2B11948   4.926  13.711   7.478 -0.1125 -0.0824 -0.2558
  805POPE   C3B11949   5.128  13.877   7.848  0.2227  0.0754 -0.3625
  805POPE   C4B11950   5.036  14.157   8.138  0.0657 -0.4517  0.1385
  806POPE   NH311951   2.163  13.543   6.371  0.1339  0.2891 -0.1201
  806POPE   PO411952   2.249  13.159   6.139  0.1707 -0.1110  0.3469
  806POPE   GL111953   2.300  13.056   6.513  0.1273  0.2530 -0.0334
  806POPE   GL211954   2.389  12.812   6.677 -0.1057 -0.0832  0.0704
  806POPE   C1A11955   1.962  13.151   6.969 -0.0102  0.3210 -0.1325
  806POPE   D2A11956   2.109  13.042   7.534  0.0637  0.1007 -0.2109
  806POPE   C3A11957   2.562  13.116   7.667  0.0337  0.0738 -0.0184
  806POPE   C4A11958   2.672  13.481   7.868  0.1006  0.2838  0.1042
  806POPE   C1B11959   2.004  12.668   6.796  0.0384 -0.0600  0.1085
  806POPE   C2B11960   1.884  12.488   7.182  0.0671  0.1019  0.0032
  806POPE   C3B11961   2.138  12.340   7.506 -0.0173 -0.1896 -0.1154
  806POPE   C4B11962   2.356  12.520   7.806 -0.0049  0.3406 -0.2271
  807POPE   NH311963   8.865   3.394   6.142  0.1091  0.0684 -0.0301
  807POPE   PO411964   9.188   3.325   5.833  0.1991 -0.1941 -0.0434
  807POPE   GL111965   9.309   3.276   6.365 -0.1737  0.0786  0.0208
  807POPE   GL211966   9.579   3.101   6.358  0.2114 -0.0133  0.0351
  807POPE   C1A11967   9.048   3.394   6.767  0.2204  0.2209 -0.2106
  807POPE   D2A11968   8.986   3.216   7.168  0.1576  0.4043  0.1803
  807POPE   C3A11969   8.934   3.025   7.635 -0.1820 -0.1236  0.1881
  807POPE   C4A11970   9.000   2.991   8.055  0.2261  0.1627  0.1477
  807POPE   C1B11971   9.413   2.984   6.795 -0.0202  0.0732 -0.2737
  807POPE   C2B11972   9.337   2.904   7.286  0.1367 -0.0056  0.3533
  807POPE   C3B11973   9.440   2.927   7.736  0.0952  0.0934 -0.4289
  807POPE   C4B11974   9.481   2.908   8.212 -0.0878 -0.1587  0.2594
  808POPE   NH311975   3.360   6.513   5.954 -0.0513 -0.0453 -0.2298
  808POPE   PO411976   3.390   6.256   6.378  0.3280 -0.0641 -0.1687
  808POPE   GL111977   3.372   6.066   6.837 -0.0171  0.0322  0.0368
  808POPE   GL211978   3.210   6.251   7.071 -0.0324 -0.0097 -0.0608
  808POPE   C1A11979   3.711   5.985   7.091  0.0343  0.0572 -0.2026
  808POPE   D2A11980   3.940   6.236   7.312 -0.1799 -0.2288 -0.2746
  808POPE   C3A11981   4.094   6.564   7.439 -0.1931  0.1801  0.2337
  808POPE   C4A11982   4.360   6.730   7.323 -0.3058  0.0308 -0.1824
  808POPE   C1B11983   3.267   6.502   7.352  0.1696 -0.1220 -0.1609
  808POPE   C2B11984   3.227   6.420   7.783 -0.2873 -0.1075  0.1803
  808POPE   C3B11985   3.280   6.336   8.145  0.3593  0.0067 -0.1187
  808POPE   C4B11986   3.479   6.072   8.398  0.2253  0.1162 -0.0794
  809POPE   NH311987  16.041   6.855   6.599  0.1888  0.0883 -0.2670
  809POPE   PO411988  15.865   7.221   6.500 -0.2312 -0.1041 -0.0332
  809POPE   GL111989  15.932   7.361   6.986  0.2498  0.0257  0.1316
  809POPE   GL211990  15.853   7.694   7.088  0.1099  0.1918  0.1113
  809POPE   C1A11991  15.586   7.232   7.235 -0.0392 -0.0223  0.0713
  809POPE   D2A11992  15.427   6.966   7.577  0.2257  0.1363  0.1193
  809POPE   C3A11993  15.258   7.057   7.993 -0.0802  0.4823 -0.0306
  809POPE   C4A11994  15.309   7.245   8.376 -0.3126  0.0186  0.1346
  809POPE   C1B11995  15.914   7.487   7.571 -0.2857  0.1585 -0.0147
  809POPE   C2B11996  15.699   7.311   7.902  0.0672 -0.0381 -0.0760
  809POPE   C3B11997  15.755   7.055   8.285  0.1189  0.1708 -0.1411
  809POPE   C4B11998  15.887   6.858   8.642  0.0412 -0.0822 -0.2585
  810POPE   NH311999  14.092   8.548   6.532  0.0154 -0.2919  0.0681
  810POPE   PO412000  14.250   8.930   6.709  0.0723  0.2422  0.0477
  810POPE   GL112001  14.362   8.720   6.962 -0.0027  0.2550 -0.2782
  810POPE   GL212002  14.374   8.395   7.046  0.1076  0.2112  0.0115
  810POPE   C1A12003  14.307   8.683   7.448  0.0806  0.0725 -0.0806
  810POPE   D2A12004  14.180   8.479   7.797  0.0416 -0.0098  0.0191
  810POPE   C3A12005  14.007   8.188   8.084 -0.1974 -0.1985 -0.0233
  810POPE   C4A12006  13.941   8.090   8.443  0.0370 -0.1040 -0.4363
  810POPE   C1B12007  14.268   8.103   7.296 -0.1626 -0.3899 -0.1559
  810POPE   C2B12008  14.184   7.957   7.662 -0.0337 -0.1268  0.1074
  810POPE   C3B12009  14.156   7.573   7.923  0.1824  0.0603 -0.0829
  810POPE   C4B12010  14.262   7.303   8.360 -0.1390  0.0950  0.0595
  811POPE   NH312011   0.293  16.219   5.819  0.2418  0.0468  0.2174
  811POPE   PO412012   0.280  16.671   6.013 -0.3476  0.3274  0.2427
  811POPE   GL112013   0.249  16.738   6.425  0.0869 -0.3706  0.0190
  811POPE   GL212014   0.077  17.004   6.558 -0.0080  0.0112 -0.0115
  811POPE   C1A12015   0.609  16.719   6.742 -0.0221 -0.0361 -0.0584
  811POPE   D2A12016   0.945  16.460   6.949 -0.1467 -0.0887 -0.1229
  811POPE   C3A12017   1.030  16.133   7.154  0.0627  0.1246 -0.2549
  811POPE   C4A12018   0.892  15.910   7.321 -0.1540 -0.0323 -0.2798
  811POPE   C1B12019  -0.045  17.049   6.898 -0.0069  0.1331  0.0950
  811POPE   C2B12020  -0.161  17.063   7.246 -0.0682 -0.1658 -0.1549
  811POPE   C3B12021  -0.179  17.318   7.515 -0.2223  0.2018 -0.1794
  811POPE   C4B12022  -0.232  17.532   7.880 -0.0300 -0.0851  0.2099
  812YOPE   NH312023   0.648  12.198   6.300 -0.1721 -0.1362  0.0178
  812YOPE   PO412024   0.513  11.751   6.336  0.2527  0.3370  0.0939
  812YOPE   GL112025   0.494  11.494   6.650  0.1806  0.2779 -0.2074
  812YOPE   GL212026   0.195  11.633   6.661  0.1673  0.0436 -0.0113
  812YOPE   C1A12027   0.364  11.396   7.137  0.1851  0.1628  0.2875
  812YOPE   D2A12028   0.245  11.151   7.444  0.1352  0.0533  0.0845
  812YOPE   C3A12029  -0.104  11.125   7.707  0.1331 -0.1405 -0.0786
  812YOPE   C4A12030  -0.100  11.229   8.115 -0.0943 -0.1753  0.0946
  812YOPE   C1B12031  -0.081  11.770   6.978  0.1947  0.0715  0.2052
  812YOPE   C2B12032   0.034  12.147   7.176 -0.0831 -0.2181  0.0681
  812YOPE   D3B12033   0.255  12.521   7.177  0.1867  0.2039 -0.3416
  812YOPE   C4B12034   0.531  12.874   6.976  0.3834 -0.1769 -0.0631
  813YOPE   NH312035   4.402   4.707   6.385 -0.1002  0.0648  0.3497
  813YOPE   PO412036   4.873   4.715   6.186 -0.1591 -0.0838 -0.0253
  813YOPE   GL112037   4.880   4.723   6.634 -0.0829 -0.0099 -0.3678
  813YOPE   GL212038   4.748   4.400   6.669 -0.4886 -0.2026  0.1934
  813YOPE   C1A12039   4.917   4.880   7.000 -0.1319 -0.0322  0.2560
  813YOPE   D2A12040   4.924   5.155   7.373 -0.0843  0.1870 -0.0184
  813YOPE   C3A12041   4.779   5.104   7.615  0.2332  0.2735  0.0249
  813YOPE   C4A12042   4.584   4.837   7.819  0.1793 -0.0439 -0.3245
  813YOPE   C1B12043   4.560   4.355   7.086  0.0083  0.1876  0.0072
  813YOPE   C2B12044   4.458   4.330   7.590 -0.2139 -0.0442 -0.0022
  813YOPE   D3B12045   4.463   4.397   8.093  0.0399 -0.0526 -0.0652
  813YOPE   C4B12046   4.274   4.483   8.382 -0.1503  0.0476  0.0592
  814YOPE   NH312047   8.510   1.593   6.169 -0.2485 -0.1410  0.2160
  814YOPE   PO412048   8.881   1.571   5.939 -0.0193 -0.3501 -0.1847
  814YOPE   GL112049   9.048   1.807   6.268 -0.1314 -0.2965 -0.2584
  814YOPE   GL212050   8.800   1.962   6.413 -0.3363  0.0801 -0.3776
  814YOPE   C1A12051   9.259   1.749   6.641 -0.1747  0.3558  0.3500
  814YOPE   D2A12052   9.637   1.837   6.860  0.0246  0.2660  0.0816
  814YOPE   C3A12053   9.711   1.807   7.357  0.0652 -0.0072  0.4432
  814YOPE   C4A12054   9.789   1.799   7.772 -0.1626  0.3718 -0.1124
  814YOPE   C1B12055   8.833   1.758   6.894  0.2724 -0.0441  0.0791
  814YOPE   C2B12056   8.936   1.706   7.287 -0.0883  0.0368  0.1488
  814YOPE   D3B12057   9.216   1.628   7.616 -0.2674  0.0842 -0.2772
  814YOPE   C4B12058   9.391   1.341   7.829 -0.0628  0.0078  0.0284
  815YOPE   NH312059  14.888   6.776   6.629 -0.1011  0.0810  0.2498
  815YOPE   PO412060  14.434   6.746   6.536  0.0967  0.3631  0.1509
  815YOPE   GL112061  14.441   7.068   6.789 -0.0878  0.4342 -0.2106
  815YOPE   GL212062  14.298   7.266   6.800  0.0721  0.0110  0.0695
  815YOPE   C1A12063  14.561   6.958   7.156 -0.2461 -0.0627 -0.0467
  815YOPE   D2A12064  14.503   6.663   7.426  0.3699  0.2536 -0.0131
  815YOPE   C3A12065  14.265   6.790   7.683 -0.0679  0.2628 -0.0839
  815YOPE   C4A12066  14.242   6.933   7.996 -0.2610 -0.1213 -0.0163
  815YOPE   C1B12067  13.859   7.309   6.856 -0.1105  0.2631 -0.0969
  815YOPE   C2B12068  13.513   7.304   7.108  0.1653 -0.1554 -0.0342
  815YOPE   D3B12069  13.351   7.653   7.338 -0.0805  0.1627 -0.2261
  815YOPE   C4B12070  13.211   7.858   7.762  0.0855 -0.1545  0.0663
  816YOPE   NH312071   6.077   0.230   6.059  0.0300  0.0756  0.0740
  816YOPE   PO412072   6.014  -0.202   6.029 -0.3283  0.4664  0.3076
  816YOPE   GL112073   5.989  -0.107   6.447  0.0511  0.1448 -0.4882
  816YOPE   GL212074   6.183   0.156   6.536  0.0265 -0.2116  0.1954
  816YOPE   C1A12075   5.913  -0.239   6.858  0.1178  0.1560  0.0737
  816YOPE   D2A12076   6.059  -0.119   7.292 -0.0384 -0.2637  0.0119
  816YOPE   C3A12077   6.407  -0.090   7.311  0.0360 -0.1364 -0.1680
  816YOPE   C4A12078   6.754  -0.426   7.335 -0.0476 -0.1965 -0.3650
  816YOPE   C1B12079   6.146   0.278   6.879 -0.5136  0.1082  0.1758
  816YOPE   C2B12080   6.198   0.442   7.351 -0.1752 -0.0663  0.1949
  816YOPE   D3B12081   6.254   0.554   7.768 -0.0695 -0.0850  0.0591
  816YOPE   C4B12082   6.465   0.407   8.180 -0.1372 -0.2301 -0.2065
  817YOPE   NH312083   2.708  15.412   6.025 -0.1454  0.1007  0.1628
  817YOPE   PO412084   2.349  15.225   6.169  0.1468  0.1937 -0.0919
  817YOPE   GL112085   2.446  15.438   6.546  0.2426  0.0682  0.0308
  817YOPE   GL212086   2.673  15.565   6.516  0.0283  0.0653  0.0119
  817YOPE   C1A12087   2.177  15.615   6.828  0.0071 -0.3367  0.1871
  817YOPE   D2A12088   2.065  15.891   7.191 -0.0222  0.2194  0.3474
  817YOPE   C3A12089   1.865  15.804   7.571  0.1541 -0.3116 -0.0176
  817YOPE   C4A12090   1.757  15.679   7.939 -0.3088  0.2020 -0.0784
  817YOPE   C1B12091   2.691  15.743   6.902 -0.3603  0.0383 -0.1687
  817YOPE   C2B12092   2.971  15.687   7.230  0.0335  0.0464  0.1596
  817YOPE   D3B12093   2.830  15.390   7.608 -0.0322 -0.2757  0.0522
  817YOPE   C4B12094   3.077  15.108   7.744 -0.0054 -0.0758 -0.1311
  818YOPE   NH312095  11.170  10.080   6.176 -0.0522 -0.0597 -0.0553
  818YOPE   PO412096  11.321   9.745   6.382  0.1468  0.2297 -0.0692
  818YOPE   GL112097  11.260   9.684   6.851  0.1842  0.1165  0.1302
  818YOPE   GL212098  11.118   9.480   6.928 -0.1174  0.1792 -0.1169
  818YOPE   C1A12099  11.300  10.001   7.145 -0.0080  0.0738 -0.1181
  818YOPE   D2A12100  11.130  10.176   7.543  0.2633  0.2692  0.0757
  818YOPE   C3A12101  10.856   9.939   7.780 -0.2439  0.1163 -0.1415
  818YOPE   C4A12102  10.641   9.855   7.983 -0.0147  0.2843 -0.0859
  818YOPE   C1B12103  11.029   9.607   7.375  0.2594  0.0016 -0.1535
  818YOPE   C2B12104  11.387   9.757   7.623 -0.0916 -0.0652 -0.0474
  818YOPE   D3B12105  11.490  10.033   7.933  0.1622  0.2004  0.1525
  818YOPE   C4B12106  11.653   9.696   8.213 -0.1851  0.0034 -0.0862
  819YOPE   NH312107   0.945   9.214   6.655  0.3395 -0.2555 -0.1557
  819YOPE   PO412108   1.032   9.623   6.661  0.1465  0.2715 -0.1471
  819YOPE   GL112109   0.723   9.692   6.957 -0.0439  0.3502  0.1630
  819YOPE   GL212110   0.748   9.428   7.087 -0.0906  0.0044  0.3345
  819YOPE   C1A12111   0.623   9.772   7.473 -0.3271  0.2078  0.3624
  819YOPE   D2A12112   0.611   9.681   7.854  0.0732  0.3014 -0.0657
  819YOPE   C3A12113   0.972   9.699   8.043 -0.2077 -0.1219  0.0878
  819YOPE   C4A12114   1.038   9.781   8.463 -0.1501 -0.0547 -0.1489
  819YOPE   C1B12115   1.013   9.380   7.552  0.4911  0.5301  0.1100
  819YOPE   C2B12116   1.095   9.243   7.855  0.0808  0.0365  0.1541
  819YOPE   D3B12117   1.010   9.317   8.289 -0.1649  0.3892  0.4638
  819YOPE   C4B12118   1.106   9.189   8.629  0.1846  0.0222 -0.0935
  820YOPE   NH312119   8.427  14.209   6.027 -0.0867  0.1648 -0.2417
  820YOPE   PO412120   8.623  13.823   5.827 -0.4349  0.1703  0.2503
  820YOPE   GL112121   8.597  13.744   6.231 -0.2708  0.1399  0.1662
  820YOPE   GL212122   8.819  13.436   6.409 -0.0306 -0.0529 -0.1393
  820YOPE   C1A12123   8.552  13.835   6.693  0.1669 -0.1978 -0.1322
  820YOPE   D2A12124   8.246  13.790   6.950  0.3467  0.0561  0.0742
  820YOPE   C3A12125   8.270  14.136   7.186 -0.1808  0.0243 -0.1923
  820YOPE   C4A12126   8.553  14.551   7.188 -0.0824 -0.1120 -0.3850
  820YOPE   C1B12127   8.762  13.292   6.966 -0.2164 -0.0723  0.2291
  820YOPE   C2B12128   8.854  13.224   7.378  0.1375 -0.5149 -0.1738
  820YOPE   D3B12129   8.571  13.275   7.721  0.0751 -0.0707 -0.2769
  820YOPE   C4B12130   8.457  13.709   8.025 -0.2698  0.1455  0.2776
  821YOPE   NH312131  13.671  15.082   6.359  0.1892  0.1542 -0.1437
  821YOPE   PO412132  13.376  14.668   6.329 -0.0245 -0.1173  0.1960
  821YOPE   GL112133  13.511  14.809   6.775  0.2412 -0.1448  0.2200
  821YOPE   GL212134  13.368  15.111   6.814  0.2539 -0.0905 -0.4252
  821YOPE   C1A12135  13.558  14.836   7.214  0.2204  0.2072  0.5376
  821YOPE   D2A12136  13.696  14.979   7.669 -0.1042  0.3606 -0.0150
  821YOPE   C3A12137  14.006  14.837   7.841  0.3045 -0.1940  0.0823
  821YOPE   C4A12138  14.073  14.648   8.259 -0.0604  0.1556 -0.5796
  821YOPE   C1B12139  13.184  15.555   7.030  0.0481  0.3634  0.0832
  821YOPE   C2B12140  13.120  15.660   7.345 -0.1378 -0.1803 -0.0418
  821YOPE   D3B12141  13.083  15.754   7.694 -0.0063 -0.1873 -0.2498
  821YOPE   C4B12142  13.296  15.820   8.021  0.0760 -0.0558  0.1590
  822YOPE   NH312143   2.600   0.606   6.513  0.1020  0.0198  0.0238
  822YOPE   PO412144   2.171   0.696   6.534  0.3629 -0.3604  0.1138
  822YOPE   GL112145   2.163   0.907   6.860 -0.2267  0.3109  0.0422
  822YOPE   GL212146   2.514   1.010   6.911 -0.0852 -0.0027 -0.1084
  822YOPE   C1A12147   1.910   0.789   7.211 -0.0302 -0.0335  0.2281
  822YOPE   D2A12148   1.712   0.946   7.497  0.0684  0.0258  0.0661
  822YOPE   C3A12149   1.505   0.663   7.774  0.1317  0.1288 -0.3107
  822YOPE   C4A12150   1.381   0.321   8.054 -0.3647  0.0799  0.1537
  822YOPE   C1B12151   2.359   1.024   7.327  0.2375 -0.2425  0.1850
  822YOPE   C2B12152   2.223   0.948   7.744 -0.0124  0.3506  0.1976
  822YOPE   D3B12153   1.914   1.069   7.981 -0.1187  0.1029  0.0703
  822YOPE   C4B12154   1.525   1.031   8.156  0.1647  0.2607  0.1176
  823YOPE   NH312155   7.698  16.667   5.685 -0.0425  0.0821  0.1277
  823YOPE   PO412156   7.280  16.552   5.903  0.2070 -0.1198 -0.2616
  823YOPE   GL112157   7.608  16.671   6.258 -0.0872 -0.1406 -0.0881
  823YOPE   GL212158   7.601  16.922   6.401  0.4222  0.0354 -0.2034
  823YOPE   C1A12159   7.512  16.425   6.571 -0.1321 -0.0312  0.4165
  823YOPE   D2A12160   7.444  16.583   7.070  0.0670  0.1608 -0.1588
  823YOPE   C3A12161   7.413  16.781   7.393  0.0289  0.0369  0.0935
  823YOPE   C4A12162   7.378  16.653   7.842  0.2027  0.1902  0.2645
  823YOPE   C1B12163   7.307  16.952   6.721  0.1921 -0.0683 -0.0306
  823YOPE   C2B12164   7.174  17.133   7.064 -0.0760  0.3460 -0.0304
  823YOPE   D3B12165   7.225  17.216   7.491 -0.0579 -0.0795  0.2762
  823YOPE   C4B12166   7.461  17.302   7.840  0.2950  0.2829  0.2800
  824YOPE   NH312167   0.117   1.255   5.942  0.1042  0.1910  0.1199
  824YOPE   PO412168   0.465   1.425   6.251  0.2523  0.0990 -0.2663
  824YOPE   GL112169   0.395   1.380   6.702  0.2950 -0.1859 -0.3176
  824YOPE   GL212170   0.531   1.098   6.873 -0.1577 -0.1572 -0.1254
  824YOPE   C1A12171   0.294   1.577   7.137  0.2335 -0.2475 -0.3912
  824YOPE   D2A12172   0.254   1.433   7.593  0.0714  0.2903  0.0539
  824YOPE   C3A12173  -0.047   1.603   7.922  0.2493 -0.1237  0.0930
  824YOPE   C4A12174  -0.115   1.900   8.187 -0.1785 -0.2218  0.0003
  824YOPE   C1B12175   0.459   0.992   7.319 -0.0452 -0.1094 -0.1441
  824YOPE   C2B12176   0.505   0.966   7.734 -0.2210  0.1085 -0.1884
  824YOPE   D3B12177   0.662   0.952   8.173  0.1086  0.1323 -0.1724
  824YOPE   C4B12178   0.438   1.003   8.631 -0.1102 -0.0628 -0.0264
  825YOPE   NH312179  14.562  16.463   6.343  0.2547  0.0099 -0.2060
  825YOPE   PO412180  14.371  15.980   6.394 -0.4548 -0.0107 -0.1301
  825YOPE   GL112181  14.579  15.976   6.721  0.0599 -0.2957 -0.1166
  825YOPE   GL212182  14.918  16.061   6.708  0.1125  0.1262 -0.0624
  825YOPE   C1A12183  14.582  16.148   7.131  0.1993  0.0366  0.2068
  825YOPE   D2A12184  14.302  16.485   7.135  0.0267 -0.0499  0.0968
  825YOPE   C3A12185  14.153  16.676   7.532  0.2813  0.1643 -0.2482
  825YOPE   C4A12186  13.953  16.572   7.893 -0.3317  0.0885  0.1383
  825YOPE   C1B12187  14.890  15.782   7.030 -0.0685 -0.2026 -0.0345
  825YOPE   C2B12188  14.967  15.853   7.352 -0.1470  0.2519  0.0583
  825YOPE   D3B12189  14.803  15.736   7.738  0.1885  0.0372 -0.1060
  825YOPE   C4B12190  14.778  15.474   8.171  0.3791  0.0916 -0.0121
  826YOPE   NH312191  15.933   8.560   6.279  0.2504 -0.1105 -0.2437
  826YOPE   PO412192  15.991   8.186   6.584 -0.1226  0.2740  0.0756
  826YOPE   GL112193  15.911   8.244   7.033 -0.3832 -0.2886  0.0141
  826YOPE   GL212194  15.649   8.364   7.197  0.2735  0.1240  0.0983
  826YOPE   C1A12195  15.972   7.993   7.501  0.1612  0.0249  0.0626
  826YOPE   D2A12196  16.136   7.791   7.905 -0.3892  0.2853  0.0947
  826YOPE   C3A12197  16.119   7.584   8.276 -0.2967 -0.0704  0.3245
  826YOPE   C4A12198  16.389   7.451   8.692 -0.0957  0.0400 -0.1834
  826YOPE   C1B12199  15.540   8.287   7.668  0.0750  0.1685  0.0747
  826YOPE   C2B12200  15.556   8.279   8.078 -0.1700  0.1686 -0.3001
  826YOPE   D3B12201  15.482   8.636   8.397 -0.2124 -0.0268  0.2584
  826YOPE   C4B12202  15.618   8.915   8.798  0.0107  0.0186 -0.0148
  827YOPE   NH312203  14.722   9.213   6.687  0.1012 -0.2638 -0.0356
  827YOPE   PO412204  15.041   9.111   6.572 -0.2711  0.4081 -0.4478
  827YOPE   GL112205  15.072   8.822   6.841  0.0856  0.0217 -0.0365
  827YOPE   GL212206  15.338   8.746   7.097 -0.3462 -0.1946  0.2469
  827YOPE   C1A12207  14.793   8.626   7.156 -0.1439  0.1825 -0.0961
  827YOPE   D2A12208  14.696   8.385   7.549 -0.1297  0.2101  0.0940
  827YOPE   C3A12209  14.615   8.261   7.898  0.1649  0.1031 -0.2349
  827YOPE   C4A12210  14.417   8.268   8.334  0.2194 -0.2687 -0.2317
  827YOPE   C1B12211  15.210   8.935   7.429 -0.2573 -0.2367 -0.1069
  827YOPE   C2B12212  15.052   9.290   7.684 -0.0055  0.0154 -0.2921
  827YOPE   D3B12213  15.210   9.427   8.164  0.0453 -0.1051 -0.2994
  827YOPE   C4B12214  15.475   9.236   8.458  0.1377  0.0174  0.1253
  828YOPE   NH312215   5.401   9.340   6.507 -0.0747  0.3410  0.0150
  828YOPE   PO412216   5.534   8.928   6.497 -0.0615 -0.2043 -0.1544
  828YOPE   GL112217   5.610   9.081   6.895  0.0093 -0.1432  0.0063
  828YOPE   GL212218   5.845   9.054   7.079 -0.0194 -0.0598  0.3263
  828YOPE   C1A12219   5.461   9.230   7.298  0.1280 -0.0038 -0.1926
  828YOPE   D2A12220   5.439   8.920   7.689  0.0036  0.2046  0.1329
  828YOPE   C3A12221   5.239   8.775   8.043  0.1039  0.3195 -0.0601
  828YOPE   C4A12222   5.186   8.291   8.247 -0.2566  0.1281  0.0916
  828YOPE   C1B12223   5.895   9.092   7.460 -0.2476  0.3274  0.3743
  828YOPE   C2B12224   5.899   9.066   7.878 -0.0802 -0.0180 -0.0328
  828YOPE   D3B12225   5.777   8.911   8.206 -0.0422  0.1830 -0.2033
  828YOPE   C4B12226   5.471   8.716   8.523 -0.0635 -0.0180  0.1361
  829YOPE   NH312227   6.022   2.427   5.938  0.1613  0.0755 -0.0680
  829YOPE   PO412228   6.399   2.477   6.147 -0.1693 -0.2804  0.2210
  829YOPE   GL112229   6.225   2.266   6.407  0.3349  0.3323  0.0371
  829YOPE   GL212230   5.927   2.212   6.514 -0.0600  0.1321 -0.2471
  829YOPE   C1A12231   6.379   2.148   6.794 -0.1643 -0.1259  0.0428
  829YOPE   D2A12232   6.615   1.990   7.115  0.3052 -0.2656  0.2379
  829YOPE   C3A12233   6.779   2.040   7.596 -0.0310 -0.2284 -0.0726
  829YOPE   C4A12234   7.157   1.855   7.797  0.2301  0.1467 -0.1133
  829YOPE   C1B12235   5.900   2.341   6.969 -0.1765  0.1768  0.2865
  829YOPE   C2B12236   5.909   2.304   7.364  0.3918  0.1066  0.2829
  829YOPE   D3B12237   6.154   2.459   7.621  0.2093  0.1793 -0.0374
  829YOPE   C4B12238   6.339   2.181   7.933  0.3108 -0.2146  0.3453
  830YOPE   NH312239  15.045  15.948   6.157 -0.0021 -0.1177  0.0445
  830YOPE   PO412240  15.101  15.497   5.962  0.0370 -0.0484 -0.3126
  830YOPE   GL112241  15.029  15.401   6.364  0.1469 -0.1225 -0.1259
  830YOPE   GL212242  14.708  15.550   6.568 -0.0513 -0.0988  0.1116
  830YOPE   C1A12243  15.201  15.492   6.697  0.1629  0.1190 -0.1786
  830YOPE   D2A12244  15.364  15.446   7.099 -0.2181 -0.0621  0.0373
  830YOPE   C3A12245  15.380  15.113   7.388  0.1957  0.3563  0.1324
  830YOPE   C4A12246  15.267  14.690   7.483  0.1263  0.2800  0.1528
  830YOPE   C1B12247  14.771  15.338   6.901 -0.0614  0.0982 -0.1276
  830YOPE   C2B12248  15.074  15.070   7.061 -0.0856  0.0429  0.2191
  830YOPE   D3B12249  15.197  14.613   6.990  0.0825  0.0366  0.1700
  830YOPE   C4B12250  15.372  14.196   7.096  0.2094 -0.1493 -0.0133
  831YOPE   NH312251  13.757   4.899   6.477  0.1090 -0.1527 -0.2683
  831YOPE   PO412252  14.145   4.795   6.778  0.0999  0.0576  0.1080
  831YOPE   GL112253  14.142   4.993   7.109  0.0474 -0.1830  0.0092
  831YOPE   GL212254  14.289   5.286   7.226 -0.1127 -0.1135 -0.3067
  831YOPE   C1A12255  13.880   5.288   7.493 -0.1810  0.4004 -0.2005
  831YOPE   D2A12256  14.004   5.186   7.894 -0.5181  0.2161 -0.3698
  831YOPE   C3A12257  13.864   5.233   8.252  0.4050 -0.2174  0.0044
  831YOPE   C4A12258  13.677   5.395   8.615  0.0377 -0.1289  0.2300
  831YOPE   C1B12259  14.495   5.390   7.653  0.2867 -0.1828  0.1164
  831YOPE   C2B12260  14.420   5.348   8.081 -0.0300  0.0825 -0.1105
  831YOPE   D3B12261  14.269   5.489   8.518 -0.1811  0.2214 -0.0327
  831YOPE   C4B12262  14.006   5.793   8.667  0.0182 -0.1495 -0.1241
  832YOPE   NH312263  17.618  16.266   6.276  0.1730  0.1411  0.1122
  832YOPE   PO412264  17.793  15.809   6.224  0.1561 -0.0609  0.0779
  832YOPE   GL112265  17.998  15.706   6.544  0.1776  0.0710 -0.0585
  832YOPE   GL212266  17.724  15.611   6.702  0.0697 -0.1238  0.0285
  832YOPE   C1A12267  18.107  15.611   7.031 -0.2960  0.0239 -0.0353
  832YOPE   D2A12268  18.044  15.567   7.427 -0.0472  0.0585  0.1005
  832YOPE   C3A12269  18.155  15.708   7.712  0.2123 -0.1926  0.0562
  832YOPE   C4A12270  18.428  15.749   8.040 -0.1521 -0.1363  0.1791
  832YOPE   C1B12271  17.528  15.665   7.101 -0.0729 -0.0832  0.0778
  832YOPE   C2B12272  17.513  15.641   7.518 -0.2426 -0.0020  0.0898
  832YOPE   D3B12273  17.686  15.573   7.965  0.0762 -0.1506  0.1250
  832YOPE   C4B12274  17.615  15.416   8.392  0.1961 -0.2491 -0.2885
  833YOPE   NH312275   1.688   9.172   6.375 -0.0723  0.1096 -0.1509
  833YOPE   PO412276   1.978   9.178   6.505 -0.1662  0.1865 -0.1080
  833YOPE   GL112277   2.302   8.969   6.793 -0.2981 -0.1575  0.1211
  833YOPE   GL212278   2.332   9.204   6.998 -0.1667  0.0314  0.0390
  833YOPE   C1A12279   2.592   8.789   7.086  0.1187  0.0336 -0.1671
  833YOPE   D2A12280   2.506   8.740   7.524 -0.0685 -0.1531 -0.1208
  833YOPE   C3A12281   2.188   8.538   7.701 -0.1220 -0.0967 -0.0237
  833YOPE   C4A12282   2.142   8.459   8.186  0.0464  0.2336  0.1049
  833YOPE   C1B12283   2.332   9.281   7.375  0.1437 -0.1213 -0.0179
  833YOPE   C2B12284   2.393   9.194   7.734 -0.2756 -0.0176  0.0481
  833YOPE   D3B12285   2.476   9.298   8.162  0.2781  0.0548  0.0601
  833YOPE   C4B12286   2.738   9.164   8.531 -0.1524 -0.2599 -0.3676
  834YOPE   NH312287   6.200   1.053   6.099  0.0016 -0.0566 -0.3614
  834YOPE   PO412288   6.486   1.403   5.915  0.0201  0.3225  0.0576
  834YOPE   GL112289   6.682   1.071   6.222  0.0060  0.0755  0.2302
  834YOPE   GL212290   6.753   0.897   6.505  0.0496  0.2416  0.1096
  834YOPE   C1A12291   6.900   1.361   6.575  0.0140  0.0552 -0.1177
  834YOPE   D2A12292   7.343   1.564   6.671  0.0625 -0.0284 -0.3886
  834YOPE   C3A12293   7.548   1.635   7.019  0.0258 -0.1041  0.2494
  834YOPE   C4A12294   7.550   1.853   7.375 -0.1465  0.0472 -0.0924
  834YOPE   C1B12295   6.956   0.922   7.023 -0.0501 -0.2147  0.3483
  834YOPE   C2B12296   6.965   1.069   7.401 -0.0280 -0.0091 -0.2219
  834YOPE   D3B12297   7.103   1.438   7.558 -0.3153  0.1806 -0.2923
  834YOPE   C4B12298   7.350   1.366   7.918 -0.3122 -0.2163 -0.1407
  835YOPE   NH312299   5.002  11.688   6.464 -0.0838 -0.0447 -0.1286
  835YOPE   PO412300   4.580  11.489   6.622 -0.0004  0.1547 -0.1337
  835YOPE   GL112301   4.811  11.653   7.002 -0.0410 -0.3721 -0.1769
  835YOPE   GL212302   4.501  11.664   7.218  0.0107  0.1484 -0.3662
  835YOPE   C1A12303   4.935  11.916   7.407  0.1987 -0.3831  0.0165
  835YOPE   D2A12304   5.316  11.964   7.737 -0.0001  0.2170 -0.0018
  835YOPE   C3A12305   5.348  11.975   8.137 -0.1202 -0.2416 -0.2629
  835YOPE   C4A12306   5.616  12.027   8.474  0.1108 -0.0524 -0.2554
  835YOPE   C1B12307   4.490  11.678   7.682 -0.2630  0.1036 -0.0259
  835YOPE   C2B12308   4.493  11.560   8.091 -0.1762 -0.0747 -0.0617
  835YOPE   D3B12309   4.340  11.531   8.534 -0.1141 -0.2095 -0.2339
  835YOPE   C4B12310   4.082  11.500   8.891 -0.1648 -0.0690  0.0666
  836YOPE   NH312311   2.158   3.700   6.809 -0.2805 -0.0407  0.0794
  836YOPE   PO412312   2.020   4.127   6.776 -0.0164 -0.0111  0.1063
  836YOPE   GL112313   1.874   3.892   7.187  0.0668 -0.3142 -0.1546
  836YOPE   GL212314   1.699   3.688   7.176 -0.0114  0.0106 -0.2462
  836YOPE   C1A12315   2.014   3.864   7.651 -0.1387  0.3461  0.1160
  836YOPE   D2A12316   2.000   3.815   8.158  0.2723  0.3557  0.0565
  836YOPE   C3A12317   1.741   3.969   8.426 -0.1465 -0.0742 -0.0299
  836YOPE   C4A12318   1.520   4.126   8.775 -0.1721  0.0586 -0.0108
  836YOPE   C1B12319   1.718   3.458   7.444  0.0988  0.3939  0.0415
  836YOPE   C2B12320   1.832   3.428   7.804  0.3947  0.1786 -0.2316
  836YOPE   D3B12321   2.266   3.394   8.005 -0.0517 -0.1795 -0.0856
  836YOPE   C4B12322   2.406   3.261   8.447  0.1144 -0.3451  0.0727
  837YOPE   NH312323  16.338   2.564   6.350  0.0315  0.1460  0.0545
  837YOPE   PO412324  16.692   2.635   6.273 -0.1228 -0.1177 -0.0979
  837YOPE   GL112325  16.749   2.535   6.719  0.2000  0.1982  0.0295
  837YOPE   GL212326  16.601   2.912   6.752 -0.0389 -0.0683 -0.1924
  837YOPE   C1A12327  16.468   2.284   7.010 -0.2792 -0.0734  0.1568
  837YOPE   D2A12328  16.256   2.055   7.330 -0.0497  0.0825  0.0864
  837YOPE   C3A12329  16.170   2.093   7.739 -0.0141 -0.0679 -0.1952
  837YOPE   C4A12330  16.299   2.078   8.168  0.2492  0.3589 -0.3462
  837YOPE   C1B12331  16.639   2.964   7.140 -0.1913 -0.3136  0.1837
  837YOPE   C2B12332  16.588   3.023   7.503  0.1936 -0.0764 -0.0163
  837YOPE   D3B12333  16.746   2.836   7.853 -0.1917  0.0740 -0.1570
  837YOPE   C4B12334  16.606   2.463   8.020 -0.1528 -0.0635  0.0866
  838YOPE   NH312335  11.792  13.235   6.133 -0.1876  0.2535 -0.0589
  838YOPE   PO412336  11.856  12.804   6.188 -0.0888  0.1502 -0.0775
  838YOPE   GL112337  12.146  12.929   6.533  0.2687  0.0441  0.2369
  838YOPE   GL212338  12.514  12.877   6.496  0.0394 -0.0476  0.0563
  838YOPE   C1A12339  12.082  13.176   6.925 -0.1832  0.2358  0.0938
  838YOPE   D2A12340  12.001  13.504   7.232 -0.0200  0.0824  0.1496
  838YOPE   C3A12341  11.675  13.276   7.694 -0.1762 -0.0387 -0.0783
  838YOPE   C4A12342  11.608  13.190   8.124 -0.2068 -0.0285 -0.1017
  838YOPE   C1B12343  12.568  13.101   6.858 -0.0739  0.2268 -0.0109
  838YOPE   C2B12344  12.782  12.887   7.235 -0.0292 -0.1727 -0.3074
  838YOPE   D3B12345  13.019  12.997   7.621  0.0846 -0.1048 -0.2338
  838YOPE   C4B12346  12.951  13.214   7.995 -0.0798 -0.1518 -0.3815
  839YOPE   NH312347   5.731   8.594   6.806 -0.1013  0.1583  0.0167
  839YOPE   PO412348   6.096   8.843   6.629 -0.1767  0.0490 -0.1646
  839YOPE   GL112349   6.311   8.745   6.944 -0.2092 -0.0434 -0.4421
  839YOPE   GL212350   6.140   8.526   7.102  0.1634  0.2277 -0.2828
  839YOPE   C1A12351   6.419   8.901   7.346  0.0043  0.4049  0.0505
  839YOPE   D2A12352   6.203   8.725   7.622  0.0310  0.0675  0.0111
  839YOPE   C3A12353   6.282   8.708   8.164 -0.1196  0.1204  0.2950
  839YOPE   C4A12354   6.057   8.624   8.463  0.0256 -0.0123 -0.0825
  839YOPE   C1B12355   6.144   8.256   7.425 -0.0640  0.0391  0.1596
  839YOPE   C2B12356   6.312   8.306   7.822  0.1902  0.0680 -0.1564
  839YOPE   D3B12357   6.208   8.230   8.200  0.1975  0.1570  0.1822
  839YOPE   C4B12358   6.018   7.908   8.391  0.0681 -0.2352 -0.1356
  840YOPE   NH312359   5.657  16.779   6.264 -0.2382  0.0897  0.1950
  840YOPE   PO412360   5.525  17.215   6.327 -0.1600 -0.2167 -0.5368
  840YOPE   GL112361   5.397  17.518   6.685 -0.5514 -0.2311 -0.0421
  840YOPE   GL212362   5.268  17.729   6.629  0.0788 -0.1034 -0.0830
  840YOPE   C1A12363   5.364  17.387   7.115  0.2240 -0.0734  0.0942
  840YOPE   D2A12364   5.358  17.115   7.500  0.0303  0.0108 -0.1866
  840YOPE   C3A12365   5.463  17.285   7.894  0.2784  0.1117 -0.6289
  840YOPE   C4A12366   5.749  17.371   8.079  0.1088 -0.2029 -0.0480
  840YOPE   C1B12367   5.003  17.796   6.885  0.0456  0.1016 -0.0408
  840YOPE   C2B12368   5.107  17.839   7.288  0.0213 -0.2635 -0.1926
  840YOPE   D3B12369   5.158  17.642   7.529  0.0038  0.1628  0.0834
  840YOPE   C4B12370   4.954  17.350   7.747  0.1285  0.1046  0.0967
  841YOPE   NH312371   0.004  11.837   6.190 -0.1791  0.1793  0.1073
  841YOPE   PO412372  -0.140  12.148   6.002 -0.1146  0.0418  0.0285
  841YOPE   GL112373   0.178  12.295   6.346 -0.1624 -0.1167  0.2293
  841YOPE   GL212374   0.185  12.114   6.606  0.0448 -0.1122  0.0391
  841YOPE   C1A12375   0.160  12.648   6.688  0.0754  0.1459  0.3517
  841YOPE   D2A12376   0.006  13.027   6.903  0.1604  0.3743  0.3908
  841YOPE   C3A12377   0.306  13.316   7.006  0.1116 -0.0952  0.0147
  841YOPE   C4A12378   0.369  13.426   7.515  0.2584 -0.1148  0.1699
  841YOPE   C1B12379  -0.207  12.308   6.758 -0.1192  0.1895 -0.0268
  841YOPE   C2B12380  -0.255  12.591   7.120 -0.1153  0.0304 -0.0938
  841YOPE   D3B12381  -0.157  12.652   7.530  0.3371 -0.2152 -0.0162
  841YOPE   C4B12382  -0.329  12.492   7.918  0.0490 -0.0444 -0.0541
  842YOPE   NH312383  10.204   2.256   5.623  0.2443 -0.1858  0.0100
  842YOPE   PO412384  10.220   2.688   5.836  0.0252 -0.1169 -0.1346
  842YOPE   GL112385  10.563   2.448   5.935 -0.1684  0.2159 -0.2304
  842YOPE   GL212386  10.767   2.652   6.091 -0.1847  0.0757 -0.1663
  842YOPE   C1A12387  10.825   2.207   6.272  0.3672 -0.0754 -0.0152
  842YOPE   D2A12388  11.029   1.862   6.487 -0.0751 -0.2181  0.1048
  842YOPE   C3A12389  10.865   1.783   6.833  0.4708 -0.0304  0.2303
  842YOPE   C4A12390  10.492   1.565   6.844  0.2049  0.2211  0.0570
  842YOPE   C1B12391  10.570   2.567   6.560 -0.1023  0.0652  0.1404
  842YOPE   C2B12392  10.439   2.499   6.970  0.2600 -0.1020  0.2949
  842YOPE   D3B12393  10.051   2.637   7.139  0.0070  0.2746  0.1765
  842YOPE   C4B12394  10.029   2.621   7.694 -0.1314 -0.1169 -0.3433
  843YOPE   NH312395  12.817  17.432   6.299  0.0566 -0.1732 -0.1867
  843YOPE   PO412396  12.546  17.239   5.949 -0.3169 -0.3145  0.1101
  843YOPE   GL112397  12.270  17.264   6.417 -0.3849 -0.1097  0.1526
  843YOPE   GL212398  12.081  17.471   6.562 -0.1138  0.0985  0.2915
  843YOPE   C1A12399  12.342  17.134   6.885  0.0940 -0.0533  0.1436
  843YOPE   D2A12400  12.355  17.085   7.304  0.0560  0.0834  0.0973
  843YOPE   C3A12401  12.672  17.210   7.614  0.0919 -0.0824 -0.0258
  843YOPE   C4A12402  13.078  17.359   7.785  0.0458 -0.1040 -0.0908
  843YOPE   C1B12403  11.954  17.420   7.061  0.0932  0.0924 -0.0492
  843YOPE   C2B12404  12.031  17.386   7.517 -0.3090 -0.0902  0.2476
  843YOPE   D3B12405  11.931  17.604   7.890  0.4036 -0.1158 -0.4272
  843YOPE   C4B12406  12.081  17.855   8.213 -0.2570 -0.1027 -0.0628
  844YOPE   NH312407  16.551  11.014   6.264  0.0967 -0.0061 -0.1825
  844YOPE   PO412408  16.727  10.595   6.312 -0.0482  0.4080 -0.1678
  844YOPE   GL112409  16.670  10.804   6.734  0.4288 -0.2001 -0.3015
  844YOPE   GL212410  16.399  10.730   6.741 -0.1106  0.1199  0.1931
  844YOPE   C1A12411  16.707  10.808   7.196  0.0807  0.1191 -0.0820
  844YOPE   D2A12412  16.585  10.676   7.538 -0.2409  0.1402 -0.1213
  844YOPE   C3A12413  16.599  10.515   8.047  0.0814 -0.1100  0.2267
  844YOPE   C4A12414  16.833  10.453   8.316  0.0703 -0.0233 -0.3736
  844YOPE   C1B12415  16.196  10.870   7.148 -0.1700  0.0514  0.0681
  844YOPE   C2B12416  16.208  11.001   7.581 -0.0046 -0.1891 -0.5383
  844YOPE   D3B12417  16.541  11.064   7.865  0.0252  0.0217  0.4781
  844YOPE   C4B12418  16.892  10.866   8.056  0.0861 -0.2425 -0.0878
  845YOPE   NH312419  14.684   5.348   6.139  0.1241  0.0798 -0.0817
  845YOPE   PO412420  14.984   5.590   6.531  0.0389  0.0716 -0.1532
  845YOPE   GL112421  15.017   5.420   6.895  0.0740 -0.2851 -0.1239
  845YOPE   GL212422  15.282   5.617   6.966 -0.0373  0.1635  0.0567
  845YOPE   C1A12423  14.996   5.412   7.332  0.1875 -0.0002 -0.0315
  845YOPE   D2A12424  15.003   5.460   7.761  0.1458  0.0722  0.3553
  845YOPE   C3A12425  14.875   5.256   7.954  0.1591 -0.0296  0.0084
  845YOPE   C4A12426  14.864   5.054   8.357 -0.0461  0.0503  0.2750
  845YOPE   C1B12427  15.482   5.565   7.345  0.1867 -0.1832  0.0041
  845YOPE   C2B12428  15.506   5.651   7.726 -0.1279 -0.1827 -0.1466
  845YOPE   D3B12429  15.704   5.777   8.107 -0.0940  0.1337  0.0123
  845YOPE   C4B12430  15.642   6.004   8.537  0.4456  0.2329  0.0231
  846YOPE   NH312431   5.277  10.439   6.359 -0.0576 -0.1257 -0.0330
  846YOPE   PO412432   5.005  10.202   6.521 -0.4545 -0.2013 -0.2927
  846YOPE   GL112433   4.885  10.177   6.984 -0.0173 -0.3270 -0.1844
  846YOPE   GL212434   4.689  10.371   6.939 -0.0469  0.2075  0.2376
  846YOPE   C1A12435   4.659   9.777   7.082 -0.1527 -0.0516  0.3045
  846YOPE   D2A12436   4.278   9.583   7.257 -0.0472 -0.0016 -0.0973
  846YOPE   C3A12437   4.050   9.494   7.683  0.1811  0.1759  0.0470
  846YOPE   C4A12438   4.045   9.616   8.065  0.2195 -0.1222  0.0259
  846YOPE   C1B12439   4.738  10.753   7.185  0.1747 -0.0046  0.0761
  846YOPE   C2B12440   4.722  10.765   7.580 -0.1544  0.1006  0.0234
  846YOPE   D3B12441   4.533  10.882   7.931  0.0231 -0.1206 -0.2410
  846YOPE   C4B12442   4.622  11.162   8.342  0.0126  0.3372  0.1304
  847YOPE   NH312443  11.683  11.861   6.255  0.2206 -0.0856  0.0384
  847YOPE   PO412444  11.765  12.331   6.094 -0.0072  0.0216 -0.0557
  847YOPE   GL112445  11.558  12.472   6.433  0.0503 -0.0261  0.1536
  847YOPE   GL212446  11.500  12.156   6.633  0.3468  0.0296 -0.0918
  847YOPE   C1A12447  11.631  12.616   6.885  0.0913 -0.1961  0.3848
  847YOPE   D2A12448  11.759  12.410   7.339  0.0558 -0.2682 -0.1196
  847YOPE   C3A12449  12.095  12.476   7.623 -0.1413  0.0468 -0.0089
  847YOPE   C4A12450  12.334  12.612   8.122  0.0337  0.0824 -0.1317
  847YOPE   C1B12451  11.399  12.014   7.026 -0.1843  0.1148  0.1957
  847YOPE   C2B12452  11.416  12.076   7.414  0.1022 -0.0454  0.3777
  847YOPE   D3B12453  11.544  12.150   7.833 -0.3134 -0.1620 -0.3616
  847YOPE   C4B12454  11.293  12.235   8.137 -0.1615 -0.0509 -0.2814
  848YOPE   NH312455  16.813   7.327   6.605 -0.1359  0.0967  0.2969
  848YOPE   PO412456  17.243   7.324   6.545  0.1099  0.2946  0.0223
  848YOPE   GL112457  17.165   7.066   6.953  0.1018 -0.0994 -0.1855
  848YOPE   GL212458  16.866   7.218   7.116 -0.0077 -0.0271  0.1961
  848YOPE   C1A12459  17.354   6.976   7.399 -0.2850 -0.0107 -0.1669
  848YOPE   D2A12460  17.262   7.039   7.889 -0.2716  0.2275 -0.1486
  848YOPE   C3A12461  17.224   6.736   8.239 -0.3395 -0.0698  0.1508
  848YOPE   C4A12462  17.239   6.774   8.713  0.3205 -0.0437  0.0789
  848YOPE   C1B12463  16.920   7.262   7.602 -0.1501 -0.0742 -0.2353
  848YOPE   C2B12464  16.706   6.995   7.962  0.0357 -0.1444 -0.0801
  848YOPE   D3B12465  16.743   6.755   8.325  0.1091  0.1578  0.0391
  848YOPE   C4B12466  16.940   6.318   8.439  0.0057 -0.0572  0.2200
  849YOPE   NH312467   9.540  11.478   6.247 -0.3392 -0.1175 -0.0172
  849YOPE   PO412468   9.891  11.709   6.364 -0.1019  0.1889  0.2044
  849YOPE   GL112469  10.062  11.738   6.660  0.2921  0.1561 -0.3255
  849YOPE   GL212470  10.442  11.885   6.589 -0.0233 -0.1445  0.2095
  849YOPE   C1A12471   9.863  11.890   7.092  0.0022  0.0181 -0.1873
  849YOPE   D2A12472   9.956  12.033   7.589  0.0124  0.0297  0.0997
  849YOPE   C3A12473   9.650  11.986   7.823 -0.0959 -0.0191  0.1604
  849YOPE   C4A12474   9.424  12.103   8.192 -0.3134  0.0099 -0.0672
  849YOPE   C1B12475  10.373  11.890   7.017 -0.1184  0.2376 -0.2316
  849YOPE   C2B12476  10.404  11.862   7.402 -0.0886  0.1885 -0.1997
  849YOPE   D3B12477  10.504  11.721   7.743 -0.3614  0.0427  0.3074
  849YOPE   C4B12478  10.571  11.709   8.080  0.3625 -0.1078  0.0086
  850YOPE   NH312479  13.065  10.657   6.354  0.1434  0.2057 -0.0160
  850YOPE   PO412480  13.329  10.498   6.631 -0.0678 -0.1879  0.2143
  850YOPE   GL112481  13.163  10.292   7.078 -0.1153  0.0075 -0.0429
  850YOPE   GL212482  12.816  10.272   7.208 -0.3698  0.3499  0.1623
  850YOPE   C1A12483  13.240  10.133   7.466  0.3855  0.0901 -0.3378
  850YOPE   D2A12484  13.275   9.997   7.890 -0.2984 -0.3658 -0.0631
  850YOPE   C3A12485  13.471   9.665   7.977 -0.6707 -0.1038  0.1206
  850YOPE   C4A12486  13.850   9.578   7.688 -0.1592 -0.3753  0.3205
  850YOPE   C1B12487  12.768  10.414   7.540 -0.1726 -0.3263 -0.4075
  850YOPE   C2B12488  12.859  10.164   7.890  0.1205  0.3262 -0.3506
  850YOPE   D3B12489  13.018  10.054   8.316  0.1234 -0.2097  0.1196
  850YOPE   C4B12490  13.138   9.922   8.773  0.1128 -0.0304 -0.2319
  851YOPE   NH312491   3.501   0.460   6.639 -0.2374  0.0223  0.2492
  851YOPE   PO412492   3.936   0.162   6.643  0.5317 -0.4134 -0.1583
  851YOPE   GL112493   4.003   0.220   7.054  0.1350 -0.0425  0.1530
  851YOPE   GL212494   4.194   0.340   7.189 -0.2003 -0.3438 -0.0979
  851YOPE   C1A12495   4.071  -0.050   7.428  0.2508 -0.2807 -0.1379
  851YOPE   D2A12496   4.118  -0.276   7.805 -0.1653 -0.1873 -0.0957
  851YOPE   C3A12497   4.300   0.023   8.093  0.0122  0.0220 -0.2350
  851YOPE   C4A12498   4.257   0.314   8.440 -0.2166 -0.0307 -0.1888
  851YOPE   C1B12499   4.304   0.374   7.680 -0.0496 -0.0768  0.1106
  851YOPE   C2B12500   4.520   0.525   8.037 -0.1220  0.0624 -0.0264
  851YOPE   D3B12501   4.541   0.819   8.386  0.0104  0.0810 -0.0345
  851YOPE   C4B12502   4.475   1.164   8.525 -0.0460  0.0204 -0.2787
  852YOPE   NH312503   1.423  15.902   6.170 -0.0373  0.2811  0.3336
  852YOPE   PO412504   1.416  16.445   6.289 -0.2274  0.0234 -0.1320
  852YOPE   GL112505   1.347  16.710   6.668  0.0441 -0.2797  0.1381
  852YOPE   GL212506   1.350  17.049   6.740  0.0539 -0.2616  0.0965
  852YOPE   C1A12507   1.464  16.609   7.061 -0.0388 -0.1504  0.0516
  852YOPE   D2A12508   1.250  16.495   7.502 -0.3154  0.0011  0.3276
  852YOPE   C3A12509   0.982  16.530   7.858 -0.2035 -0.0045 -0.0565
  852YOPE   C4A12510   0.823  16.617   8.203 -0.1247 -0.0701  0.0736
  852YOPE   C1B12511   1.548  17.077   7.152  0.0060 -0.0151  0.2015
  852YOPE   C2B12512   1.289  17.007   7.394 -0.0863  0.1122  0.1152
  852YOPE   D3B12513   1.308  16.905   7.814 -0.1242  0.1297 -0.0951
  852YOPE   C4B12514   1.407  16.725   8.248  0.2025 -0.1561  0.0564
  853YOPE   NH312515   7.085   7.485   6.398  0.2099  0.0582 -0.0567
  853YOPE   PO412516   7.108   8.004   6.319 -0.0526 -0.3023 -0.0520
  853YOPE   GL112517   6.978   8.322   6.657 -0.0397  0.1263 -0.0585
  853YOPE   GL212518   6.928   8.650   6.745  0.0752 -0.2267  0.0702
  853YOPE   C1A12519   7.071   8.328   7.137  0.1098  0.0563  0.0099
  853YOPE   D2A12520   7.188   8.403   7.543  0.1035 -0.0916  0.1939
  853YOPE   C3A12521   7.247   8.639   7.877 -0.1863 -0.0031 -0.1464
  853YOPE   C4A12522   7.221   8.717   8.356 -0.1618  0.2862 -0.2420
  853YOPE   C1B12523   6.995   8.838   7.239  0.2007 -0.1143 -0.2325
  853YOPE   C2B12524   6.998   8.999   7.586  0.2319 -0.0773  0.0724
  853YOPE   D3B12525   7.245   9.231   7.789 -0.1632  0.1627  0.1700
  853YOPE   C4B12526   7.466   9.545   8.056 -0.2323 -0.1754  0.0437
  854YOPE   NH312527   7.505   7.095   6.421  0.0369  0.1324  0.0312
  854YOPE   PO412528   7.834   6.810   6.303 -0.0029 -0.1919 -0.2024
  854YOPE   GL112529   7.938   6.969   6.689 -0.2359 -0.2203 -0.0305
  854YOPE   GL212530   8.202   6.859   6.763  0.0189  0.1217 -0.2405
  854YOPE   C1A12531   7.713   7.189   7.027 -0.2217  0.1175 -0.0277
  854YOPE   D2A12532   7.688   7.497   7.442  0.1296 -0.0107  0.0387
  854YOPE   C3A12533   7.978   7.779   7.502 -0.5841 -0.1028 -0.2644
  854YOPE   C4A12534   8.333   7.976   7.422 -0.2475  0.1580  0.0287
  854YOPE   C1B12535   8.212   6.916   7.195 -0.1079  0.2054  0.0927
  854YOPE   C2B12536   8.343   6.793   7.565 -0.1908  0.0322  0.0622
  854YOPE   D3B12537   8.290   6.704   7.973 -0.2402  0.0803 -0.2250
  854YOPE   C4B12538   8.461   6.607   8.398  0.3547 -0.3837 -0.1643
  855YOPE   NH312539   6.183   4.880   6.356 -0.5017 -0.4425  0.1392
  855YOPE   PO412540   5.878   4.658   6.552  0.0124  0.0593  0.1551
  855YOPE   GL112541   6.049   4.940   6.855 -0.0636 -0.1577 -0.3187
  855YOPE   GL212542   6.009   5.270   6.895  0.4239 -0.0918 -0.0116
  855YOPE   C1A12543   6.124   4.931   7.298 -0.0649  0.2912  0.2115
  855YOPE   D2A12544   5.947   4.822   7.617 -0.1787 -0.1499  0.0795
  855YOPE   C3A12545   6.002   5.047   8.043 -0.2513  0.1333  0.2036
  855YOPE   C4A12546   5.813   5.212   8.373 -0.0840 -0.1505 -0.1482
  855YOPE   C1B12547   6.330   5.428   7.168  0.0834  0.1391  0.0880
  855YOPE   C2B12548   6.624   5.384   7.346  0.1216 -0.1333  0.0844
  855YOPE   D3B12549   6.602   5.540   7.834  0.1247  0.0087 -0.1881
  855YOPE   C4B12550   6.686   5.700   8.299 -0.0512 -0.1840 -0.1199
  856YOPE   NH312551   9.257  17.107   5.807  0.2667 -0.3991  0.0128
  856YOPE   PO412552   9.005  17.479   5.750 -0.2151 -0.0283 -0.0654
  856YOPE   GL112553   8.961  17.334   6.188 -0.1234  0.1212  0.2136
  856YOPE   GL212554   8.824  17.644   6.303 -0.1426 -0.3330  0.2805
  856YOPE   C1A12555   8.918  17.280   6.621 -0.1076 -0.1926 -0.0379
  856YOPE   D2A12556   9.083  16.857   6.655 -0.0479  0.0569 -0.0898
  856YOPE   C3A12557   8.921  16.577   6.990 -0.0846  0.3594 -0.2323
  856YOPE   C4A12558   8.719  16.374   7.370  0.1479  0.4651 -0.1345
  856YOPE   C1B12559   8.918  17.753   6.732  0.1651 -0.1636 -0.0781
  856YOPE   C2B12560   8.955  17.741   7.197  0.0318  0.3440 -0.3536
  856YOPE   D3B12561   8.919  17.906   7.677 -0.0433 -0.1763  0.1942
  856YOPE   C4B12562   8.829  18.372   7.695  0.0703 -0.0601  0.2462
  857YOPE   NH312563  17.266   4.372   6.458 -0.1372 -0.1794 -0.1093
  857YOPE   PO412564  17.656   4.435   6.780  0.0717 -0.2832  0.0725
  857YOPE   GL112565  17.371   4.694   6.949  0.1121 -0.2472 -0.2002
  857YOPE   GL212566  17.112   4.733   6.781 -0.1887  0.2753 -0.2904
  857YOPE   C1A12567  17.248   4.797   7.354 -0.1446  0.1919  0.0787
  857YOPE   D2A12568  17.236   4.678   7.817  0.0122 -0.0260  0.0906
  857YOPE   C3A12569  17.627   4.757   8.158 -0.1567  0.0741  0.0412
  857YOPE   C4A12570  17.538   4.519   8.516 -0.3509  0.0211 -0.2208
  857YOPE   C1B12571  16.825   4.764   7.099  0.3813 -0.0226 -0.0132
  857YOPE   C2B12572  16.542   4.949   7.363 -0.0306  0.0409  0.0914
  857YOPE   D3B12573  16.374   4.999   7.710 -0.0764  0.0873 -0.1766
  857YOPE   C4B12574  16.167   5.022   8.140  0.0141 -0.1389 -0.2087
  858YOPE   NH312575   7.034   3.753   6.432 -0.1797 -0.0591 -0.2644
  858YOPE   PO412576   6.888   3.386   6.327 -0.3021  0.0271  0.1893
  858YOPE   GL112577   6.959   3.409   6.800  0.3449 -0.1223 -0.2665
  858YOPE   GL212578   7.136   3.602   6.985  0.2047 -0.1854 -0.0090
  858YOPE   C1A12579   6.828   3.364   7.349 -0.1725 -0.0226  0.2005
  858YOPE   D2A12580   6.799   3.116   7.764  0.1234  0.2528  0.0067
  858YOPE   C3A12581   6.521   3.190   8.121  0.0873  0.2726  0.4196
  858YOPE   C4A12582   6.504   3.454   8.511 -0.1495  0.1316  0.0903
  858YOPE   C1B12583   7.325   3.388   7.377 -0.1099  0.0884 -0.3043
  858YOPE   C2B12584   7.406   3.147   7.734 -0.2193 -0.0783 -0.3393
  858YOPE   D3B12585   7.201   2.986   8.053 -0.1156 -0.0753  0.0466
  858YOPE   C4B12586   6.936   2.631   8.240  0.1834 -0.1714  0.1595
  859YOPE   NH312587   3.451  11.212   6.380 -0.0102  0.0643 -0.1189
  859YOPE   PO412588   3.251  11.122   6.767  0.0682 -0.0984  0.1094
  859YOPE   GL112589   2.966  11.116   7.056 -0.1300  0.0716 -0.0495
  859YOPE   GL212590   2.916  10.825   7.037  0.1733 -0.0579 -0.0758
  859YOPE   C1A12591   2.734  11.113   7.515 -0.1989 -0.0096  0.1053
  859YOPE   D2A12592   2.674  11.067   7.968 -0.2119 -0.1124 -0.1482
  859YOPE   C3A12593   2.300  10.928   8.315 -0.4157 -0.1787 -0.1573
  859YOPE   C4A12594   1.998  10.786   8.634  0.1154 -0.0574  0.2961
  859YOPE   C1B12595   2.563  10.651   7.297 -0.1596 -0.2790 -0.0423
  859YOPE   C2B12596   2.486  10.622   7.779 -0.0756 -0.0374  0.1050
  859YOPE   D3B12597   2.740  10.607   8.138 -0.2502  0.4612 -0.0747
  859YOPE   C4B12598   2.961  10.439   8.553 -0.1076 -0.2137 -0.1452
  860YOPE   NH312599   1.457   7.465   6.490 -0.2789 -0.1944  0.3862
  860YOPE   PO412600   1.109   7.268   6.616  0.0895  0.2575  0.1017
  860YOPE   GL112601   1.290   7.286   6.983 -0.0734 -0.0006 -0.0151
  860YOPE   GL212602   1.235   7.540   6.996  0.0843  0.3734 -0.0763
  860YOPE   C1A12603   1.499   7.388   7.324 -0.0904 -0.2581 -0.1561
  860YOPE   D2A12604   1.517   7.252   7.828 -0.0622 -0.2300 -0.0646
  860YOPE   C3A12605   1.793   7.424   8.156  0.1060  0.1730 -0.1601
  860YOPE   C4A12606   1.801   7.459   8.517  0.5464  0.1612 -0.2759
  860YOPE   C1B12607   1.007   7.535   7.342 -0.0692 -0.0407 -0.3158
  860YOPE   C2B12608   1.068   7.650   7.807  0.0204  0.2087 -0.1102
  860YOPE   D3B12609   0.906   7.856   8.159  0.3234  0.3330 -0.1467
  860YOPE   C4B12610   1.105   7.986   8.430  0.2707 -0.0235  0.4519
  861YOPE   NH312611   1.268   6.335   6.883 -0.2892  0.1738  0.0851
  861YOPE   PO412612   1.555   6.003   6.705  0.0390  0.1367  0.1500
  861YOPE   GL112613   1.432   5.906   7.101 -0.2149 -0.2782 -0.1421
  861YOPE   GL212614   1.562   6.086   7.295 -0.1760 -0.4729 -0.1536
  861YOPE   C1A12615   1.388   5.691   7.554 -0.1609 -0.2419  0.3093
  861YOPE   D2A12616   1.308   5.738   7.951 -0.0985 -0.2027 -0.3401
  861YOPE   C3A12617   1.330   5.585   8.274  0.3593  0.2540  0.1042
  861YOPE   C4A12618   1.148   5.352   8.661 -0.0945 -0.2270  0.0561
  861YOPE   C1B12619   1.615   6.296   7.641 -0.0784  0.1337  0.2872
  861YOPE   C2B12620   1.494   6.232   8.067  0.0486  0.1406  0.1130
  861YOPE   D3B12621   1.182   6.124   8.343  0.3004  0.0799 -0.3042
  861YOPE   C4B12622   1.112   5.848   8.622 -0.3174 -0.2117 -0.1577
  862YOPE   NH312623   2.812  11.036   6.547 -0.1931  0.2276 -0.1817
  862YOPE   PO412624   2.485  10.875   6.288  0.0270 -0.1274  0.1336
  862YOPE   GL112625   2.379  10.779   6.804 -0.1516 -0.2002  0.0784
  862YOPE   GL212626   2.136  10.736   6.926  0.0919  0.2532 -0.1141
  862YOPE   C1A12627   2.452  11.160   7.077  0.1370  0.0705  0.2148
  862YOPE   D2A12628   2.164  11.470   7.225  0.3122  0.1342  0.2644
  862YOPE   C3A12629   1.781  11.448   7.448  0.0730  0.0617 -0.0843
  862YOPE   C4A12630   1.785  11.564   7.949  0.0101  0.1272 -0.1521
  862YOPE   C1B12631   1.982  10.390   7.175  0.0809  0.0277 -0.0380
  862YOPE   C2B12632   1.986  10.442   7.712 -0.1469  0.2300  0.0618
  862YOPE   D3B12633   2.028  10.843   7.889  0.0083  0.0032 -0.0958
  862YOPE   C4B12634   1.842  11.066   8.243  0.2931  0.1072 -0.0192
  863YOPE   NH312635  16.818   8.429   6.296 -0.1857 -0.1596 -0.3477
  863YOPE   PO412636  16.410   8.738   6.463 -0.4271  0.1107 -0.2677
  863YOPE   GL112637  16.271   8.542   6.825 -0.2074 -0.3106  0.0432
  863YOPE   GL212638  16.501   8.237   6.694  0.2833  0.1190  0.0873
  863YOPE   C1A12639  16.267   8.524   7.244 -0.4175  0.0044  0.1040
  863YOPE   D2A12640  16.015   8.516   7.526  0.0594  0.0914  0.1545
  863YOPE   C3A12641  16.019   8.377   7.909 -0.1544 -0.1173  0.0594
  863YOPE   C4A12642  15.932   8.039   8.245 -0.1106 -0.3452 -0.1094
  863YOPE   C1B12643  16.477   8.130   7.199  0.2067  0.0254  0.1342
  863YOPE   C2B12644  16.441   8.230   7.627  0.3406 -0.1215  0.3705
  863YOPE   D3B12645  16.459   8.419   8.068  0.0813 -0.2179  0.2020
  863YOPE   C4B12646  16.745   8.575   8.351 -0.1121 -0.0550 -0.1152
  864YOPE   NH312647   6.020   2.824   6.361 -0.2409  0.3104  0.2523
  864YOPE   PO412648   5.642   2.569   6.337 -0.0655  0.0951  0.2617
  864YOPE   GL112649   5.645   2.660   6.777  0.3288  0.0257 -0.1542
  864YOPE   GL212650   5.852   2.876   6.936 -0.1352  0.0515  0.1267
  864YOPE   C1A12651   5.357   2.436   7.065  0.3512 -0.0576 -0.0315
  864YOPE   D2A12652   5.401   2.284   7.442 -0.1311  0.1737 -0.1859
  864YOPE   C3A12653   5.760   2.101   7.807  0.1110  0.2491 -0.0151
  864YOPE   C4A12654   6.045   1.835   8.155  0.1013  0.2676 -0.0704
  864YOPE   C1B12655   5.730   2.750   7.265 -0.2723 -0.0910 -0.0230
  864YOPE   C2B12656   5.678   2.662   7.586 -0.1111 -0.3433 -0.1241
  864YOPE   D3B12657   5.420   2.534   7.956  0.0509 -0.0355 -0.0225
  864YOPE   C4B12658   5.243   2.775   8.169 -0.2137  0.1302 -0.3609
  865YOPE   NH312659  14.028   3.691   6.579 -0.2075 -0.1633  0.1358
  865YOPE   PO412660  13.539   3.493   6.530  0.0447 -0.2258  0.1063
  865YOPE   GL112661  13.404   3.618   7.008  0.0285 -0.0005  0.1691
  865YOPE   GL212662  13.391   3.902   7.257  0.1235  0.0468 -0.0587
  865YOPE   C1A12663  13.284   3.426   7.399 -0.0285 -0.1712  0.1129
  865YOPE   D2A12664  12.972   3.336   7.773  0.1628  0.1960 -0.1122
  865YOPE   C3A12665  12.988   3.137   8.162  0.0734 -0.0698  0.0574
  865YOPE   C4A12666  12.912   2.892   8.519 -0.0384  0.0437  0.2531
  865YOPE   C1B12667  13.552   3.766   7.593 -0.3729  0.1216  0.2606
  865YOPE   C2B12668  13.661   3.954   7.957 -0.1244  0.1586 -0.0435
  865YOPE   D3B12669  13.960   4.005   8.251 -0.3337 -0.0405 -0.3842
  865YOPE   C4B12670  14.382   3.886   8.355  0.1834 -0.1484  0.2099
  866YOPE   NH312671  13.081   5.832   6.329 -0.1874 -0.0065 -0.3164
  866YOPE   PO412672  12.715   5.503   6.356  0.1264  0.0739 -0.0140
  866YOPE   GL112673  12.549   5.505   6.746 -0.1722  0.0521 -0.1361
  866YOPE   GL212674  12.229   5.528   6.824  0.1765  0.0640 -0.1881
  866YOPE   C1A12675  12.542   5.316   7.174 -0.2951 -0.2756  0.1044
  866YOPE   D2A12676  12.472   5.320   7.583  0.0344 -0.1209  0.2538
  866YOPE   C3A12677  12.575   5.156   7.969  0.2723  0.1026  0.1680
  866YOPE   C4A12678  12.570   4.939   8.384  0.1363 -0.1010  0.0442
  866YOPE   C1B12679  12.038   5.484   7.245 -0.0643  0.0709 -0.1879
  866YOPE   C2B12680  12.001   5.503   7.634 -0.2100  0.1648  0.1816
  866YOPE   D3B12681  11.806   5.702   7.905  0.0007  0.1162  0.2105
  866YOPE   C4B12682  11.417   5.913   8.049  0.1379  0.1063  0.1226
  867YOPE   NH312683   7.124   4.934   6.381 -0.1034 -0.0425 -0.0723
  867YOPE   PO412684   7.332   5.244   6.615  0.1173 -0.1970  0.3713
  867YOPE   GL112685   7.638   5.271   6.924 -0.1387  0.3635 -0.0827
  867YOPE   GL212686   7.939   5.108   7.008  0.2815 -0.1574 -0.0888
  867YOPE   C1A12687   7.560   5.423   7.328  0.0903  0.0768  0.1884
  867YOPE   D2A12688   7.440   5.283   7.691  0.2666 -0.1315 -0.1930
  867YOPE   C3A12689   7.643   5.382   7.985  0.2643  0.0805 -0.3532
  867YOPE   C4A12690   7.787   5.444   8.387  0.3044 -0.1468  0.4157
  867YOPE   C1B12691   7.596   4.880   7.268  0.0629 -0.0091  0.0077
  867YOPE   C2B12692   7.339   4.779   7.609 -0.2850 -0.1251 -0.0170
  867YOPE   D3B12693   7.261   4.943   8.036  0.1074 -0.0562 -0.1213
  867YOPE   C4B12694   7.468   4.875   8.396  0.0672  0.2294 -0.3062
  868YOPE   NH312695   3.681  15.116   5.951 -0.0682 -0.2024  0.2138
  868YOPE   PO412696   3.213  15.333   5.977  0.1544  0.6183  0.2784
  868YOPE   GL112697   3.142  15.411   6.385 -0.4673  0.0825 -0.3861
  868YOPE   GL212698   2.886  15.068   6.419  0.1306 -0.0268  0.0934
  868YOPE   C1A12699   3.059  15.403   6.778 -0.3204 -0.0990  0.0315
  868YOPE   D2A12700   3.039  15.125   7.202  0.0899 -0.1773 -0.0564
  868YOPE   C3A12701   2.725  14.796   7.343  0.1391  0.5256 -0.0014
  868YOPE   C4A12702   2.758  14.540   7.689  0.1739 -0.1196 -0.3504
  868YOPE   C1B12703   2.681  15.002   6.737 -0.0564 -0.0393 -0.1116
  868YOPE   C2B12704   2.575  15.325   7.095 -0.0813  0.4310  0.0049
  868YOPE   D3B12705   2.431  15.624   7.281  0.0884 -0.0290 -0.0277
  868YOPE   C4B12706   2.264  15.557   7.662 -0.2996 -0.2920 -0.3792
  869YOPE   NH312707  12.665  13.628   6.296  0.0949 -0.0554  0.1713
  869YOPE   PO412708  13.019  13.763   6.207 -0.0324 -0.1455 -0.0805
  869YOPE   GL112709  13.239  13.870   6.602 -0.0112  0.0621  0.0890
  869YOPE   GL212710  13.499  13.808   6.841 -0.1179  0.0969  0.0809
  869YOPE   C1A12711  13.341  14.249   6.960 -0.1030  0.0588  0.1525
  869YOPE   D2A12712  13.298  14.453   7.325 -0.1771  0.1901 -0.0616
  869YOPE   C3A12713  13.345  14.188   7.670  0.0441  0.0960  0.1892
  869YOPE   C4A12714  13.310  14.043   8.114  0.1512  0.0959  0.4223
  869YOPE   C1B12715  13.335  13.787   7.179  0.1528 -0.2178  0.2122
  869YOPE   C2B12716  13.284  13.685   7.706 -0.0780  0.1846  0.0704
  869YOPE   D3B12717  13.378  13.533   8.068  0.1244  0.2568  0.0802
  869YOPE   C4B12718  13.601  13.310   8.301  0.0032 -0.1581 -0.0952
  870YOPE   NH312719   8.170  11.752   6.085  0.0682  0.0296 -0.0928
  870YOPE   PO412720   7.895  12.109   6.080 -0.3010  0.1476  0.0777
  870YOPE   GL112721   7.843  11.843   6.521 -0.4741 -0.0983 -0.0733
  870YOPE   GL212722   7.923  11.611   6.534 -0.3928 -0.2619 -0.0172
  870YOPE   C1A12723   8.103  11.911   6.898  0.0645 -0.0856 -0.0553
  870YOPE   D2A12724   7.969  11.898   7.269  0.1272 -0.1790 -0.2712
  870YOPE   C3A12725   8.092  12.019   7.730 -0.2293 -0.0958  0.1699
  870YOPE   C4A12726   8.172  12.280   8.092 -0.2559 -0.2345  0.4952
  870YOPE   C1B12727   7.855  11.377   6.944  0.0368  0.0378 -0.2302
  870YOPE   C2B12728   7.806  11.430   7.404 -0.2514  0.0820 -0.1287
  870YOPE   D3B12729   7.784  11.616   7.765 -0.2590  0.1031 -0.0323
  870YOPE   C4B12730   7.504  11.555   8.129 -0.0879  0.2066  0.1404
  871YOPE   NH312731   6.750   8.866   6.310 -0.0557 -0.2371 -0.0001
  871YOPE   PO412732   6.521   8.505   6.511  0.2868  0.1663  0.1021
  871YOPE   GL112733   6.506   8.257   6.820 -0.1614  0.0853 -0.1552
  871YOPE   GL212734   6.300   8.034   6.941  0.1196  0.2077 -0.5892
  871YOPE   C1A12735   6.631   8.479   7.292 -0.2395 -0.2050 -0.0751
  871YOPE   D2A12736   6.681   8.619   7.684  0.1437 -0.0485 -0.0116
  871YOPE   C3A12737   6.824   8.362   7.937  0.0236  0.2224 -0.0335
  871YOPE   C4A12738   6.757   8.462   8.408  0.0926 -0.1249 -0.1410
  871YOPE   C1B12739   6.402   7.840   7.365  0.0071 -0.1739 -0.0061
  871YOPE   C2B12740   6.427   7.809   7.722 -0.0544 -0.0951 -0.0201
  871YOPE   D3B12741   6.440   7.737   8.168  0.1714  0.3480  0.2485
  871YOPE   C4B12742   6.306   7.606   8.597  0.0047  0.0774 -0.0447
  872YOPE   NH312743   6.604   8.038   6.359  0.0683 -0.2261 -0.4903
  872YOPE   PO412744   6.562   7.608   6.356 -0.1704  0.0657 -0.1433
  872YOPE   GL112745   6.681   7.743   6.725  0.2854  0.0519  0.0460
  872YOPE   GL212746   6.815   7.524   6.836  0.0143 -0.1253 -0.3533
  872YOPE   C1A12747   6.821   7.953   7.081 -0.2511 -0.0678 -0.0737
  872YOPE   D2A12748   6.820   8.022   7.469 -0.0689 -0.1049 -0.0873
  872YOPE   C3A12749   6.892   7.740   7.811  0.2985  0.1169 -0.1869
  872YOPE   C4A12750   6.823   7.295   8.169 -0.1223 -0.0819  0.3553
  872YOPE   C1B12751   6.700   7.437   7.347 -0.1925 -0.0174 -0.2059
  872YOPE   C2B12752   6.491   7.317   7.796 -0.2706 -0.3404 -0.1441
  872YOPE   D3B12753   6.572   6.858   8.046 -0.1272  0.1039  0.0962
  872YOPE   C4B12754   6.569   6.431   8.178 -0.1649  0.2518  0.0044
  873YOPE   NH312755   9.363  16.304   5.599 -0.1548  0.1664 -0.2713
  873YOPE   PO412756   9.399  16.632   5.878 -0.1760 -0.3119 -0.1947
  873YOPE   GL112757   9.466  16.610   6.343 -0.1477  0.0847  0.1752
  873YOPE   GL212758   9.776  16.507   6.326 -0.2725 -0.1617 -0.0286
  873YOPE   C1A12759   9.490  16.657   6.764  0.1960 -0.0001  0.1791
  873YOPE   D2A12760   9.444  16.834   7.129 -0.1822 -0.3511 -0.0141
  873YOPE   C3A12761   9.189  16.751   7.563  0.3016  0.1863  0.0327
  873YOPE   C4A12762   9.218  17.011   7.908 -0.2009 -0.4699  0.0590
  873YOPE   C1B12763   9.768  16.247   6.680 -0.1321  0.1764  0.0904
  873YOPE   C2B12764   9.724  16.431   7.104 -0.0275  0.3060  0.0258
  873YOPE   D3B12765   9.708  16.447   7.611  0.0384  0.0539 -0.1299
  873YOPE   C4B12766   9.699  16.133   7.950  0.0345 -0.1378 -0.0603
  874YOPE   NH312767   2.557   9.474   6.611  0.1336  0.0113 -0.2609
  874YOPE   PO412768   2.173   9.659   6.692 -0.0942 -0.1074 -0.1381
  874YOPE   GL112769   2.071   9.660   7.114 -0.1712 -0.0010 -0.1058
  874YOPE   GL212770   1.762   9.597   7.005 -0.1238 -0.2258  0.1900
  874YOPE   C1A12771   1.953   9.920   7.497 -0.1383 -0.0731 -0.0150
  874YOPE   D2A12772   1.895  10.019   7.968 -0.1346  0.0264 -0.1400
  874YOPE   C3A12773   1.525  10.075   8.277  0.0280 -0.0801  0.0322
  874YOPE   C4A12774   1.353  10.119   8.706 -0.2649 -0.0547  0.1600
  874YOPE   C1B12775   1.848   9.429   7.514  0.1190 -0.0089 -0.4742
  874YOPE   C2B12776   1.978   9.409   8.013  0.1822 -0.3213  0.0386
  874YOPE   D3B12777   1.863   9.382   8.389  0.0431 -0.2263  0.0612
  874YOPE   C4B12778   1.869   9.201   8.725  0.1184 -0.1069  0.3002
  875YOPE   NH312779   3.918  16.454   6.147 -0.0231 -0.0267  0.1193
  875YOPE   PO412780   3.877  16.060   6.281 -0.2426 -0.0340  0.1022
  875YOPE   GL112781   3.757  15.822   6.571  0.4215 -0.0368  0.2030
  875YOPE   GL212782   3.638  15.507   6.490  0.3028 -0.1830 -0.0593
  875YOPE   C1A12783   3.890  15.625   6.994 -0.1036  0.1059 -0.2886
  875YOPE   D2A12784   4.050  15.587   7.415  0.1825 -0.3222 -0.0728
  875YOPE   C3A12785   4.467  15.551   7.563  0.1103  0.0316  0.0122
  875YOPE   C4A12786   4.403  15.437   7.956 -0.1048 -0.1357 -0.0717
  875YOPE   C1B12787   3.637  15.221   6.749  0.1342 -0.0047 -0.1235
  875YOPE   C2B12788   3.618  14.941   7.142 -0.1169 -0.2301 -0.2505
  875YOPE   D3B12789   3.638  15.043   7.535  0.1660 -0.1425 -0.0269
  875YOPE   C4B12790   3.599  15.058   7.972 -0.1481 -0.0944  0.3225
  876YOPE   NH312791   4.840   0.691   6.214  0.0320  0.1494  0.0918
  876YOPE   PO412792   4.390   0.501   6.338 -0.3685  0.0544  0.2207
  876YOPE   GL112793   4.179   0.687   6.765  0.1480  0.1617  0.2277
  876YOPE   GL212794   3.843   0.702   6.942 -0.2421  0.1299  0.0386
  876YOPE   C1A12795   4.194   0.913   7.150 -0.1164 -0.1017  0.0537
  876YOPE   D2A12796   4.118   0.894   7.556 -0.1541  0.0309 -0.2259
  876YOPE   C3A12797   4.320   1.023   7.901 -0.1133  0.0339 -0.0444
  876YOPE   C4A12798   4.127   1.013   8.299 -0.0145 -0.1085  0.0321
  876YOPE   C1B12799   3.782   0.573   7.310  0.1249 -0.0867 -0.0386
  876YOPE   C2B12800   3.805   0.469   7.683 -0.1896 -0.0029  0.1381
  876YOPE   D3B12801   3.942   0.324   8.106 -0.0407 -0.1313 -0.1372
  876YOPE   C4B12802   3.719  -0.033   8.353 -0.2158  0.2618 -0.0845
  877YOPE   NH312803  11.393  15.581   6.212 -0.2131  0.1810 -0.4793
  877YOPE   PO412804  11.065  15.363   6.058  0.0761  0.0671 -0.0969
  877YOPE   GL112805  10.899  15.371   6.483  0.1789  0.0020 -0.2731
  877YOPE   GL212806  10.607  15.294   6.521  0.0147  0.2161  0.2051
  877YOPE   C1A12807  10.954  15.536   6.934  0.1359  0.3771 -0.0221
  877YOPE   D2A12808  10.816  15.541   7.328 -0.1813 -0.1136 -0.3991
  877YOPE   C3A12809  10.389  15.689   7.350 -0.1719 -0.2017 -0.2108
  877YOPE   C4A12810  10.011  15.618   7.577  0.1897  0.2673 -0.0592
  877YOPE   C1B12811  10.810  15.104   6.889  0.1217  0.0218  0.0081
  877YOPE   C2B12812  11.040  14.974   7.321  0.0760 -0.0254  0.1417
  877YOPE   D3B12813  11.201  14.879   7.663 -0.1609  0.1465  0.0445
  877YOPE   C4B12814  11.451  14.641   7.925 -0.1184  0.1880 -0.2200
  878YOPE   NH312815  17.105   5.689   6.712  0.5166 -0.2203  0.1046
  878YOPE   PO412816  17.488   5.821   6.636  0.0059  0.0144 -0.0114
  878YOPE   GL112817  17.801   5.798   6.923 -0.0474 -0.0476 -0.0062
  878YOPE   GL212818  18.098   5.982   7.100  0.2395 -0.1141  0.0450
  878YOPE   C1A12819  17.790   5.544   7.212  0.0055 -0.7085 -0.1417
  878YOPE   D2A12820  17.746   5.077   7.210 -0.0266  0.2498 -0.1716
  878YOPE   C3A12821  18.138   4.832   7.141 -0.3625 -0.1688  0.1135
  878YOPE   C4A12822  18.509   4.960   7.387 -0.1275  0.0178  0.0847
  878YOPE   C1B12823  18.047   5.848   7.518  0.0615  0.2735  0.2144
  878YOPE   C2B12824  17.816   5.609   7.730  0.2541 -0.4055 -0.0571
  878YOPE   D3B12825  17.624   5.428   8.005  0.1999 -0.2790  0.0713
  878YOPE   C4B12826  17.382   5.554   8.251  0.1337  0.1904  0.0669
  879YOPE   NH312827  10.957   7.865   6.043 -0.1887 -0.2635  0.1054
  879YOPE   PO412828  10.673   8.115   6.210 -0.3814 -0.0392  0.0749
  879YOPE   GL112829  10.824   8.133   6.663  0.1672  0.0528  0.2566
  879YOPE   GL212830  10.952   8.435   6.882  0.0033  0.0816 -0.1116
  879YOPE   C1A12831  10.743   7.875   7.073 -0.1018  0.2022  0.1685
  879YOPE   D2A12832  10.728   7.863   7.561  0.1764 -0.0346  0.0638
  879YOPE   C3A12833  10.843   7.821   7.999  0.0182 -0.1337 -0.0876
  879YOPE   C4A12834  10.924   7.991   8.504 -0.3301  0.4128 -0.0378
  879YOPE   C1B12835  10.997   8.199   7.337 -0.1363  0.0997 -0.4095
  879YOPE   C2B12836  10.920   8.279   7.780  0.3580 -0.0525 -0.1778
  879YOPE   D3B12837  10.931   8.345   8.201 -0.0824  0.0813  0.3135
  879YOPE   C4B12838  10.771   8.711   8.423 -0.1807  0.0034  0.1122
  880YOPE   NH312839  17.450   0.852   6.398  0.4485  0.0070  0.3126
  880YOPE   PO412840  17.341   0.451   6.207  0.4572  0.0066  0.1045
  880YOPE   GL112841  17.511   0.214   6.481 -0.0911  0.2065 -0.1187
  880YOPE   GL212842  17.327  -0.111   6.561 -0.1094  0.1820 -0.1019
  880YOPE   C1A12843  17.698   0.067   6.839  0.1084 -0.0708  0.2915
  880YOPE   D2A12844  17.853   0.309   7.235  0.1600  0.0570  0.3009
  880YOPE   C3A12845  18.124   0.379   7.619  0.1670  0.2109  0.2867
  880YOPE   C4A12846  18.318   0.503   7.943  0.1982  0.1728  0.1809
  880YOPE   C1B12847  17.138  -0.141   6.932  0.1032 -0.2129  0.3170
  880YOPE   C2B12848  17.030  -0.226   7.241 -0.1887  0.3349  0.1040
  880YOPE   D3B12849  16.985  -0.387   7.747  0.2041  0.2692 -0.1334
  880YOPE   C4B12850  16.935  -0.158   8.100 -0.0243  0.1976 -0.1700
  881YOPE   NH312851   7.638   6.343   6.373 -0.0048  0.1513  0.0893
  881YOPE   PO412852   7.772   5.955   6.437 -0.0012 -0.2915  0.2822
  881YOPE   GL112853   8.006   5.885   6.759 -0.0753  0.0467 -0.1617
  881YOPE   GL212854   8.033   5.611   6.888 -0.0927 -0.1958 -0.0443
  881YOPE   C1A12855   7.775   5.927   7.271  0.1292  0.0078  0.1149
  881YOPE   D2A12856   7.521   5.848   7.641  0.0970 -0.0469 -0.0538
  881YOPE   C3A12857   7.624   5.923   8.091  0.2334  0.0086 -0.1073
  881YOPE   C4A12858   7.437   5.787   8.442 -0.1576  0.2568 -0.2354
  881YOPE   C1B12859   8.196   5.556   7.291 -0.2522  0.0779 -0.0001
  881YOPE   C2B12860   8.526   5.489   7.613 -0.0310  0.1797  0.2343
  881YOPE   D3B12861   8.615   5.641   8.036 -0.0410 -0.1311  0.1055
  881YOPE   C4B12862   8.757   5.820   8.331  0.1358  0.0473 -0.0071
  882POPC   NC312863  13.041   1.976   6.264  0.2068  0.0685 -0.0497
  882POPC   PO412864  12.968   2.307   6.113 -0.0196  0.1092  0.0252
  882POPC   GL112865  12.921   2.492   6.472  0.2375  0.0625  0.0176
  882POPC   GL212866  12.672   2.298   6.591  0.1263  0.2150 -0.0095
  882POPC   C1A12867  12.877   2.602   6.873 -0.0694 -0.0833  0.1914
  882POPC   D2A12868  12.985   2.902   7.232  0.3682  0.2674  0.1156
  882POPC   C3A12869  12.917   2.874   7.608 -0.0659  0.1470  0.2306
  882POPC   C4A12870  12.819   2.658   7.997  0.0930 -0.2426  0.3155
  882POPC   C1B12871  12.447   2.080   6.981 -0.0406  0.0005  0.1642
  882POPC   C2B12872  12.243   2.136   7.488  0.1993 -0.0613  0.2612
  882POPC   C3B12873  11.871   1.828   7.571  0.0537  0.1279  0.1666
  882POPC   C4B12874  11.602   1.598   7.338  0.0094  0.1446 -0.0705
  883POPC   NC312875  16.816   0.422   6.187  0.0264  0.0836 -0.0252
  883POPC   PO412876  16.489   0.743   6.272  0.0544  0.1125  0.1455
  883POPC   GL112877  16.399   0.510   6.557 -0.2968  0.2131 -0.3658
  883POPC   GL212878  16.551   0.550   6.828 -0.2550  0.0410 -0.0777
  883POPC   C1A12879  16.028   0.516   6.936  0.0597  0.1511 -0.1145
  883POPC   D2A12880  15.811   0.539   7.345 -0.0253  0.0642 -0.2021
  883POPC   C3A12881  15.697   0.560   7.800  0.1188 -0.1877 -0.1696
  883POPC   C4A12882  15.726   0.666   8.215  0.1187 -0.2661  0.0477
  883POPC   C1B12883  16.542   0.560   7.261  0.3744  0.0186 -0.0333
  883POPC   C2B12884  16.598   0.605   7.708  0.0279  0.0950 -0.0632
  883POPC   C3B12885  16.608   0.603   8.153 -0.1465 -0.0823 -0.0161
  883POPC   C4B12886  16.237   0.568   8.378  0.0567 -0.0759  0.1330
  884POPC   NC312887   5.285   8.512   6.384 -0.0918  0.0345  0.0837
  884POPC   PO412888   5.237   8.620   6.791 -0.0678 -0.0417 -0.0727
  884POPC   GL112889   5.263   8.258   7.072  0.0916 -0.0695  0.0362
  884POPC   GL212890   5.715   8.174   7.126  0.0294  0.1082  0.3641
  884POPC   C1A12891   5.174   8.109   7.437 -0.0247  0.1873  0.0147
  884POPC   D2A12892   5.274   8.044   7.813 -0.0436 -0.0224  0.0021
  884POPC   C3A12893   5.520   7.784   8.047  0.0878  0.2279 -0.0461
  884POPC   C4A12894   5.573   7.606   8.279  0.2376 -0.3853 -0.1291
  884POPC   C1B12895   5.723   7.982   7.566 -0.0916 -0.2256  0.0979
  884POPC   C2B12896   5.964   7.888   7.843  0.0296  0.2788  0.1704
  884POPC   C3B12897   6.051   7.496   8.093  0.0328 -0.0797  0.2926
  884POPC   C4B12898   6.346   7.215   8.263 -0.2429  0.1393 -0.2455
  885POPC   NC312899   4.737  16.610   6.089 -0.1650  0.1441 -0.2342
  885POPC   PO412900   4.443  16.408   6.239  0.0437  0.0389  0.0473
  885POPC   GL112901   4.386  16.617   6.653 -0.0333  0.1974 -0.1046
  885POPC   GL212902   4.680  16.793   6.550  0.0359 -0.2996 -0.0089
  885POPC   C1A12903   4.247  16.572   7.070 -0.1131 -0.0501  0.1839
  885POPC   D2A12904   4.297  16.428   7.427 -0.0379  0.2711 -0.3414
  885POPC   C3A12905   4.558  16.380   7.761  0.1479  0.0335  0.2750
  885POPC   C4A12906   4.588  16.172   8.137  0.0435  0.1717 -0.0578
  885POPC   C1B12907   4.694  16.906   6.960 -0.0770 -0.0604 -0.0374
  885POPC   C2B12908   4.677  16.704   7.326  0.1495 -0.3640  0.6034
  885POPC   C3B12909   4.836  16.774   7.632  0.1042  0.0234  0.0837
  885POPC   C4B12910   5.057  16.862   7.868  0.0821 -0.3583 -0.2572
  886POPC   NC312911   8.461   2.625   5.929 -0.0909  0.2967  0.0719
  886POPC   PO412912   8.527   3.045   6.077  0.0634 -0.2909 -0.2821
  886POPC   GL112913   8.292   2.841   6.471 -0.0540 -0.2071 -0.1841
  886POPC   GL212914   8.179   2.552   6.371  0.0239  0.0162  0.2313
  886POPC   C1A12915   8.251   2.751   6.874 -0.3018 -0.1113  0.1633
  886POPC   D2A12916   8.066   2.960   7.231  0.0051  0.1292 -0.2756
  886POPC   C3A12917   7.998   2.995   7.620 -0.0561  0.0624 -0.1086
  886POPC   C4A12918   7.933   3.390   7.793 -0.0989  0.1121  0.1197
  886POPC   C1B12919   7.992   2.328   6.792  0.1451  0.1593  0.2164
  886POPC   C2B12920   8.083   2.449   7.214  0.0448  0.1835  0.0523
  886POPC   C3B12921   7.868   2.473   7.554 -0.2165 -0.1269  0.2929
  886POPC   C4B12922   7.644   2.765   7.856 -0.0555  0.3533  0.1317
  887POPC   NC312923   5.034   1.545   5.833 -0.1602 -0.0853 -0.0907
  887POPC   PO412924   4.961   1.846   6.152 -0.0918  0.0725  0.1775
  887POPC   GL112925   5.275   1.914   6.457  0.0026  0.5361 -0.1469
  887POPC   GL212926   5.369   2.133   6.629 -0.1684  0.0011 -0.1122
  887POPC   C1A12927   5.667   1.765   6.487 -0.0422  0.1729 -0.0294
  887POPC   D2A12928   6.035   1.812   6.750 -0.0733 -0.2175  0.1582
  887POPC   C3A12929   6.051   1.856   7.139 -0.1268 -0.1434 -0.0061
  887POPC   C4A12930   6.226   1.878   7.502  0.0979  0.2556 -0.0744
  887POPC   C1B12931   5.551   2.033   6.959  0.2813 -0.0901  0.0321
  887POPC   C2B12932   5.637   1.873   7.371 -0.2192  0.3366 -0.0670
  887POPC   C3B12933   5.706   1.639   7.749 -0.0759 -0.0543 -0.0482
  887POPC   C4B12934   5.670   1.541   8.238 -0.0434 -0.1325  0.3570
  888POPC   NC312935  16.339   4.648   6.308 -0.1001  0.1950  0.0465
  888POPC   PO412936  16.144   4.239   6.355 -0.0095 -0.0888 -0.1381
  888POPC   GL112937  16.250   4.382   6.847  0.0822 -0.2382 -0.0550
  888POPC   GL212938  16.307   4.702   6.894 -0.0944  0.2570 -0.0814
  888POPC   C1A12939  16.074   4.256   7.268  0.0664  0.0032  0.0289
  888POPC   D2A12940  15.725   4.259   7.424 -0.0381 -0.1278 -0.1043
  888POPC   C3A12941  15.623   4.077   7.855  0.0083  0.2878 -0.3269
  888POPC   C4A12942  15.684   3.633   7.888  0.1049 -0.1147 -0.0005
  888POPC   C1B12943  16.090   4.743   7.323 -0.0440 -0.0997  0.0108
  888POPC   C2B12944  16.137   4.513   7.758  0.4376 -0.0810  0.2168
  888POPC   C3B12945  16.374   4.603   8.065 -0.2237  0.5964  0.1419
  888POPC   C4B12946  16.827   4.675   8.191  0.0263  0.0268 -0.0216
  889POPC   NC312947   5.307   6.292   6.562 -0.0940 -0.0786 -0.2654
  889POPC   PO412948   5.506   6.772   6.537  0.2158 -0.3281  0.2683
  889POPC   GL112949   5.432   6.701   6.975  0.3376 -0.3083  0.0008
  889POPC   GL212950   5.193   6.518   6.992  0.3341 -0.3101  0.0174
  889POPC   C1A12951   5.414   6.638   7.429  0.0905  0.2397 -0.0538
  889POPC   D2A12952   5.647   6.750   7.729  0.1780  0.1884 -0.3864
  889POPC   C3A12953   5.664   6.626   8.151  0.3482  0.0270 -0.5415
  889POPC   C4A12954   5.399   6.706   8.505 -0.0773 -0.0844 -0.0593
  889POPC   C1B12955   4.898   6.575   7.364  0.1532  0.0105  0.2623
  889POPC   C2B12956   4.710   6.591   7.834  0.2520 -0.0851  0.0536
  889POPC   C3B12957   4.613   6.353   8.211  0.0737  0.0540 -0.5000
  889POPC   C4B12958   4.586   6.293   8.596  0.0958  0.0552 -0.2440
  890POPC   NC312959  15.556  15.640   5.844  0.4078  0.1410  0.1677
  890POPC   PO412960  15.531  16.030   6.024  0.0512 -0.1237 -0.1224
  890POPC   GL112961  15.493  16.110   6.454 -0.2424  0.2092 -0.1009
  890POPC   GL212962  15.784  16.191   6.456 -0.1325  0.1361 -0.2005
  890POPC   C1A12963  15.389  15.993   6.903  0.0442  0.0267  0.0973
  890POPC   D2A12964  15.436  16.070   7.368 -0.1947 -0.0981  0.1410
  890POPC   C3A12965  15.204  16.025   7.792  0.1915  0.1726 -0.1778
  890POPC   C4A12966  15.160  15.799   8.144  0.0854 -0.3304  0.0696
  890POPC   C1B12967  16.089  16.017   6.746  0.0043  0.0907 -0.2074
  890POPC   C2B12968  16.262  15.624   6.865  0.2868 -0.1791 -0.2881
  890POPC   C3B12969  16.461  15.391   7.211 -0.1643 -0.3269 -0.2323
  890POPC   C4B12970  16.786  15.029   7.216 -0.0158 -0.0092  0.1121
  891POPC   NC312971  11.769   3.844   5.990  0.4428  0.0000  0.0380
  891POPC   PO412972  12.035   3.474   6.159  0.1290  0.0795 -0.0645
  891POPC   GL112973  11.996   3.575   6.599 -0.0539  0.0327 -0.0718
  891POPC   GL212974  11.822   3.821   6.585  0.0880  0.2955  0.0670
  891POPC   C1A12975  12.098   3.532   6.927 -0.1640  0.1252 -0.1217
  891POPC   D2A12976  12.170   3.373   7.214  0.1495 -0.1986 -0.3737
  891POPC   C3A12977  11.917   3.385   7.563 -0.0820  0.1001 -0.1560
  891POPC   C4A12978  11.893   3.368   7.938 -0.0222 -0.2082 -0.1309
  891POPC   C1B12979  11.381   3.873   6.778 -0.1181  0.1868  0.3008
  891POPC   C2B12980  11.050   3.867   6.981  0.3280  0.0338 -0.1857
  891POPC   C3B12981  11.001   3.952   7.365 -0.2216 -0.0672  0.2196
  891POPC   C4B12982  10.967   4.108   7.777  0.2037  0.1453  0.0176
  892POPC   NC312983   2.757   7.722   6.337  0.0971  0.1330 -0.0142
  892POPC   PO412984   3.098   7.848   6.598  0.0039  0.0694  0.0214
  892POPC   GL112985   3.232   8.169   6.958 -0.2285  0.0425  0.1628
  892POPC   GL212986   3.561   8.392   6.947 -0.2175  0.1980  0.2427
  892POPC   C1A12987   3.160   8.164   7.336  0.2374 -0.0145 -0.1399
  892POPC   D2A12988   2.976   7.925   7.693  0.4546 -0.3000  0.0901
  892POPC   C3A12989   2.987   7.790   8.070  0.2348  0.0003 -0.1420
  892POPC   C4A12990   3.149   7.863   8.439 -0.0706  0.2392  0.1771
  892POPC   C1B12991   3.726   8.118   7.294  0.0300 -0.0540 -0.1419
  892POPC   C2B12992   3.966   7.966   7.747 -0.1202  0.1583  0.1105
  892POPC   C3B12993   3.953   7.760   8.107  0.1584  0.0644  0.0934
  892POPC   C4B12994   3.847   7.531   8.356 -0.1453  0.3407  0.0797
  893POPC   NC312995   3.444  10.275   6.653  0.3694  0.0449  0.0593
  893POPC   PO412996   3.241  10.660   6.486  0.2571 -0.0337 -0.0503
  893POPC   GL112997   3.372  10.655   6.988 -0.1016  0.0925 -0.2535
  893POPC   GL212998   3.306  10.562   7.285  0.1411  0.2825  0.0912
  893POPC   C1A12999   3.654  10.906   7.224  0.0830 -0.0003  0.2052
  893POPC   D2A13000   3.802  10.891   7.583 -0.3181  0.2185 -0.0116
  893POPC   C3A13001   3.915  10.636   8.012  0.0152  0.1347 -0.0946
  893POPC   C4A13002   4.121  10.640   8.221 -0.1031  0.1086 -0.2977
  893POPC   C1B13003   3.461  10.589   7.759  0.0217  0.1833  0.2503
  893POPC   C2B13004   3.432  10.476   8.218 -0.1604  0.1835  0.0067
  893POPC   C3B13005   3.475  10.304   8.623 -0.1579  0.5237 -0.1909
  893POPC   C4B13006   3.600   9.911   8.887 -0.1342  0.2378 -0.1542
  894POPC   NC313007   1.684  13.901   6.002  0.4766  0.0379  0.2632
  894POPC   PO413008   1.841  13.459   6.013 -0.2059 -0.1561 -0.0000
  894POPC   GL113009   1.685  13.616   6.400  0.0355  0.0795  0.3191
  894POPC   GL213010   1.810  13.875   6.516 -0.2761  0.0377  0.0640
  894POPC   C1A13011   1.512  13.526   6.701  0.2339 -0.0189 -0.1243
  894POPC   D2A13012   1.433  13.231   7.071  0.3349 -0.1539  0.3195
  894POPC   C3A13013   1.331  13.393   7.447  0.5810 -0.0342 -0.4031
  894POPC   C4A13014   1.068  13.289   7.869 -0.0399 -0.1239  0.0310
  894POPC   C1B13015   1.932  13.680   6.974 -0.3269 -0.0327 -0.1809
  894POPC   C2B13016   1.832  13.484   7.403 -0.0434  0.1479 -0.1183
  894POPC   C3B13017   2.080  13.555   7.775 -0.2367 -0.0523 -0.4125
  894POPC   C4B13018   2.140  13.664   8.184 -0.0573  0.0721  0.2647
  895POPC   NC313019  15.938  14.242   5.624  0.1031 -0.0488  0.1308
  895POPC   PO413020  15.603  14.224   5.944 -0.3141 -0.3287 -0.0324
  895POPC   GL113021  15.937  14.166   6.246  0.6295  0.2876 -0.2429
  895POPC   GL213022  16.137  14.105   6.079  0.1926 -0.0412  0.0113
  895POPC   C1A13023  15.958  14.187   6.789  0.3149 -0.0166 -0.0966
  895POPC   D2A13024  15.923  14.003   7.212 -0.2759 -0.1182 -0.3276
  895POPC   C3A13025  15.679  14.316   7.641  0.2398 -0.2638  0.0425
  895POPC   C4A13026  15.693  14.517   7.974 -0.1425 -0.1640  0.1874
  895POPC   C1B13027  16.342  14.359   6.497 -0.0491  0.1894  0.4348
  895POPC   C2B13028  16.658  14.236   6.725 -0.3449  0.3476 -0.0888
  895POPC   C3B13029  16.655  14.262   7.211  0.0024 -0.0627 -0.1285
  895POPC   C4B13030  16.683  14.619   7.388  0.2464 -0.1622 -0.1527
  896POPC   NC313031  12.156  15.294   6.321  0.0586  0.0005 -0.1715
  896POPC   PO413032  11.857  15.248   6.228 -0.0954  0.1943 -0.2101
  896POPC   GL113033  12.009  14.983   6.658 -0.2302 -0.1819  0.3778
  896POPC   GL213034  12.322  15.089   6.815  0.1779  0.1197 -0.0586
  896POPC   C1A13035  11.695  14.791   6.883 -0.0993 -0.0718 -0.1942
  896POPC   D2A13036  11.472  14.861   7.195 -0.0445  0.0485 -0.0312
  896POPC   C3A13037  11.418  14.450   7.454  0.2010 -0.4923  0.0455
  896POPC   C4A13038  11.662  14.220   7.737 -0.0920  0.0493  0.0259
  896POPC   C1B13039  12.012  15.114   7.169 -0.2647  0.0124  0.1744
  896POPC   C2B13040  11.665  15.146   7.554 -0.1629 -0.2895  0.1933
  896POPC   C3B13041  11.805  15.060   7.914 -0.4297  0.2519  0.1164
  896POPC   C4B13042  11.765  14.815   8.301 -0.0212  0.0094 -0.2963
  897POPC   NC313043   8.916  12.007   5.860 -0.0486 -0.1488 -0.1274
  897POPC   PO413044   9.268  11.829   6.045 -0.0431  0.1786 -0.1763
  897POPC   GL113045   9.484  12.029   6.405  0.3359 -0.4971  0.3027
  897POPC   GL213046   9.483  11.747   6.633 -0.0553  0.0194  0.1068
  897POPC   C1A13047   9.626  12.210   6.747  0.0532  0.0430  0.0172
  897POPC   D2A13048   9.797  12.552   7.202  0.2098 -0.3101 -0.0110
  897POPC   C3A13049   9.840  12.548   7.633  0.1241 -0.0952  0.0929
  897POPC   C4A13050   9.765  12.439   8.022 -0.0258  0.1452  0.0434
  897POPC   C1B13051   9.353  11.896   7.069 -0.0921 -0.0499  0.0153
  897POPC   C2B13052   9.533  12.190   7.325 -0.0077 -0.0423 -0.3429
  897POPC   C3B13053   9.367  12.423   7.628 -0.2251  0.0077 -0.1203
  897POPC   C4B13054   9.020  12.494   7.899 -0.2376  0.0193 -0.0901
  898POPC   NC313055   7.567   8.050   6.233  0.0753  0.1544 -0.0372
  898POPC   PO413056   7.571   7.601   6.398 -0.2588 -0.1790 -0.0221
  898POPC   GL113057   7.351   7.466   6.820  0.0342  0.0905 -0.1909
  898POPC   GL213058   7.210   7.188   6.856 -0.0212 -0.0068 -0.1878
  898POPC   C1A13059   7.227   7.483   7.254  0.3392 -0.2478  0.1589
  898POPC   D2A13060   7.224   7.375   7.753  0.0654  0.0514 -0.0044
  898POPC   C3A13061   7.245   7.009   8.118  0.2132  0.2838  0.2277
  898POPC   C4A13062   7.461   6.923   8.512  0.0566 -0.1422 -0.0444
  898POPC   C1B13063   7.214   6.995   7.323  0.2442  0.1721 -0.1143
  898POPC   C2B13064   7.294   6.820   7.635 -0.0383 -0.1674 -0.0023
  898POPC   C3B13065   6.963   6.533   7.909  0.1106 -0.1085  0.0496
  898POPC   C4B13066   6.995   6.612   8.383  0.1729  0.1908 -0.1376
  899POPC   NC313067  16.671  12.941   6.424  0.3243  0.0265  0.2235
  899POPC   PO413068  16.770  12.562   6.232  0.1180 -0.0797 -0.1277
  899POPC   GL113069  16.614  12.425   6.648 -0.0656  0.1365  0.1859
  899POPC   GL213070  16.361  12.599   6.708 -0.1080 -0.4156  0.0474
  899POPC   C1A13071  16.791  12.533   7.071 -0.1553 -0.0508  0.2808
  899POPC   D2A13072  16.932  12.498   7.456  0.1270  0.3126  0.2110
  899POPC   C3A13073  16.961  12.870   7.743  0.0913 -0.1558 -0.0079
  899POPC   C4A13074  16.928  13.151   7.995  0.1277 -0.0150 -0.1483
  899POPC   C1B13075  16.295  12.523   7.083  0.0592  0.4666 -0.0661
  899POPC   C2B13076  16.166  12.603   7.393 -0.0875  0.2390  0.1751
  899POPC   C3B13077  16.019  12.915   7.690 -0.3932 -0.1008 -0.0303
  899POPC   C4B13078  15.811  13.001   7.923  0.1235 -0.0873  0.0142
  900POPC   NC313079   9.053   6.270   6.291 -0.1339  0.1406 -0.1371
  900POPC   PO413080   9.372   6.658   6.453  0.4031  0.2501  0.1692
  900POPC   GL113081   9.482   6.542   6.895 -0.1075  0.1001  0.0996
  900POPC   GL213082   9.694   6.264   6.923 -0.1412  0.1295 -0.1438
  900POPC   C1A13083   9.713   6.473   7.452 -0.1284 -0.0442  0.1284
  900POPC   D2A13084   9.787   6.435   7.926  0.3426 -0.1419 -0.3027
  900POPC   C3A13085   9.516   6.274   8.198 -0.2460 -0.0096  0.1258
  900POPC   C4A13086   9.409   6.123   8.602  0.0688 -0.1059  0.1310
  900POPC   C1B13087   9.501   6.030   7.296 -0.0386 -0.1459 -0.2480
  900POPC   C2B13088   9.481   5.703   7.636  0.2013 -0.1099  0.1933
  900POPC   C3B13089   9.590   5.400   7.929 -0.0851 -0.1112  0.0933
  900POPC   C4B13090   9.462   5.248   8.369  0.4880 -0.0997 -0.3240
  901POPC   NC313091   5.160  14.266   5.510 -0.0283  0.0047 -0.3670
  901POPC   PO413092   5.074  13.966   5.823 -0.0701  0.1394 -0.1356
  901POPC   GL113093   5.243  13.845   6.262  0.0066  0.3794  0.0993
  901POPC   GL213094   5.363  13.537   6.433  0.1877  0.3246  0.1398
  901POPC   C1A13095   5.683  13.999   6.504 -0.0730  0.4762  0.0644
  901POPC   D2A13096   5.952  14.086   6.836 -0.1784 -0.0371  0.0304
  901POPC   C3A13097   6.004  13.803   7.169 -0.0228 -0.0333  0.0128
  901POPC   C4A13098   6.433  13.825   7.428 -0.1714  0.2141  0.1523
  901POPC   C1B13099   5.557  13.620   6.845 -0.1390  0.1016  0.0992
  901POPC   C2B13100   5.481  13.765   7.297 -0.2695 -0.0337  0.0111
  901POPC   C3B13101   5.476  14.132   7.615 -0.0393 -0.3067  0.1078
  901POPC   C4B13102   5.450  14.536   7.496  0.0855 -0.3689 -0.0079
  902POPC   NC313103  16.686   1.250   6.409 -0.0274 -0.2129 -0.0707
  902POPC   PO413104  16.792   1.643   6.458 -0.1774  0.1883  0.1761
  902POPC   GL113105  16.586   1.503   6.806 -0.1304 -0.0371  0.2096
  902POPC   GL213106  16.477   1.789   6.974  0.4027 -0.0154 -0.2242
  902POPC   C1A13107  16.573   1.189   7.152  0.2752 -0.1159  0.2682
  902POPC   D2A13108  16.517   1.158   7.608 -0.0485 -0.1709 -0.0072
  902POPC   C3A13109  16.782   1.058   7.971  0.0388 -0.0134 -0.3396
  902POPC   C4A13110  16.977   0.942   8.371  0.0847  0.4102  0.2140
  902POPC   C1B13111  16.568   1.617   7.428 -0.1184 -0.1235  0.3211
  902POPC   C2B13112  16.584   1.574   7.824  0.0641 -0.1353 -0.3597
  902POPC   C3B13113  16.794   1.487   8.297 -0.0132  0.0515  0.1003
  902POPC   C4B13114  16.927   1.379   8.672  0.0914  0.2278 -0.0435
  903POPC   NC313115  10.331   3.051   6.218  0.2296  0.2303 -0.2595
  903POPC   PO413116  10.667   3.219   6.053 -0.0531 -0.1245 -0.0373
  903POPC   GL113117  10.758   3.064   6.552 -0.0676 -0.2410  0.0936
  903POPC   GL213118  10.528   3.167   6.641 -0.1433  0.0751 -0.1339
  903POPC   C1A13119  10.800   2.815   6.961  0.2553 -0.0402  0.1836
  903POPC   D2A13120  10.907   2.616   7.258 -0.0139  0.1320 -0.2307
  903POPC   C3A13121  10.633   2.381   7.446 -0.1200  0.1434 -0.1558
  903POPC   C4A13122  10.496   2.382   7.845  0.1888  0.1270  0.0746
  903POPC   C1B13123  10.390   3.110   7.039 -0.1819  0.2818 -0.2002
  903POPC   C2B13124  10.479   2.848   7.412 -0.0430 -0.1150 -0.1044
  903POPC   C3B13125  10.731   2.811   7.695 -0.0278  0.0124  0.0602
  903POPC   C4B13126  10.757   3.171   7.915  0.0367 -0.1369 -0.0515
  904POPC   NC313127   0.712  15.879   6.251 -0.1557 -0.0643  0.1453
  904POPC   PO413128   0.501  16.323   6.259 -0.1663  0.3179 -0.0010
  904POPC   GL113129   0.315  16.305   6.660 -0.0360  0.0604  0.0071
  904POPC   GL213130   0.068  16.119   6.719  0.1475  0.0158 -0.1417
  904POPC   C1A13131   0.243  16.549   7.060 -0.0579 -0.1627  0.1449
  904POPC   D2A13132   0.238  16.763   7.431 -0.1447 -0.0817  0.0919
  904POPC   C3A13133   0.459  16.623   7.815  0.2691  0.1901  0.0721
  904POPC   C4A13134   0.615  16.199   7.965  0.1190  0.2701  0.0535
  904POPC   C1B13135  -0.279  16.137   7.029 -0.0216 -0.0955  0.3725
  904POPC   C2B13136  -0.400  16.013   7.406 -0.0424 -0.1592 -0.0581
  904POPC   C3B13137  -0.372  15.945   7.833  0.0094  0.0812 -0.4131
  904POPC   C4B13138  -0.476  15.803   8.099 -0.0589  0.0472 -0.0003
  905POPC   NC313139   9.322   4.454   6.034  0.0635 -0.1393  0.0642
  905POPC   PO413140   8.994   4.252   6.397 -0.0320 -0.0316  0.1909
  905POPC   GL113141   9.066   4.176   6.841  0.1708 -0.1415  0.0502
  905POPC   GL213142   9.276   3.939   6.828 -0.1062 -0.4444  0.0969
  905POPC   C1A13143   9.107   4.206   7.301 -0.0819  0.0427  0.0956
  905POPC   D2A13144   8.931   4.168   7.701  0.0118 -0.1113 -0.2440
  905POPC   C3A13145   9.025   3.820   8.045  0.2394 -0.1916 -0.1859
  905POPC   C4A13146   8.899   3.554   8.519 -0.2782 -0.0527  0.1284
  905POPC   C1B13147   8.969   3.751   7.171 -0.1241  0.0024  0.3301
  905POPC   C2B13148   8.875   3.596   7.613 -0.3737  0.0480 -0.3748
  905POPC   C3B13149   8.761   3.420   8.014 -0.3163 -0.0244 -0.0429
  905POPC   C4B13150   8.341   3.488   8.112  0.1565  0.3299 -0.1353
  906POPC   NC313151  14.111   2.428   5.936 -0.0312 -0.0862 -0.0770
  906POPC   PO413152  13.666   2.605   5.944 -0.3056  0.1212 -0.2618
  906POPC   GL113153  13.886   2.579   6.398 -0.1852  0.0351 -0.0449
  906POPC   GL213154  14.031   2.291   6.413 -0.0704  0.3039 -0.1695
  906POPC   C1A13155  13.900   2.487   6.919 -0.4001 -0.1928 -0.1245
  906POPC   D2A13156  13.788   2.420   7.366  0.1955  0.1140 -0.1935
  906POPC   C3A13157  14.053   2.241   7.714  0.4087 -0.0613 -0.1486
  906POPC   C4A13158  14.240   1.929   8.115  0.1196 -0.2937 -0.0007
  906POPC   C1B13159  13.653   2.094   6.670 -0.3788  0.1547  0.1723
  906POPC   C2B13160  13.451   1.886   6.980  0.2010 -0.3207 -0.3631
  906POPC   C3B13161  13.298   1.692   7.447  0.0183  0.2679 -0.0900
  906POPC   C4B13162  13.304   1.695   7.889 -0.0726 -0.2674 -0.1267
  907POPC   NC313163   3.008   2.621   6.495 -0.1719 -0.1117  0.0227
  907POPC   PO413164   2.704   2.603   6.691 -0.1773 -0.1083  0.0433
  907POPC   GL113165   2.813   2.668   7.036  0.0346  0.4813 -0.2298
  907POPC   GL213166   3.185   2.770   7.076  0.4695 -0.2099 -0.0511
  907POPC   C1A13167   2.602   2.564   7.397  0.0155 -0.0596  0.1475
  907POPC   D2A13168   2.396   2.516   7.818 -0.2803 -0.2136  0.0890
  907POPC   C3A13169   2.503   2.351   8.246  0.2728 -0.2638 -0.2670
  907POPC   C4A13170   2.549   2.062   8.611  0.0683 -0.0385  0.1970
  907POPC   C1B13171   3.048   2.754   7.527 -0.1986 -0.1890  0.2786
  907POPC   C2B13172   2.926   2.600   7.914  0.2306 -0.3022 -0.0482
  907POPC   C3B13173   3.056   2.510   8.358 -0.0624 -0.0673 -0.0990
  907POPC   C4B13174   3.385   2.301   8.482  0.0029 -0.1585  0.1273
  908POPC   NC313175   2.028   6.739   6.919 -0.0328  0.0023  0.0736
  908POPC   PO413176   1.777   6.411   7.002  0.1073  0.1393  0.2470
  908POPC   GL113177   1.601   6.739   7.250  0.1096 -0.2344  0.1412
  908POPC   GL213178   1.209   6.720   7.221 -0.0551 -0.0052 -0.0245
  908POPC   C1A13179   1.763   6.822   7.603  0.0689 -0.3703  0.2076
  908POPC   D2A13180   1.610   6.692   8.012  0.0737 -0.2292 -0.1071
  908POPC   C3A13181   1.894   6.951   8.272  0.0812  0.1999 -0.3020
  908POPC   C4A13182   2.169   7.118   8.569 -0.2462  0.3971 -0.1045
  908POPC   C1B13183   1.284   6.643   7.644  0.5350  0.0136 -0.0281
  908POPC   C2B13184   1.101   6.629   8.036  0.1969 -0.0322  0.2048
  908POPC   C3B13185   1.093   6.666   8.509  0.0927 -0.0005 -0.1715
  908POPC   C4B13186   1.230   6.791   8.902 -0.1302  0.0305 -0.1932
  909POPC   NC313187  15.758   2.959   6.418 -0.2306 -0.0842  0.1401
  909POPC   PO413188  16.196   3.137   6.424 -0.0588 -0.1633 -0.0835
  909POPC   GL113189  16.091   3.066   6.835 -0.0807  0.0863 -0.0394
  909POPC   GL213190  16.126   2.733   6.836 -0.3503  0.2181 -0.1065
  909POPC   C1A13191  16.047   2.932   7.299 -0.1244  0.0430  0.0650
  909POPC   D2A13192  16.059   2.975   7.675  0.3496 -0.2339  0.2536
  909POPC   C3A13193  16.292   3.034   7.966 -0.1885  0.0854  0.1084
  909POPC   C4A13194  16.473   2.825   8.312  0.3157  0.3385 -0.1028
  909POPC   C1B13195  15.959   2.475   7.080 -0.0295  0.2238  0.2824
  909POPC   C2B13196  15.827   2.463   7.546  0.3368  0.0268 -0.0123
  909POPC   C3B13197  15.615   2.802   7.931 -0.0167  0.1465 -0.2452
  909POPC   C4B13198  15.677   3.151   7.951  0.0983 -0.0240 -0.0421
  910POPC   NC313199  10.856   5.900   6.321 -0.1972  0.0824  0.0367
  910POPC   PO413200  10.479   5.843   6.400  0.1698 -0.0554  0.1990
  910POPC   GL113201  10.509   5.909   6.770 -0.2043  0.1987  0.1221
  910POPC   GL213202  10.755   5.693   6.834  0.3682  0.1725  0.0629
  910POPC   C1A13203  10.558   6.092   7.101 -0.1309  0.2098 -0.0439
  910POPC   D2A13204  10.845   6.222   7.464  0.1171 -0.0330 -0.2157
  910POPC   C3A13205  10.966   5.830   7.721  0.2332 -0.0908 -0.3702
  910POPC   C4A13206  10.965   5.562   8.078 -0.2342 -0.0161  0.2606
  910POPC   C1B13207  10.920   5.686   7.237  0.2352  0.1142 -0.0761
  910POPC   C2B13208  10.780   5.376   7.569  0.2415  0.5299  0.2365
  910POPC   C3B13209  10.323   5.288   7.573 -0.1803  0.2318 -0.0016
  910POPC   C4B13210  10.025   5.514   7.698 -0.2870 -0.2689 -0.1022
  911POPC   NC313211  16.673   5.443   6.668 -0.1270  0.1733  0.3912
  911POPC   PO413212  16.636   5.950   6.616  0.0622 -0.0756 -0.1206
  911POPC   GL113213  16.627   5.902   7.035 -0.2023 -0.1861  0.0469
  911POPC   GL213214  16.849   5.717   7.180 -0.1365  0.2388  0.1737
  911POPC   C1A13215  16.494   5.888   7.419 -0.0969  0.0116  0.1736
  911POPC   D2A13216  16.537   5.978   7.914 -0.1779 -0.0724 -0.1266
  911POPC   C3A13217  16.502   5.784   8.365  0.3823  0.2001 -0.1318
  911POPC   C4A13218  16.156   5.867   8.661 -0.1677 -0.0740 -0.0804
  911POPC   C1B13219  16.912   5.757   7.628 -0.0277 -0.0468 -0.1272
  911POPC   C2B13220  17.090   5.484   7.856 -0.1830 -0.2185  0.2397
  911POPC   C3B13221  17.146   5.067   8.125 -0.2778 -0.0072 -0.0955
  911POPC   C4B13222  17.165   4.880   8.534 -0.0063  0.1810  0.0835
  912POPC   NC313223   9.593   5.484   6.178  0.0834 -0.0165  0.0656
  912POPC   PO413224   9.778   5.262   6.483  0.0094  0.1506  0.2612
  912POPC   GL113225   9.928   5.019   6.830 -0.0110 -0.1695  0.0454
  912POPC   GL213226   9.781   4.772   6.762 -0.2123 -0.2203 -0.1966
  912POPC   C1A13227  10.146   5.218   7.076 -0.2186  0.2244  0.1090
  912POPC   D2A13228  10.394   5.614   7.157  0.0795 -0.2305  0.1900
  912POPC   C3A13229  10.510   5.841   7.554  0.3951 -0.0717  0.0468
  912POPC   C4A13230  10.601   6.064   7.943  0.1170  0.4078 -0.1611
  912POPC   C1B13231   9.808   4.546   7.160  0.2498 -0.3699  0.2170
  912POPC   C2B13232   9.533   4.439   7.542 -0.1919  0.4479  0.3531
  912POPC   C3B13233   9.383   4.516   7.938  0.0102  0.1123  0.0801
  912POPC   C4B13234   9.051   4.352   8.171  0.1557  0.0294 -0.0242
  913POPC   NC313235   5.454   5.587   6.506  0.1181  0.1271  0.2103
  913POPC   PO413236   5.628   5.128   6.521 -0.0118 -0.1280  0.1110
  913POPC   GL113237   5.484   4.902   6.850  0.2151 -0.0260  0.1192
  913POPC   GL213238   5.576   5.046   7.049 -0.2066 -0.1465  0.0946
  913POPC   C1A13239   5.668   4.586   7.143 -0.1084 -0.1478  0.0854
  913POPC   D2A13240   5.731   4.310   7.508  0.2850 -0.1246 -0.0049
  913POPC   C3A13241   5.603   4.495   7.821  0.2266 -0.1172  0.4829
  913POPC   C4A13242   5.626   4.737   8.226 -0.0079  0.1559  0.1592
  913POPC   C1B13243   5.394   4.951   7.387  0.1311 -0.0193  0.1207
  913POPC   C2B13244   5.225   4.981   7.793 -0.1749  0.0806  0.1454
  913POPC   C3B13245   4.948   4.924   8.134 -0.0365 -0.3418  0.0468
  913POPC   C4B13246   4.846   5.214   8.376  0.1148 -0.1685 -0.1925
  914POPC   NC313247   6.482   7.176   6.129  0.3782 -0.3948  0.1285
  914POPC   PO413248   6.147   6.826   6.113  0.0076 -0.0347  0.0871
  914POPC   GL113249   6.372   6.631   6.410  0.5349 -0.2268  0.1468
  914POPC   GL213250   6.719   6.608   6.380 -0.4051 -0.0258 -0.0927
  914POPC   C1A13251   6.445   6.756   6.792 -0.0049 -0.0970 -0.3368
  914POPC   D2A13252   6.766   7.056   7.038  0.3563 -0.0286  0.2138
  914POPC   C3A13253   6.818   6.775   7.236  0.0991  0.0539 -0.1722
  914POPC   C4A13254   6.556   6.582   7.644 -0.0667  0.1546  0.0814
  914POPC   C1B13255   6.839   6.412   6.795 -0.3512 -0.1696 -0.2817
  914POPC   C2B13256   6.795   6.266   7.177 -0.0360  0.1493  0.2549
  914POPC   C3B13257   6.898   6.223   7.508  0.2055 -0.4901  0.1254
  914POPC   C4B13258   6.715   6.033   7.903  0.1175 -0.0052  0.0244
  915POPC   NC313259  12.342  10.842   6.023  0.5834  0.0863  0.1713
  915POPC   PO413260  12.048  11.009   6.335 -0.2084  0.1849  0.2763
  915POPC   GL113261  12.314  10.913   6.759 -0.1563  0.1659  0.0274
  915POPC   GL213262  12.124  10.683   7.026 -0.2136  0.1924 -0.2702
  915POPC   C1A13263  12.609  10.831   7.143  0.2882 -0.1770  0.2459
  915POPC   D2A13264  12.717  11.078   7.619 -0.1523 -0.1096 -0.0740
  915POPC   C3A13265  12.743  10.737   7.909  0.1900 -0.2123 -0.0550
  915POPC   C4A13266  12.800  10.547   8.255 -0.0849 -0.0227  0.1029
  915POPC   C1B13267  11.753  10.829   7.281 -0.1301 -0.0508  0.0585
  915POPC   C2B13268  11.745  10.921   7.711 -0.2271  0.0467  0.2430
  915POPC   C3B13269  11.633  10.994   8.141 -0.1765 -0.3599  0.1846
  915POPC   C4B13270  11.374  11.285   8.329 -0.0362  0.0915 -0.1266
  916POPC   NC313271   2.668   5.259   6.628  0.1339  0.3814  0.0368
  916POPC   PO413272   2.359   5.046   6.861  0.1247  0.1447 -0.0893
  916POPC   GL113273   2.473   5.035   7.212  0.0349 -0.1570 -0.2256
  916POPC   GL213274   2.273   4.798   7.301  0.1209  0.0878 -0.2444
  916POPC   C1A13275   2.666   5.013   7.684  0.1222 -0.3399  0.1924
  916POPC   D2A13276   2.555   5.017   8.112  0.3473 -0.1224  0.2025
  916POPC   C3A13277   2.746   5.333   8.449  0.1700 -0.0326  0.1578
  916POPC   C4A13278   2.764   5.573   8.908  0.1384  0.4338 -0.0224
  916POPC   C1B13279   2.161   4.848   7.741  0.0854 -0.5373  0.0183
  916POPC   C2B13280   2.000   4.808   8.114 -0.0594 -0.0892  0.1726
  916POPC   C3B13281   1.705   4.864   8.396 -0.1349  0.1302  0.0156
  916POPC   C4B13282   1.508   5.023   8.535 -0.0892  0.2698 -0.2114
  917POPC   NC313283  10.660  12.261   6.061 -0.0843  0.2058 -0.1842
  917POPC   PO413284  10.894  12.541   5.947  0.1511 -0.1037  0.1781
  917POPC   GL113285  10.887  12.664   6.311  0.2642  0.2788 -0.3194
  917POPC   GL213286  11.055  12.528   6.476 -0.2945  0.3673 -0.2293
  917POPC   C1A13287  10.549  12.677   6.673 -0.0444 -0.2130  0.4226
  917POPC   D2A13288  10.244  12.731   7.086 -0.1655  0.2750 -0.1341
  917POPC   C3A13289  10.430  12.803   7.527  0.2813 -0.1535  0.2567
  917POPC   C4A13290  10.659  12.693   7.846  0.0441  0.0419 -0.0552
  917POPC   C1B13291  11.113  12.638   6.888 -0.4360 -0.1629 -0.0446
  917POPC   C2B13292  11.163  12.488   7.297 -0.1980 -0.1169 -0.3516
  917POPC   C3B13293  11.133  12.508   7.715  0.0307 -0.0794  0.0124
  917POPC   C4B13294  11.518  12.649   7.878  0.1610 -0.0758 -0.3396
  918POPC   NC313295   2.340  16.457   6.230  0.4018 -0.1422 -0.1237
  918POPC   PO413296   2.384  16.742   6.435 -0.1293  0.0044 -0.0268
  918POPC   GL113297   2.268  16.863   6.805  0.1116 -0.3557  0.1384
  918POPC   GL213298   2.510  16.864   6.953  0.1429 -0.1571  0.2424
  918POPC   C1A13299   1.902  16.787   7.056  0.1285 -0.0589  0.0221
  918POPC   D2A13300   1.903  16.716   7.436  0.1118  0.1520  0.1487
  918POPC   C3A13301   1.795  16.673   7.832  0.2999 -0.2432  0.3953
  918POPC   C4A13302   1.974  16.638   8.253 -0.0305 -0.1717 -0.0831
  918POPC   C1B13303   2.411  16.839   7.442  0.2094  0.0276 -0.0431
  918POPC   C2B13304   2.284  16.701   7.816  0.0961 -0.0364 -0.3857
  918POPC   C3B13305   2.438  16.337   8.065  0.1346  0.0706 -0.0211
  918POPC   C4B13306   2.750  16.198   8.364  0.0455 -0.0408 -0.0846
  919POPC   NC313307  11.299  14.137   5.797  0.1132 -0.0273 -0.1644
  919POPC   PO413308  11.684  13.811   6.007  0.1956 -0.4518 -0.2854
  919POPC   GL113309  11.661  13.649   6.425 -0.1828 -0.1659 -0.1400
  919POPC   GL213310  11.730  14.019   6.482  0.0729 -0.0600 -0.0028
  919POPC   C1A13311  11.586  13.516   6.901  0.1190 -0.0094  0.1837
  919POPC   D2A13312  11.423  13.460   7.276  0.0964 -0.0106 -0.2071
  919POPC   C3A13313  11.722  13.713   7.520  0.1026  0.1337 -0.1176
  919POPC   C4A13314  12.032  14.043   7.483 -0.0796  0.5898 -0.1580
  919POPC   C1B13315  11.717  14.304   6.684 -0.0194 -0.2275  0.1919
  919POPC   C2B13316  11.766  14.403   7.152 -0.0084  0.2135 -0.0447
  919POPC   C3B13317  11.951  14.705   7.400  0.4689  0.1199 -0.3518
  919POPC   C4B13318  12.179  15.017   7.622 -0.3466 -0.1235  0.3823
  920POPC   NC313319   0.455   6.051   6.615 -0.0521 -0.0181  0.0298
  920POPC   PO413320   0.776   6.346   6.771  0.0011 -0.1657  0.0796
  920POPC   GL113321   0.683   6.457   7.218 -0.0782 -0.1625  0.3268
  920POPC   GL213322   0.405   6.441   7.321 -0.2882 -0.0414  0.0306
  920POPC   C1A13323   0.763   6.605   7.626 -0.0122  0.0019  0.2614
  920POPC   D2A13324   0.683   6.912   7.939 -0.0179 -0.2793 -0.1043
  920POPC   C3A13325   0.538   6.823   8.281  0.0774  0.2093  0.1170
  920POPC   C4A13326   0.117   6.858   8.519 -0.1043  0.0868  0.3105
  920POPC   C1B13327   0.394   6.334   7.814  0.1995  0.2765 -0.1269
  920POPC   C2B13328   0.431   5.945   8.039  0.1395 -0.1864 -0.1112
  920POPC   C3B13329   0.251   5.738   8.282  0.0928 -0.1555 -0.0518
  920POPC   C4B13330   0.015   5.738   8.657 -0.1430 -0.0980  0.0933
  921POPC   NC313331   7.800   0.229   5.837 -0.2301  0.1892  0.0229
  921POPC   PO413332   8.177  -0.018   6.043 -0.1692  0.0729  0.2499
  921POPC   GL113333   8.134   0.304   6.287  0.0127 -0.2510  0.1881
  921POPC   GL213334   7.946   0.243   6.552 -0.1606  0.0148 -0.1366
  921POPC   C1A13335   8.197   0.813   6.286 -0.0563  0.0019  0.1126
  921POPC   D2A13336   8.333   1.192   6.451 -0.1962  0.2265  0.0261
  921POPC   C3A13337   8.328   1.511   6.789  0.3312 -0.0613  0.0690
  921POPC   C4A13338   8.497   1.601   7.282 -0.3605 -0.2275  0.1173
  921POPC   C1B13339   8.014   0.207   7.000  0.0935  0.2202  0.0176
  921POPC   C2B13340   7.896  -0.011   7.512 -0.1340  0.4120 -0.1038
  921POPC   C3B13341   7.797   0.043   7.920 -0.2194 -0.1194  0.0380
  921POPC   C4B13342   7.636   0.340   8.207  0.0771  0.0143 -0.2202
  922YOPC   NC313343  14.974  14.032   5.917  0.0567 -0.0180 -0.0665
  922YOPC   PO413344  14.609  13.811   5.910 -0.0411 -0.0225 -0.2344
  922YOPC   GL113345  14.468  13.864   6.272 -0.0845 -0.1756 -0.0341
  922YOPC   GL213346  14.232  13.718   6.511 -0.1270  0.0748  0.0598
  922YOPC   C1A13347  14.386  14.174   6.597 -0.3655 -0.2330  0.3660
  922YOPC   D2A13348  14.452  14.360   7.054 -0.0572 -0.3252 -0.0140
  922YOPC   C3A13349  14.902  14.394   7.335 -0.0490  0.2123 -0.0267
  922YOPC   C4A13350  15.168  14.240   7.587 -0.0603  0.0632 -0.0007
  922YOPC   C1B13351  14.033  13.921   6.807 -0.0642 -0.0224  0.1126
  922YOPC   C2B13352  13.762  14.085   7.167 -0.0096 -0.4635  0.1949
  922YOPC   D3B13353  13.760  13.930   7.570  0.2793 -0.1767 -0.3455
  922YOPC   C4B13354  13.746  13.876   7.966  0.0875 -0.0159 -0.0303
  923YOPC   NC313355  16.253  12.453   6.177  0.1562 -0.1252 -0.2429
  923YOPC   PO413356  16.225  12.128   6.492 -0.1837 -0.0415  0.1102
  923YOPC   GL113357  15.876  12.099   6.727  0.0656 -0.1818 -0.1581
  923YOPC   GL213358  15.526  12.200   6.634  0.2615 -0.1136  0.5318
  923YOPC   C1A13359  15.890  12.193   7.187  0.0111  0.0786 -0.4745
  923YOPC   D2A13360  15.944  12.200   7.621  0.1176  0.4278 -0.1119
  923YOPC   C3A13361  16.284  12.314   7.899  0.2027 -0.1116  0.1694
  923YOPC   C4A13362  16.737  12.362   7.974 -0.1045  0.0872 -0.1657
  923YOPC   C1B13363  15.375  12.466   7.098  0.0022  0.0866 -0.0764
  923YOPC   C2B13364  15.521  12.452   7.427  0.0308  0.1882  0.1886
  923YOPC   D3B13365  15.380  12.821   7.723  0.0296 -0.0977  0.1953
  923YOPC   C4B13366  15.090  13.062   8.074 -0.5712 -0.2377  0.1646
  924YOPC   NC313367  12.482  10.039   6.667  0.0351  0.3032 -0.0180
  924YOPC   PO413368  12.136  10.346   6.623 -0.0034 -0.0305 -0.2702
  924YOPC   GL113369  11.896  10.162   6.980 -0.0160 -0.0319  0.0102
  924YOPC   GL213370  11.725   9.927   6.877 -0.0293  0.0314  0.2100
  924YOPC   C1A13371  11.707  10.149   7.419 -0.2348 -0.0510 -0.0607
  924YOPC   D2A13372  11.849  10.420   7.775  0.1517  0.0129  0.2050
  924YOPC   C3A13373  12.315  10.320   7.922 -0.0967  0.1549 -0.1825
  924YOPC   C4A13374  12.341  10.341   8.402  0.0628 -0.1978 -0.2347
  924YOPC   C1B13375  11.635   9.591   7.177 -0.0598  0.0532  0.0908
  924YOPC   C2B13376  11.470   9.220   7.205  0.1166  0.4048  0.1105
  924YOPC   D3B13377  11.264   9.155   7.540  0.2025  0.1279 -0.0783
  924YOPC   C4B13378  11.358   9.281   7.956 -0.0853 -0.0970  0.0441
  925YOPC   NC313379  15.885   5.295   6.465 -0.0128  0.4481 -0.3790
  925YOPC   PO413380  16.245   5.052   6.574  0.3080 -0.3925  0.1810
  925YOPC   GL113381  16.296   5.186   7.006  0.1462 -0.1276  0.2448
  925YOPC   GL213382  16.398   5.447   7.132  0.2355  0.2226 -0.0693
  925YOPC   C1A13383  16.034   5.262   7.388 -0.0036 -0.0080  0.1962
  925YOPC   D2A13384  15.973   5.356   7.802  0.0130 -0.0518 -0.1005
  925YOPC   C3A13385  15.715   5.220   8.123  0.0673 -0.0357  0.2468
  925YOPC   C4A13386  15.282   5.400   8.264 -0.4136 -0.0533 -0.0462
  925YOPC   C1B13387  16.443   5.464   7.655 -0.0323 -0.1214 -0.1452
  925YOPC   C2B13388  16.576   5.343   8.049  0.2393 -0.0162  0.1936
  925YOPC   D3B13389  16.920   5.447   8.419  0.3123 -0.0618 -0.1243
  925YOPC   C4B13390  17.035   5.886   8.657  0.0540  0.1793 -0.1614
  926YOPC   NC313391   8.560  11.112   6.019 -0.1797 -0.0893  0.0647
  926YOPC   PO413392   8.231  11.295   6.264 -0.0050 -0.1143 -0.3503
  926YOPC   GL113393   8.046  11.055   6.668 -0.0280 -0.1339 -0.0565
  926YOPC   GL213394   8.247  11.012   6.894 -0.1031  0.2535 -0.0581
  926YOPC   C1A13395   7.882  10.653   6.739  0.3462 -0.1709 -0.4168
  926YOPC   D2A13396   7.648  10.272   6.913  0.0122  0.0655  0.0241
  926YOPC   C3A13397   7.500  10.263   7.382  0.2413 -0.0763  0.2229
  926YOPC   C4A13398   7.127  10.380   7.667  0.2603 -0.0696  0.0674
  926YOPC   C1B13399   8.448  10.850   7.240  0.1685  0.0394 -0.3870
  926YOPC   C2B13400   8.286  10.621   7.710 -0.2235 -0.2255  0.1245
  926YOPC   D3B13401   8.076  10.766   8.027  0.0503 -0.2376  0.0068
  926YOPC   C4B13402   7.638  11.045   8.142 -0.0047 -0.1789 -0.0851
  927YOPC   NC313403   0.681   7.576   6.437  0.1298  0.0700  0.1263
  927YOPC   PO413404   0.269   7.685   6.471  0.1045  0.0230  0.0122
  927YOPC   GL113405   0.236   7.628   6.878  0.0892  0.2311  0.1346
  927YOPC   GL213406  -0.005   7.721   7.074  0.0285  0.2589  0.2013
  927YOPC   C1A13407   0.440   7.802   7.262  0.3445 -0.1840  0.0699
  927YOPC   D2A13408   0.868   8.092   7.411 -0.1960  0.1184 -0.1475
  927YOPC   C3A13409   1.102   8.451   7.322  0.1988  0.1194 -0.3589
  927YOPC   C4A13410   1.275   8.742   7.660 -0.0466 -0.1378  0.1894
  927YOPC   C1B13411   0.203   7.355   7.391 -0.0839  0.1146  0.1060
  927YOPC   C2B13412   0.663   7.392   7.632 -0.0919  0.1553  0.1466
  927YOPC   D3B13413   0.680   7.434   8.090 -0.0223  0.1779  0.3895
  927YOPC   C4B13414   0.510   7.449   8.410  0.2442 -0.0826  0.0589
  928YOPC   NC313415   8.055   9.495   6.146  0.1007 -0.2265  0.1472
  928YOPC   PO413416   8.301   9.870   6.223 -0.1804 -0.1168  0.0322
  928YOPC   GL113417   8.262   9.630   6.600 -0.1206  0.1687 -0.2075
  928YOPC   GL213418   7.917   9.686   6.651  0.1793  0.1737  0.0061
  928YOPC   C1A13419   8.257   9.660   7.039 -0.0352  0.3027 -0.0333
  928YOPC   D2A13420   8.210   9.652   7.424 -0.0330  0.1094  0.0499
  928YOPC   C3A13421   8.325   9.754   7.841 -0.0440 -0.0619  0.0236
  928YOPC   C4A13422   8.362   9.763   8.276 -0.3667 -0.0524 -0.2373
  928YOPC   C1B13423   8.059  10.078   6.722  0.0473  0.0388 -0.2787
  928YOPC   C2B13424   8.264  10.324   7.006  0.3461 -0.0703  0.1018
  928YOPC   D3B13425   7.995  10.525   7.253  0.0713 -0.2610 -0.2429
  928YOPC   C4B13426   7.711  10.564   7.647  0.2542 -0.2552 -0.0651
  929YOPC   NC313427  15.475   9.383   6.535  0.0978 -0.1402 -0.1698
  929YOPC   PO413428  15.885   9.525   6.510 -0.1013 -0.2771 -0.2233
  929YOPC   GL113429  15.945   9.745   6.794 -0.1984 -0.1522  0.0660
  929YOPC   GL213430  15.709   9.782   7.018 -0.2498 -0.0800  0.1024
  929YOPC   C1A13431  16.228  10.004   7.066  0.2382 -0.1709  0.2966
  929YOPC   D2A13432  16.087  10.346   7.301  0.0220 -0.1436 -0.1820
  929YOPC   C3A13433  16.063  10.542   7.738  0.0865 -0.1915 -0.0294
  929YOPC   C4A13434  16.112  10.540   8.236 -0.1477  0.1583  0.1412
  929YOPC   C1B13435  15.840   9.846   7.471  0.2148 -0.2261 -0.1607
  929YOPC   C2B13436  16.076  10.040   7.896 -0.0901 -0.1486 -0.1357
  929YOPC   D3B13437  16.148  10.023   8.314  0.1755 -0.1367 -0.0168
  929YOPC   C4B13438  15.824  10.223   8.662 -0.3110 -0.1302 -0.1382
  930YOPC   NC313439   3.316   9.604   6.326 -0.0180  0.1936  0.0267
  930YOPC   PO413440   3.120   9.562   6.681 -0.2744  0.1492 -0.0600
  930YOPC   GL113441   3.243   9.429   7.146  0.0633 -0.0470  0.2461
  930YOPC   GL213442   3.594   9.575   7.184 -0.0036  0.1999 -0.2366
  930YOPC   C1A13443   3.086   9.632   7.467 -0.1467  0.0133  0.2513
  930YOPC   D2A13444   2.868   9.691   7.894  0.1078  0.1650 -0.1065
  930YOPC   C3A13445   3.032   9.350   8.163 -0.0304  0.3574 -0.0959
  930YOPC   C4A13446   3.248   9.382   8.577 -0.3509 -0.0995  0.1672
  930YOPC   C1B13447   3.706   9.181   7.418 -0.0592 -0.2567  0.0412
  930YOPC   C2B13448   3.720   9.175   7.885 -0.5135 -0.1808  0.1729
  930YOPC   D3B13449   3.476   9.034   8.218  0.1576  0.1244  0.1288
  930YOPC   C4B13450   3.555   8.727   8.604 -0.1880  0.2617 -0.2715
  931YOPC   NC313451   8.279   6.090   6.403  0.2264  0.2252 -0.3563
  931YOPC   PO413452   8.070   6.380   6.609  0.0724 -0.1527 -0.0854
  931YOPC   GL113453   8.180   6.338   6.988 -0.0574 -0.0459  0.0719
  931YOPC   GL213454   8.435   6.418   6.973 -0.0630  0.0597 -0.0199
  931YOPC   C1A13455   8.003   6.320   7.357 -0.2310  0.1781  0.0586
  931YOPC   D2A13456   7.891   6.173   7.666  0.1925  0.1444  0.4741
  931YOPC   C3A13457   8.069   5.738   7.760 -0.0341 -0.1776  0.2042
  931YOPC   C4A13458   8.096   5.412   7.969 -0.0581 -0.0028 -0.1392
  931YOPC   C1B13459   8.736   6.719   7.255 -0.0059  0.0575 -0.2744
  931YOPC   C2B13460   8.853   7.049   7.521 -0.2239  0.0882  0.0682
  931YOPC   D3B13461   9.143   6.919   7.921  0.2403 -0.3131 -0.1483
  931YOPC   C4B13462   9.495   6.759   8.163  0.0699  0.0502 -0.1796
  932YOPC   NC313463  13.541   7.176   6.258  0.0058 -0.2974  0.1236
  932YOPC   PO413464  13.185   7.347   6.086 -0.3670  0.2032 -0.0782
  932YOPC   GL113465  13.133   7.542   6.501 -0.2385  0.0455 -0.0412
  932YOPC   GL213466  13.467   7.489   6.608  0.0968  0.1796 -0.0919
  932YOPC   C1A13467  13.071   7.656   6.927  0.4692  0.2257 -0.4331
  932YOPC   D2A13468  12.955   8.017   7.209 -0.1126  0.1927 -0.2036
  932YOPC   C3A13469  13.275   8.146   7.363  0.0543  0.0703 -0.0903
  932YOPC   C4A13470  13.415   8.297   7.787 -0.1555  0.1717  0.0264
  932YOPC   C1B13471  13.569   7.796   6.905  0.0898 -0.1040 -0.1171
  932YOPC   C2B13472  13.808   7.701   7.247  0.2396 -0.1114 -0.1121
  932YOPC   D3B13473  13.713   7.956   7.628  0.1705 -0.1812 -0.0425
  932YOPC   C4B13474  13.654   7.836   8.143  0.3082  0.0600  0.3307
  933YOPC   NC313475  14.140  13.663   5.934 -0.0699 -0.1116  0.2977
  933YOPC   PO413476  13.871  13.390   6.255 -0.0384 -0.3419 -0.2943
  933YOPC   GL113477  13.824  13.418   6.725  0.2621  0.1578  0.0821
  933YOPC   GL213478  13.450  13.295   6.880  0.0960  0.1018 -0.0938
  933YOPC   C1A13479  13.829  13.531   7.097  0.2071  0.0665  0.1052
  933YOPC   D2A13480  14.140  13.505   7.468  0.1571 -0.1359 -0.2780
  933YOPC   C3A13481  14.260  13.807   7.797  0.2254 -0.0835 -0.1733
  933YOPC   C4A13482  14.191  13.987   8.208 -0.1204 -0.0268 -0.1196
  933YOPC   C1B13483  13.477  13.261   7.386 -0.0084  0.1726 -0.1549
  933YOPC   C2B13484  13.424  13.019   7.924 -0.0087  0.1456  0.4872
  933YOPC   D3B13485  13.216  12.932   8.372 -0.0382 -0.1963  0.1534
  933YOPC   C4B13486  13.134  12.676   8.676 -0.0195 -0.0100  0.2654
  934YOPC   NC313487   1.854  12.977   5.893 -0.0671  0.1425 -0.4786
  934YOPC   PO413488   1.668  12.746   6.044 -0.1524  0.1460  0.1878
  934YOPC   GL113489   1.512  12.637   6.478 -0.2096  0.1243 -0.1678
  934YOPC   GL213490   1.586  12.317   6.677 -0.0675 -0.0509  0.0767
  934YOPC   C1A13491   1.530  12.806   6.833  0.3260 -0.1487  0.1673
  934YOPC   D2A13492   1.638  12.868   7.262 -0.0734  0.0373  0.1290
  934YOPC   C3A13493   1.586  13.087   7.651 -0.1375 -0.0303  0.2424
  934YOPC   C4A13494   1.581  13.534   7.869  0.2238  0.1357 -0.1369
  934YOPC   C1B13495   1.379  12.422   7.080  0.0307 -0.4300 -0.2692
  934YOPC   C2B13496   1.358  12.371   7.428  0.2033  0.0722  0.2214
  934YOPC   D3B13497   1.180  12.476   7.710  0.3080 -0.2609  0.0322
  934YOPC   C4B13498   1.415  12.548   8.186 -0.3022  0.1305  0.1694
  935YOPC   NC313499   8.314   6.618   5.642 -0.2879  0.1947 -0.0182
  935YOPC   PO413500   8.348   6.922   6.015 -0.0311  0.1192  0.1488
  935YOPC   GL113501   8.495   7.144   6.373  0.0613  0.0664 -0.1648
  935YOPC   GL213502   8.666   7.062   6.640 -0.2334 -0.0558  0.1121
  935YOPC   C1A13503   8.245   7.350   6.639  0.0026  0.0582  0.2553
  935YOPC   D2A13504   7.979   7.543   6.689 -0.4534  0.2598 -0.1882
  935YOPC   C3A13505   8.023   7.907   7.003  0.2268 -0.1464  0.3293
  935YOPC   C4A13506   8.227   8.338   6.978  0.1032  0.1484  0.0525
  935YOPC   C1B13507   8.662   7.216   7.096 -0.2243 -0.1141  0.1197
  935YOPC   C2B13508   8.588   7.523   7.431  0.0192  0.0101 -0.2620
  935YOPC   D3B13509   8.409   7.587   7.870  0.1625 -0.0477 -0.1562
  935YOPC   C4B13510   8.097   7.804   8.206  0.0697  0.2120  0.0176
  936YOPC   NC313511  17.401  13.171   6.358 -0.1568 -0.0491  0.0028
  936YOPC   PO413512  17.072  13.219   6.601  0.1646  0.1010  0.0258
  936YOPC   GL113513  16.810  13.000   6.912  0.0501 -0.2746 -0.0254
  936YOPC   GL213514  17.055  13.005   7.131  0.0208 -0.1954  0.0394
  936YOPC   C1A13515  16.627  12.905   7.384  0.0736 -0.3608  0.0732
  936YOPC   D2A13516  16.491  12.752   7.740 -0.0170 -0.5590  0.1714
  936YOPC   C3A13517  16.282  13.002   8.119  0.2213  0.2526  0.0118
  936YOPC   C4A13518  16.036  13.323   8.359 -0.2416  0.0523  0.1135
  936YOPC   C1B13519  17.122  13.310   7.498  0.0620 -0.1276  0.3501
  936YOPC   C2B13520  17.417  13.026   7.857  0.2833 -0.1331 -0.1316
  936YOPC   D3B13521  17.821  12.864   7.816 -0.1129 -0.0183  0.0669
  936YOPC   C4B13522  18.077  12.584   7.793  0.2827 -0.1227 -0.1613
  937YOPC   NC313523  12.572   3.899   6.719 -0.0771  0.1470  0.2326
  937YOPC   PO413524  12.986   4.156   6.663  0.2132  0.0517 -0.1524
  937YOPC   GL113525  12.822   4.273   6.935 -0.5889  0.0835 -0.0997
  937YOPC   GL213526  12.448   4.272   7.012  0.1149  0.4696  0.2309
  937YOPC   C1A13527  12.847   4.199   7.347  0.1069  0.0412 -0.0566
  937YOPC   D2A13528  12.722   4.151   7.774 -0.0075  0.0048 -0.0649
  937YOPC   C3A13529  12.757   4.108   8.216  0.5028 -0.0864  0.1603
  937YOPC   C4A13530  12.701   4.425   8.526 -0.2673  0.0698 -0.1067
  937YOPC   C1B13531  12.353   4.459   7.403  0.3158  0.1988 -0.1001
  937YOPC   C2B13532  12.259   4.169   7.772 -0.1523  0.5623 -0.1641
  937YOPC   D3B13533  12.231   4.315   8.156  0.3680  0.0216  0.1604
  937YOPC   C4B13534  12.218   4.581   8.562  0.2802 -0.2485  0.1604
  938YOPC   NC313535   4.571   2.130   6.279  0.2433  0.2471  0.0219
  938YOPC   PO413536   4.198   2.094   6.312 -0.1186  0.0811  0.0350
  938YOPC   GL113537   4.214   1.909   6.699 -0.1063  0.0429  0.1984
  938YOPC   GL213538   4.349   2.202   6.783  0.0049 -0.2448 -0.2974
  938YOPC   C1A13539   4.487   1.709   7.035  0.1890 -0.1572  0.3561
  938YOPC   D2A13540   4.625   1.759   7.494 -0.3292 -0.2494 -0.1052
  938YOPC   C3A13541   4.396   1.608   7.782 -0.1447 -0.4084  0.0649
  938YOPC   C4A13542   4.270   1.503   8.227  0.2339 -0.1073 -0.0311
  938YOPC   C1B13543   4.387   2.285   7.186  0.0873  0.0857  0.0716
  938YOPC   C2B13544   4.425   2.332   7.641  0.1637 -0.2665 -0.0297
  938YOPC   D3B13545   4.480   2.117   7.859  0.0001 -0.2814  0.0815
  938YOPC   C4B13546   4.746   1.881   8.113  0.0807 -0.2198  0.0433
  939YOPC   NC313547   9.631   7.412   6.037 -0.1539 -0.1126 -0.1223
  939YOPC   PO413548   9.731   7.824   5.992  0.1798  0.0299  0.1328
  939YOPC   GL113549   9.890   7.859   6.408 -0.0429  0.1474  0.0463
  939YOPC   GL213550  10.007   7.547   6.404  0.3213  0.0731 -0.3299
  939YOPC   C1A13551   9.828   8.050   6.742 -0.0812 -0.2455 -0.0267
  939YOPC   D2A13552  10.046   8.049   7.098  0.1353 -0.1438  0.0096
  939YOPC   C3A13553   9.909   8.156   7.528  0.3687 -0.1353  0.0936
  939YOPC   C4A13554   9.937   8.436   7.989 -0.0222  0.0453  0.0471
  939YOPC   C1B13555  10.152   7.353   6.746 -0.1208  0.0027 -0.1434
  939YOPC   C2B13556   9.963   7.243   7.186  0.2301 -0.1552  0.2090
  939YOPC   D3B13557   9.965   7.373   7.708  0.0589  0.2679  0.1635
  939YOPC   C4B13558  10.067   7.453   8.135  0.0473  0.1283  0.1271
  940YOPC   NC313559   7.172  10.696   6.052  0.0148  0.4617 -0.1718
  940YOPC   PO413560   7.030  10.254   5.936 -0.1445  0.1907 -0.2449
  940YOPC   GL113561   6.853  10.267   6.341 -0.3009  0.0633 -0.4610
  940YOPC   GL213562   7.105  10.425   6.529  0.0580  0.1062  0.1628
  940YOPC   C1A13563   6.708  10.100   6.766  0.1125  0.2125  0.1395
  940YOPC   D2A13564   6.550  10.250   7.208 -0.0555  0.3691 -0.1443
  940YOPC   C3A13565   6.749  10.569   7.456  0.3998  0.0292  0.0112
  940YOPC   C4A13566   6.681  10.671   7.894 -0.0267 -0.1274 -0.0729
  940YOPC   C1B13567   7.313  10.685   6.720 -0.0463  0.1445  0.3402
  940YOPC   C2B13568   7.409  11.084   6.788 -0.1524  0.1131  0.1362
  940YOPC   D3B13569   7.371  11.348   7.088  0.0065  0.0927 -0.1128
  940YOPC   C4B13570   7.183  11.504   7.572 -0.1707  0.1553 -0.2780
  941YOPC   NC313571   8.549  16.753   5.870 -0.1301  0.2579 -0.0480
  941YOPC   PO413572   8.958  16.837   6.086  0.1026 -0.2653  0.0221
  941YOPC   GL113573   9.030  16.449   6.193  0.1915  0.0342 -0.0171
  941YOPC   GL213574   8.836  16.278   6.083 -0.1125 -0.0378 -0.3828
  941YOPC   C1A13575   9.083  16.360   6.576 -0.0503  0.0963 -0.2094
  941YOPC   D2A13576   9.307  16.235   6.832  0.0874  0.0116  0.1048
  941YOPC   C3A13577   9.277  16.243   7.235  0.1842  0.0861 -0.4165
  941YOPC   C4A13578   9.227  16.196   7.705 -0.0446 -0.0242 -0.1671
  941YOPC   C1B13579   8.726  16.072   6.509  0.1247  0.2263 -0.0857
  941YOPC   C2B13580   8.782  16.107   6.952  0.2496  0.0109  0.0921
  941YOPC   D3B13581   8.906  15.892   7.470  0.0255  0.2115  0.0612
  941YOPC   C4B13582   8.727  16.068   7.807  0.2704 -0.4815  0.2716
  942YOPC   NC313583   7.313  15.155   5.912  0.1480 -0.0872  0.1479
  942YOPC   PO413584   7.167  14.698   5.863 -0.1648 -0.4581 -0.2704
  942YOPC   GL113585   7.365  14.550   6.206  0.1026  0.1073  0.2115
  942YOPC   GL213586   7.593  14.712   6.322  0.0554 -0.0018  0.0060
  942YOPC   C1A13587   7.390  14.355   6.693  0.0035 -0.1133 -0.0243
  942YOPC   D2A13588   7.190  14.397   7.137 -0.3219  0.2759 -0.0688
  942YOPC   C3A13589   6.981  14.771   7.453 -0.0827 -0.0535 -0.0349
  942YOPC   C4A13590   6.634  14.950   7.561  0.1108  0.0409 -0.1733
  942YOPC   C1B13591   7.789  14.693   6.733  0.0255  0.2463 -0.0436
  942YOPC   C2B13592   8.051  14.559   7.076  0.1265 -0.0690  0.1070
  942YOPC   D3B13593   8.235  14.401   7.570 -0.2750 -0.3550 -0.0573
  942YOPC   C4B13594   8.193  14.302   7.983  0.2930  0.0444  0.1896
  943YOPC   NC313595   6.234  15.396   5.305  0.3255  0.2230 -0.1546
  943YOPC   PO413596   6.321  15.294   5.648  0.0219 -0.1813 -0.2110
  943YOPC   GL113597   6.206  15.060   5.995  0.1804  0.3691  0.0793
  943YOPC   GL213598   6.022  15.060   6.269 -0.0223  0.1857  0.0148
  943YOPC   C1A13599   6.477  14.916   6.268  0.0142  0.0470 -0.0078
  943YOPC   D2A13600   6.459  14.811   6.728 -0.0934 -0.2682  0.2089
  943YOPC   C3A13601   6.138  14.630   6.746  0.4009 -0.0415  0.4284
  943YOPC   C4A13602   5.677  14.500   6.589  0.0656 -0.0148  0.0660
  943YOPC   C1B13603   6.071  15.110   6.596 -0.2726  0.1055  0.0169
  943YOPC   C2B13604   5.936  15.420   6.842  0.4542 -0.0075 -0.2759
  943YOPC   D3B13605   6.057  15.491   7.283 -0.1413  0.2227 -0.0777
  943YOPC   C4B13606   6.228  15.259   7.609  0.4951  0.0101 -0.0093
  944YOPC   NC313607   5.007  10.251   5.992 -0.0933 -0.1625 -0.0516
  944YOPC   PO413608   5.410   9.984   6.127  0.1330 -0.2999  0.0527
  944YOPC   GL113609   5.409   9.977   6.656  0.1714  0.0381  0.1844
  944YOPC   GL213610   5.730  10.029   6.854  0.1494 -0.1677 -0.4107
  944YOPC   C1A13611   5.243   9.921   7.156 -0.0263 -0.0613  0.0908
  944YOPC   D2A13612   5.323   9.982   7.536 -0.1609  0.1250  0.1686
  944YOPC   C3A13613   5.408   9.740   7.805 -0.0291  0.1347 -0.0524
  944YOPC   C4A13614   5.530   9.386   7.863  0.2417 -0.1405 -0.0304
  944YOPC   C1B13615   5.644  10.229   7.215  0.2442  0.0475  0.0407
  944YOPC   C2B13616   5.699  10.396   7.568  0.0818  0.0167  0.1504
  944YOPC   D3B13617   5.840  10.686   7.805  0.0526 -0.0997  0.2694
  944YOPC   C4B13618   5.597  11.014   8.108 -0.1324 -0.2598  0.2987
  945YOPC   NC313619   9.677  15.345   5.847 -0.1485  0.1083  0.3182
  945YOPC   PO413620   9.582  15.636   6.189 -0.0122  0.0747  0.0268
  945YOPC   GL113621   9.724  15.289   6.347 -0.1796 -0.4108 -0.0379
  945YOPC   GL213622   9.591  15.024   6.641  0.2077 -0.1616  0.0030
  945YOPC   C1A13623  10.051  15.244   6.641 -0.1836  0.4192 -0.0580
  945YOPC   D2A13624  10.064  15.239   7.056  0.1169  0.2280 -0.1622
  945YOPC   C3A13625   9.813  14.911   7.111  0.0111  0.1419  0.1844
  945YOPC   C4A13626   9.516  14.727   7.463  0.0961  0.0481  0.3065
  945YOPC   C1B13627   9.583  15.367   6.935  0.0655  0.2915 -0.1163
  945YOPC   C2B13628   9.658  15.325   7.386 -0.0805 -0.2632  0.1259
  945YOPC   D3B13629   9.378  15.176   7.724  0.0151  0.0193 -0.0270
  945YOPC   C4B13630   9.108  15.348   8.085  0.0908  0.2237  0.0417
  946YOPC   NC313631  13.898   1.608   5.572  0.1166  0.1309  0.1497
  946YOPC   PO413632  14.251   1.858   5.848 -0.1573  0.0699  0.1686
  946YOPC   GL113633  14.356   1.740   6.264  0.0686 -0.3863  0.0139
  946YOPC   GL213634  14.277   1.426   6.344 -0.0881  0.0072  0.1048
  946YOPC   C1A13635  14.144   1.903   6.637  0.0896  0.0731 -0.0316
  946YOPC   D2A13636  13.926   1.857   7.046 -0.0923  0.2327  0.0665
  946YOPC   C3A13637  13.750   1.888   7.424  0.1705 -0.1430  0.3978
  946YOPC   C4A13638  13.840   1.779   7.776 -0.1183 -0.0714 -0.1166
  946YOPC   C1B13639  14.398   1.521   6.741 -0.2437  0.1395  0.0492
  946YOPC   C2B13640  14.685   1.572   7.004 -0.0983  0.2731  0.0415
  946YOPC   D3B13641  14.984   1.844   6.959 -0.0287 -0.2790  0.2370
  946YOPC   C4B13642  15.224   1.951   7.272 -0.0199 -0.1636  0.0523
  947YOPC   NC313643   0.620  13.654   6.358 -0.3006  0.0559  0.1173
  947YOPC   PO413644   0.456  14.037   6.301  0.1006  0.0769 -0.0238
  947YOPC   GL113645   0.249  13.905   6.717  0.3081  0.0167  0.0407
  947YOPC   GL213646  -0.026  13.768   6.695 -0.0507 -0.0872  0.1319
  947YOPC   C1A13647   0.096  13.964   7.186 -0.0926 -0.2509  0.1591
  947YOPC   D2A13648   0.285  13.969   7.608  0.1306 -0.2055 -0.0953
  947YOPC   C3A13649   0.079  14.058   7.968  0.1544 -0.0107  0.1123
  947YOPC   C4A13650  -0.288  14.055   8.273 -0.2686 -0.2853 -0.0791
  947YOPC   C1B13651  -0.138  13.553   7.050 -0.1504 -0.2763 -0.0605
  947YOPC   C2B13652  -0.124  13.669   7.553 -0.0188  0.2508  0.1567
  947YOPC   D3B13653  -0.411  13.565   7.892  0.2020  0.0619 -0.0548
  947YOPC   C4B13654  -0.587  13.665   8.217  0.0942  0.0926  0.2207
  948YOPC   NC313655   5.498  12.678   5.905 -0.1478 -0.0254 -0.0493
  948YOPC   PO413656   5.183  12.584   6.171  0.1656 -0.2246  0.2401
  948YOPC   GL113657   5.186  12.645   6.598 -0.1404 -0.0905  0.1118
  948YOPC   GL213658   4.887  12.439   6.769  0.1850  0.1599 -0.0925
  948YOPC   C1A13659   5.419  12.474   6.881 -0.2324 -0.1290 -0.1852
  948YOPC   D2A13660   5.883  12.545   6.965 -0.0023  0.1497  0.2797
  948YOPC   C3A13661   6.027  12.613   7.444 -0.1540  0.2650  0.0369
  948YOPC   C4A13662   6.183  12.493   7.754  0.1788  0.0393 -0.1880
  948YOPC   C1B13663   4.819  12.403   7.214  0.0787 -0.2166 -0.1323
  948YOPC   C2B13664   4.863  12.478   7.649  0.0786  0.0867 -0.0433
  948YOPC   D3B13665   4.963  12.820   7.737 -0.1151  0.3650 -0.1841
  948YOPC   C4B13666   5.152  13.173   7.933  0.0726  0.2275  0.2354
  949YOPC   NC313667   2.112   2.507   6.054  0.1875  0.0219  0.0073
  949YOPC   PO413668   2.241   2.706   6.437  0.1581  0.2129  0.2065
  949YOPC   GL113669   2.252   2.382   6.847 -0.0409 -0.1007  0.2223
  949YOPC   GL213670   2.504   2.147   6.807  0.0879  0.0925 -0.2948
  949YOPC   C1A13671   2.089   2.423   7.333  0.3031 -0.1840  0.2158
  949YOPC   D2A13672   1.920   2.575   7.732  0.1402 -0.0926  0.4493
  949YOPC   C3A13673   1.578   2.590   7.988  0.2401 -0.2507 -0.1415
  949YOPC   C4A13674   1.447   2.737   8.400  0.1437  0.0134  0.3361
  949YOPC   C1B13675   2.123   1.968   7.069 -0.1824 -0.3633 -0.1731
  949YOPC   C2B13676   1.862   1.970   7.406  0.2027 -0.0823  0.2737
  949YOPC   D3B13677   1.500   1.861   7.694  0.2006  0.0786  0.1005
  949YOPC   C4B13678   1.207   2.109   7.972  0.2969  0.3305  0.2929
  950YOPC   NC313679   0.953  14.164   6.357 -0.0680  0.0288  0.1457
  950YOPC   PO413680   1.399  14.232   6.257 -0.1921  0.0822 -0.2212
  950YOPC   GL113681   1.627  14.327   6.667 -0.1453 -0.3052  0.1108
  950YOPC   GL213682   1.490  14.429   6.885  0.1935  0.0564  0.0757
  950YOPC   C1A13683   1.925  14.249   7.025  0.2312 -0.3293  0.3430
  950YOPC   D2A13684   2.016  13.996   7.395  0.0296 -0.1178 -0.0519
  950YOPC   C3A13685   2.145  14.061   7.781  0.0100 -0.1034  0.1192
  950YOPC   C4A13686   2.077  14.290   8.170 -0.0119  0.0234  0.3066
  950YOPC   C1B13687   1.423  14.518   7.217  0.3823 -0.3157  0.0138
  950YOPC   C2B13688   1.341  14.617   7.635  0.0765  0.3073  0.0647
  950YOPC   D3B13689   1.578  14.532   7.957 -0.2213 -0.4535  0.0764
  950YOPC   C4B13690   1.448  14.532   8.403  0.0994  0.1433 -0.3242
  951YOPC   NC313691   1.461  12.208   5.986 -0.0472 -0.0361 -0.0042
  951YOPC   PO413692   1.150  12.176   6.220 -0.1080  0.1020 -0.0720
  951YOPC   GL113693   0.989  12.282   6.710  0.1676  0.1454 -0.1270
  951YOPC   GL213694   1.189  12.038   6.712 -0.0395 -0.0113 -0.0289
  951YOPC   C1A13695   0.748  12.448   7.028  0.1186 -0.0634 -0.2667
  951YOPC   D2A13696   0.685  12.735   7.384 -0.0376 -0.2548 -0.0491
  951YOPC   C3A13697   0.273  12.965   7.373 -0.2147 -0.0680 -0.0501
  951YOPC   C4A13698  -0.021  13.209   7.392  0.2512  0.1334 -0.1300
  951YOPC   C1B13699   1.078  12.006   7.139  0.0349  0.0863 -0.0448
  951YOPC   C2B13700   1.028  11.970   7.503  0.1013  0.0034  0.0185
  951YOPC   D3B13701   1.109  12.010   7.908 -0.0943  0.0171 -0.2365
  951YOPC   C4B13702   1.355  12.072   8.203  0.0823  0.1366  0.0968
  952YOPC   NC313703   3.693   1.994   6.541  0.1164  0.0196 -0.0606
  952YOPC   PO413704   3.351   2.300   6.635  0.2116  0.2570 -0.0486
  952YOPC   GL113705   3.069   2.271   6.908 -0.3041  0.0564  0.1094
  952YOPC   GL213706   2.976   1.938   6.859 -0.2629  0.1244 -0.3131
  952YOPC   C1A13707   2.886   2.214   7.318  0.0802 -0.1929 -0.1051
  952YOPC   D2A13708   2.832   2.062   7.778  0.1506  0.0540 -0.0277
  952YOPC   C3A13709   2.571   1.910   8.077 -0.0838 -0.0619 -0.1335
  952YOPC   C4A13710   2.590   1.572   8.445 -0.0991  0.1248 -0.0644
  952YOPC   C1B13711   3.065   1.755   7.189  0.0528  0.2376 -0.0034
  952YOPC   C2B13712   3.075   1.621   7.646  0.4714 -0.2687  0.1273
  952YOPC   D3B13713   3.457   1.524   7.872 -0.0074 -0.3041  0.3613
  952YOPC   C4B13714   3.695   1.350   8.035 -0.1269 -0.0301 -0.1364
  953YOPC   NC313715   4.225   3.834   6.630  0.2514 -0.2206 -0.1967
  953YOPC   PO413716   4.174   4.290   6.518  0.1269 -0.0543 -0.0350
  953YOPC   GL113717   4.162   4.607   6.903 -0.2183  0.2419 -0.1625
  953YOPC   GL213718   4.410   4.786   6.848 -0.0171  0.2182  0.1423
  953YOPC   C1A13719   3.800   4.689   7.135 -0.2511  0.0784 -0.1004
  953YOPC   D2A13720   3.644   5.016   7.313 -0.2123  0.1659  0.1176
  953YOPC   C3A13721   3.585   4.975   7.801 -0.2849 -0.0451 -0.2073
  953YOPC   C4A13722   3.534   5.109   8.240  0.1214 -0.0355  0.1367
  953YOPC   C1B13723   4.462   4.774   7.294 -0.1812  0.2704 -0.2638
  953YOPC   C2B13724   4.084   4.796   7.517 -0.0508  0.4431 -0.0318
  953YOPC   D3B13725   4.090   4.707   7.863 -0.3388 -0.0149 -0.1067
  953YOPC   C4B13726   3.895   4.791   8.274 -0.2072  0.2620 -0.0478
  954YOPC   NC313727  15.178   0.683   6.271  0.0643 -0.2553 -0.0445
  954YOPC   PO413728  15.055   0.988   6.050  0.0795  0.0388 -0.0518
  954YOPC   GL113729  14.885   0.967   6.527  0.0262  0.0069  0.1165
  954YOPC   GL213730  14.629   1.054   6.587  0.0279  0.1094  0.0251
  954YOPC   C1A13731  15.040   0.770   6.940 -0.3191  0.0570  0.0177
  954YOPC   D2A13732  14.842   0.325   7.005 -0.0594  0.0056  0.2114
  954YOPC   C3A13733  14.807   0.222   7.499 -0.1410  0.3256  0.0227
  954YOPC   C4A13734  14.789   0.062   7.949 -0.1885 -0.0140  0.2201
  954YOPC   C1B13735  14.674   1.069   7.019  0.3125 -0.1630  0.0253
  954YOPC   C2B13736  14.700   0.770   7.308 -0.1450 -0.0580  0.1088
  954YOPC   D3B13737  14.370   0.754   7.595  0.1094 -0.0521 -0.0810
  954YOPC   C4B13738  14.173   0.904   8.045 -0.1984  0.0505  0.0302
  955YOPC   NC313739  15.170   6.034   6.725  0.3835 -0.1100  0.2737
  955YOPC   PO413740  15.012   6.325   6.477  0.1194 -0.0462 -0.0824
  955YOPC   GL113741  14.821   6.354   6.936 -0.0779 -0.2167  0.0392
  955YOPC   GL213742  14.513   6.522   6.972 -0.0617  0.2298  0.2436
  955YOPC   C1A13743  14.949   6.404   7.332  0.1250  0.0627  0.1686
  955YOPC   D2A13744  14.771   6.337   7.616 -0.0085  0.0016  0.0053
  955YOPC   C3A13745  14.803   6.288   8.098  0.1276  0.0187  0.3484
  955YOPC   C4A13746  14.915   6.416   8.533 -0.2089 -0.0034 -0.2913
  955YOPC   C1B13747  14.506   6.117   7.254 -0.1790  0.0599 -0.0431
  955YOPC   C2B13748  14.664   5.818   7.586  0.1366 -0.2493 -0.0858
  955YOPC   D3B13749  14.600   5.785   7.984 -0.3227  0.2431 -0.1389
  955YOPC   C4B13750  14.761   5.652   8.348  0.1146  0.2586 -0.1111
  956YOPC   NC313751  16.874  16.618   6.049 -0.0543 -0.1955  0.1662
  956YOPC   PO413752  16.427  16.384   6.074  0.0763  0.0866  0.1294
  956YOPC   GL113753  16.256  16.345   6.506 -0.0588 -0.2512  0.1168
  956YOPC   GL213754  16.098  16.616   6.511 -0.1797  0.1603  0.2551
  956YOPC   C1A13755  16.235  16.478   6.949  0.0995  0.2046 -0.1422
  956YOPC   D2A13756  15.922  16.245   7.213  0.2698  0.2433  0.0956
  956YOPC   C3A13757  15.847  16.292   7.636  0.1099  0.3234 -0.1124
  956YOPC   C4A13758  16.223  16.429   7.965  0.3222 -0.0202 -0.0026
  956YOPC   C1B13759  16.239  16.967   6.821  0.1851  0.1247  0.1191
  956YOPC   C2B13760  15.998  17.189   7.100 -0.0260  0.2498 -0.0295
  956YOPC   D3B13761  16.140  17.308   7.538 -0.2135 -0.1439  0.2136
  956YOPC   C4B13762  16.484  17.086   7.695  0.3074 -0.0791 -0.1225
  957YOPC   NC313763   2.030   6.101   6.728  0.2384  0.2371  0.0638
  957YOPC   PO413764   2.329   6.347   7.015  0.3951 -0.3307  0.1441
  957YOPC   GL113765   2.124   6.461   7.348 -0.3091  0.0438  0.1435
  957YOPC   GL213766   2.229   6.714   7.434  0.3464 -0.0910 -0.3716
  957YOPC   C1A13767   2.057   6.473   7.804  0.0850  0.0225 -0.0731
  957YOPC   D2A13768   1.979   6.430   8.306 -0.0399  0.0286 -0.1111
  957YOPC   C3A13769   1.561   6.449   8.526  0.0543  0.0193  0.1914
  957YOPC   C4A13770   1.316   6.343   8.860  0.0126  0.4482  0.0456
  957YOPC   C1B13771   2.263   6.920   7.837  0.1407 -0.1395 -0.0482
  957YOPC   C2B13772   2.365   6.771   8.235  0.0708  0.1498 -0.2236
  957YOPC   D3B13773   2.755   6.970   8.413 -0.0357  0.2583 -0.0838
  957YOPC   C4B13774   2.757   7.352   8.469 -0.1297  0.0241  0.1333
  958YOPC   NC313775  10.797  13.411   5.974 -0.0675 -0.1650  0.2964
  958YOPC   PO413776  11.178  13.211   6.116 -0.2117 -0.0957  0.1007
  958YOPC   GL113777  11.364  13.006   6.496 -0.0230  0.1881  0.0529
  958YOPC   GL213778  11.711  13.097   6.644  0.1699 -0.1250 -0.1367
  958YOPC   C1A13779  11.240  13.146   6.970  0.1191 -0.1918 -0.1891
  958YOPC   D2A13780  10.936  13.349   7.312 -0.0720  0.1988 -0.1756
  958YOPC   C3A13781  11.025  13.387   7.703  0.2750  0.1784  0.1492
  958YOPC   C4A13782  11.037  13.482   8.187 -0.1381 -0.2516 -0.1601
  958YOPC   C1B13783  11.672  13.035   7.151  0.0751  0.1189 -0.1232
  958YOPC   C2B13784  11.798  12.878   7.497 -0.1023  0.1274 -0.3950
  958YOPC   D3B13785  12.053  12.967   7.860  0.2242 -0.1826 -0.0845
  958YOPC   C4B13786  12.492  13.150   7.913 -0.1346 -0.2198 -0.2122
  959YOPC   NC313787  14.042   6.431   6.516  0.4282 -0.1048  0.2616
  959YOPC   PO413788  13.787   6.234   6.627  0.0873  0.1733  0.0150
  959YOPC   GL113789  13.752   6.346   7.011  0.2463 -0.0644  0.0738
  959YOPC   GL213790  14.074   6.269   7.041 -0.4604  0.0041  0.3238
  959YOPC   C1A13791  13.594   6.435   7.396 -0.1003  0.0279 -0.0510
  959YOPC   D2A13792  13.775   6.632   7.674  0.0805 -0.0716 -0.0265
  959YOPC   C3A13793  13.795   6.663   8.100 -0.2286 -0.2596  0.1879
  959YOPC   C4A13794  13.490   6.904   8.438 -0.2345 -0.1102 -0.1410
  959YOPC   C1B13795  14.070   6.299   7.463 -0.3124  0.1094 -0.1563
  959YOPC   C2B13796  14.308   6.149   7.827  0.0114 -0.0068  0.1191
  959YOPC   D3B13797  14.267   6.408   8.185  0.0187 -0.1904 -0.0141
  959YOPC   C4B13798  14.394   6.544   8.575 -0.1587  0.1401  0.2610
  960YOPC   NC313799  11.750   8.796   6.295 -0.1799  0.0241  0.1129
  960YOPC   PO413800  11.779   8.915   6.600  0.0803  0.0583 -0.1703
  960YOPC   GL113801  11.868   8.760   7.067 -0.2477  0.0093 -0.2107
  960YOPC   GL213802  12.145   8.782   7.316  0.2915 -0.0120 -0.3522
  960YOPC   C1A13803  11.688   8.870   7.476 -0.0023  0.0900 -0.1230
  960YOPC   D2A13804  11.791   9.050   7.941  0.3658 -0.2200 -0.2300
  960YOPC   C3A13805  12.170   8.964   8.147 -0.2226 -0.0442  0.0185
  960YOPC   C4A13806  12.308   8.836   8.520 -0.1567 -0.0617 -0.0182
  960YOPC   C1B13807  12.109   8.693   7.762  0.1747 -0.0033 -0.1675
  960YOPC   C2B13808  12.245   8.377   8.120 -0.3067  0.1732  0.1868
  960YOPC   D3B13809  12.143   8.347   8.569 -0.3189 -0.1047 -0.0592
  960YOPC   C4B13810  12.382   8.235   8.843 -0.0089  0.1347  0.2245
  961YOPC   NC313811  14.882  10.015   6.638  0.0749 -0.2592  0.0030
  961YOPC   PO413812  14.549   9.721   6.659 -0.1330 -0.2178 -0.0185
  961YOPC   GL113813  14.314   9.588   7.012  0.2073  0.1107 -0.2092
  961YOPC   GL213814  14.349   9.262   7.089 -0.4239 -0.3784 -0.0023
  961YOPC   C1A13815  13.984   9.557   7.229 -0.1076 -0.1383 -0.0026
  961YOPC   D2A13816  13.663   9.854   7.230 -0.2063  0.1746  0.0741
  961YOPC   C3A13817  13.677  10.055   7.672  0.1283 -0.1171 -0.0813
  961YOPC   C4A13818  13.761  10.038   8.058 -0.1214 -0.2569  0.2721
  961YOPC   C1B13819  14.285   9.318   7.571 -0.1998 -0.0877 -0.0150
  961YOPC   C2B13820  14.269   9.394   8.066 -0.0178 -0.1234 -0.4408
  961YOPC   D3B13821  13.905   9.595   8.223 -0.1868 -0.0597  0.0538
  961YOPC   C4B13822  13.480   9.819   8.417 -0.0156 -0.2457  0.0013
  962YOPC   NC313823   9.806   1.688   5.701 -0.0135  0.0246  0.1208
  962YOPC   PO413824  10.208   1.720   5.578 -0.1957 -0.2292  0.3999
  962YOPC   GL113825  10.372   1.680   5.958  0.1039 -0.1317  0.1748
  962YOPC   GL213826  10.082   1.558   6.110 -0.0572  0.0417  0.1896
  962YOPC   C1A13827  10.397   1.850   6.278 -0.0956  0.0577 -0.1390
  962YOPC   D2A13828  10.468   2.078   6.657 -0.2362  0.2137 -0.1804
  962YOPC   C3A13829  10.457   1.973   7.106 -0.0204  0.1021  0.4191
  962YOPC   C4A13830  10.561   1.671   7.391  0.0395  0.0933  0.0576
  962YOPC   C1B13831  10.142   1.403   6.485 -0.1218  0.2339 -0.3206
  962YOPC   C2B13832  10.115   1.150   6.823 -0.0435  0.0099 -0.1195
  962YOPC   D3B13833   9.839   0.757   6.772  0.1117 -0.0060  0.3202
  962YOPC   C4B13834   9.737   0.595   7.159  0.2626  0.1230 -0.2144
  963YOPC   NC313835  11.120  14.994   5.660 -0.0945 -0.1450 -0.3566
  963YOPC   PO413836  11.186  14.609   5.904  0.2394 -0.4100  0.0769
  963YOPC   GL113837  11.119  14.783   6.315 -0.2756 -0.0836  0.1971
  963YOPC   GL213838  11.352  15.119   6.402 -0.0182 -0.1291  0.4742
  963YOPC   C1A13839  11.160  14.726   6.738 -0.1239  0.2812 -0.3241
  963YOPC   D2A13840  11.300  14.410   6.905  0.1236 -0.0201 -0.1002
  963YOPC   C3A13841  11.334  13.982   6.753 -0.4461  0.2234  0.3128
  963YOPC   C4A13842  11.113  13.763   7.033 -0.0566  0.0088 -0.2009
  963YOPC   C1B13843  11.330  15.253   6.844 -0.2528  0.1900  0.0237
  963YOPC   C2B13844  11.395  15.350   7.216 -0.0733  0.2456 -0.2729
  963YOPC   D3B13845  11.158  15.350   7.652 -0.2435  0.1229 -0.1673
  963YOPC   C4B13846  11.326  15.239   7.958 -0.0842 -0.1142  0.2045
  964YOPC   NC313847  16.351   0.217   6.014  0.2566 -0.1630  0.1775
  964YOPC   PO413848  16.638  -0.125   6.089  0.0643 -0.3618  0.0092
  964YOPC   GL113849  16.655   0.051   6.473 -0.0144  0.0922  0.1654
  964YOPC   GL213850  16.947   0.234   6.612 -0.3696 -0.0485 -0.2480
  964YOPC   C1A13851  16.381   0.023   6.782 -0.1271  0.0942 -0.0424
  964YOPC   D2A13852  16.253   0.050   7.084 -0.3370 -0.1229 -0.0424
  964YOPC   C3A13853  16.200   0.309   7.456 -0.1154  0.0801  0.1378
  964YOPC   C4A13854  16.167   0.413   7.876 -0.1443  0.1151  0.2033
  964YOPC   C1B13855  16.783   0.174   7.057  0.0988 -0.2883  0.1751
  964YOPC   C2B13856  16.587  -0.018   7.523 -0.1334 -0.1182  0.0206
  964YOPC   D3B13857  16.682   0.164   7.879  0.3759  0.0228 -0.2324
  964YOPC   C4B13858  16.552   0.132   8.337 -0.0268 -0.0302 -0.2641
  965YOPC   NC313859  10.407  12.700   5.971 -0.0365 -0.0903  0.0784
  965YOPC   PO413860  10.022  12.781   6.031 -0.2606 -0.0157  0.0545
  965YOPC   GL113861  10.216  13.017   6.384 -0.1807  0.1479 -0.2581
  965YOPC   GL213862  10.552  13.083   6.300 -0.2200  0.0251  0.0335
  965YOPC   C1A13863  10.276  13.145   6.747 -0.0621 -0.0246 -0.2405
  965YOPC   D2A13864  10.501  13.384   7.066 -0.3764  0.1125  0.1407
  965YOPC   C3A13865  10.537  13.407   7.564  0.0766 -0.2169 -0.1456
  965YOPC   C4A13866  10.590  13.187   7.924 -0.4536  0.1856  0.3071
  965YOPC   C1B13867  10.793  13.122   6.683 -0.1767 -0.1013  0.1760
  965YOPC   C2B13868  10.720  12.899   7.086  0.0427  0.0098  0.3939
  965YOPC   D3B13869  10.898  12.910   7.493  0.2346  0.0705 -0.0619
  965YOPC   C4B13870  11.315  12.910   7.507 -0.1499 -0.2639 -0.2485
  966YOPC   NC313871   8.652  10.265   6.055  0.0053  0.0663 -0.1174
  966YOPC   PO413872   8.970  10.191   6.432 -0.0600  0.1022 -0.0529
  966YOPC   GL113873   9.086  10.238   6.847 -0.0900 -0.1550 -0.0089
  966YOPC   GL213874   9.171   9.868   6.932  0.0917  0.1894  0.1265
  966YOPC   C1A13875   9.251  10.333   7.146 -0.1123 -0.0212 -0.2765
  966YOPC   D2A13876   9.420  10.240   7.492  0.1478 -0.0884 -0.1733
  966YOPC   C3A13877   9.210  10.324   7.881 -0.2802  0.0374 -0.0467
  966YOPC   C4A13878   9.087  10.535   8.201 -0.1648 -0.2172 -0.0622
  966YOPC   C1B13879   9.156   9.878   7.366  0.1514 -0.2698  0.0412
  966YOPC   C2B13880   9.156   9.848   7.775  0.3635 -0.3410  0.2411
  966YOPC   D3B13881   9.372   9.579   7.944  0.1036  0.2762  0.1885
  966YOPC   C4B13882   9.775   9.522   8.016  0.2468 -0.0163 -0.2100
  967YOPC   NC313883  12.230   5.285   6.401 -0.0315 -0.2627 -0.0439
  967YOPC   PO413884  12.351   4.964   6.567  0.1690 -0.2175  0.3032
  967YOPC   GL113885  12.730   5.035   6.831  0.2350  0.1725 -0.1061
  967YOPC   GL213886  12.550   4.755   7.061 -0.1076  0.0729 -0.0942
  967YOPC   C1A13887  12.996   5.054   7.123  0.3210  0.0201 -0.1210
  967YOPC   D2A13888  13.285   4.951   7.307  0.1170  0.0555 -0.1040
  967YOPC   C3A13889  13.709   4.789   7.355 -0.3073  0.0061  0.1831
  967YOPC   C4A13890  14.095   4.744   7.556 -0.0448 -0.1194  0.1526
  967YOPC   C1B13891  12.677   4.843   7.431 -0.3777  0.2483 -0.1863
  967YOPC   C2B13892  12.920   5.028   7.648  0.0930  0.1792  0.0892
  967YOPC   D3B13893  13.123   4.930   7.860 -0.2520  0.0302  0.0669
  967YOPC   C4B13894  13.502   4.793   7.855  0.2564  0.0501  0.1222
  968YOPC   NC313895   1.715   4.369   6.471 -0.1061  0.0279  0.0956
  968YOPC   PO413896   2.041   4.742   6.598  0.0629  0.0329  0.0704
  968YOPC   GL113897   1.904   4.547   7.022  0.1296  0.0199  0.1087
  968YOPC   GL213898   1.632   4.370   7.035  0.0136 -0.0577 -0.0698
  968YOPC   C1A13899   1.816   4.659   7.381  0.1875  0.0851  0.2509
  968YOPC   D2A13900   1.574   4.855   7.729 -0.0569 -0.1414 -0.1205
  968YOPC   C3A13901   1.274   5.124   7.748 -0.0768 -0.3574 -0.0008
  968YOPC   C4A13902   1.119   5.208   8.118 -0.0258  0.0570 -0.1722
  968YOPC   C1B13903   1.668   4.208   7.484  0.1281  0.3500 -0.0532
  968YOPC   C2B13904   1.640   4.047   7.953 -0.0756 -0.1763 -0.3096
  968YOPC   D3B13905   1.576   4.445   8.224 -0.2599  0.0525 -0.1856
  968YOPC   C4B13906   1.265   4.485   8.535 -0.0433  0.3723  0.1298
  969YOPC   NC313907  11.808   9.597   6.219 -0.3448  0.1635  0.1415
  969YOPC   PO413908  12.133   9.730   6.529 -0.0059 -0.1926 -0.0738
  969YOPC   GL113909  12.172   9.675   6.960 -0.0323 -0.2002  0.0709
  969YOPC   GL213910  12.478   9.834   7.116 -0.1337  0.0226 -0.0103
  969YOPC   C1A13911  12.082   9.788   7.355 -0.0952  0.2178 -0.2305
  969YOPC   D2A13912  12.017   9.922   7.802  0.1335 -0.1329 -0.1434
  969YOPC   C3A13913  11.860  10.162   8.187 -0.1215 -0.3598 -0.2914
  969YOPC   C4A13914  11.922  10.553   8.443 -0.0031 -0.4366  0.0814
  969YOPC   C1B13915  12.556   9.926   7.514  0.2223  0.2860 -0.0524
  969YOPC   C2B13916  12.469   9.717   7.905 -0.0092  0.1925 -0.1671
  969YOPC   D3B13917  12.430   9.900   8.304  0.1445  0.0031 -0.0022
  969YOPC   C4B13918  12.645   9.981   8.658 -0.3702 -0.1709 -0.2899
  970YOPC   NC313919   4.331  13.487   6.305 -0.2932 -0.0395 -0.1953
  970YOPC   PO413920   4.375  13.165   6.517 -0.0392  0.0000 -0.1072
  970YOPC   GL113921   4.438  13.445   6.808  0.3096 -0.1497  0.0379
  970YOPC   GL213922   4.410  13.779   6.705 -0.1133 -0.1701 -0.0014
  970YOPC   C1A13923   4.581  13.389   7.200  0.2542  0.1695  0.1471
  970YOPC   D2A13924   4.787  13.218   7.471 -0.1760  0.1155 -0.1472
  970YOPC   C3A13925   5.219  13.257   7.462 -0.1336 -0.3588 -0.0554
  970YOPC   C4A13926   5.509  13.461   7.755 -0.0906 -0.2509  0.2661
  970YOPC   C1B13927   4.581  13.889   7.085  0.3801  0.3704  0.0357
  970YOPC   C2B13928   4.461  14.114   7.493 -0.0773 -0.0564  0.3157
  970YOPC   D3B13929   4.607  13.985   7.890 -0.0646  0.3063  0.0837
  970YOPC   C4B13930   4.576  13.852   8.252  0.3818  0.2251 -0.1609
  971YOPC   NC313931  11.838   6.540   5.985  0.2793 -0.0331 -0.2441
  971YOPC   PO413932  12.179   6.329   6.227 -0.4286  0.0405  0.0052
  971YOPC   GL113933  12.418   6.369   6.699 -0.0927 -0.0652 -0.0761
  971YOPC   GL213934  12.106   6.394   6.852 -0.2846  0.0224  0.0720
  971YOPC   C1A13935  12.530   6.481   7.166 -0.0893 -0.2118  0.2018
  971YOPC   D2A13936  12.410   6.531   7.610  0.1215  0.2756 -0.0275
  971YOPC   C3A13937  12.154   6.746   7.727  0.1141 -0.2511 -0.1603
  971YOPC   C4A13938  12.040   6.824   8.051 -0.0775  0.1564  0.0550
  971YOPC   C1B13939  12.089   6.278   7.324  0.1098 -0.1608  0.2321
  971YOPC   C2B13940  12.172   6.111   7.723 -0.1343  0.0261 -0.1186
  971YOPC   D3B13941  12.367   6.418   8.062  0.0464  0.0106  0.1869
  971YOPC   C4B13942  12.610   6.488   8.401  0.1259 -0.1937  0.0495
  972YOPC   NC313943  16.881  14.625   6.271 -0.0938 -0.1954 -0.0210
  972YOPC   PO413944  17.288  14.414   6.078  0.0418  0.0250 -0.0197
  972YOPC   GL113945  17.257  14.447   6.513 -0.2083  0.1303 -0.0279
  972YOPC   GL213946  17.583  14.329   6.748 -0.2258  0.2096 -0.2716
  972YOPC   C1A13947  17.113  14.720   6.948 -0.0946  0.4386  0.1804
  972YOPC   D2A13948  17.191  14.623   7.434 -0.0268 -0.0163 -0.1357
  972YOPC   C3A13949  17.035  14.972   7.683  0.1163 -0.3902 -0.1915
  972YOPC   C4A13950  16.850  15.118   8.000  0.3786  0.0478  0.0335
  972YOPC   C1B13951  17.587  14.646   7.102  0.0090  0.0994  0.2014
  972YOPC   C2B13952  17.662  14.948   7.332 -0.1474  0.0630 -0.1305
  972YOPC   D3B13953  17.577  14.992   7.728 -0.0683 -0.3790  0.0790
  972YOPC   C4B13954  17.757  14.968   8.181  0.2052  0.0812 -0.2136
  973YOPC   NC313955   6.683   2.911   6.141  0.1794 -0.1184  0.1190
  973YOPC   PO413956   6.450   3.086   6.423 -0.0237  0.1188 -0.1073
  973YOPC   GL113957   6.483   2.665   6.590 -0.1583 -0.0314 -0.2613
  973YOPC   GL213958   6.245   2.631   6.768  0.0406 -0.0323  0.0602
  973YOPC   C1A13959   6.769   2.455   6.934  0.2077  0.1124  0.0743
  973YOPC   D2A13960   7.083   2.320   7.062 -0.1107  0.0695 -0.1832
  973YOPC   C3A13961   7.075   1.879   7.255 -0.0285  0.0427  0.0063
  973YOPC   C4A13962   7.001   1.558   7.062  0.0484  0.4573 -0.1605
  973YOPC   C1B13963   6.356   2.453   7.203 -0.4645  0.0528  0.3687
  973YOPC   C2B13964   6.626   2.543   7.438 -0.1712  0.0852  0.3117
  973YOPC   D3B13965   7.035   2.830   7.343  0.1503 -0.0672  0.0381
  973YOPC   C4B13966   7.534   2.854   7.331  0.1743  0.1288 -0.1643
  974YOPC   NC313967  13.992  16.923   5.898 -0.1051 -0.2711  0.1246
  974YOPC   PO413968  14.123  17.260   6.113  0.1003 -0.0916  0.1277
  974YOPC   GL113969  13.870  17.124   6.492 -0.0305 -0.1528 -0.3695
  974YOPC   GL213970  13.955  17.280   6.785 -0.2190 -0.0795  0.3258
  974YOPC   C1A13971  13.551  16.856   6.751 -0.0010  0.0687  0.1563
  974YOPC   D2A13972  13.127  16.899   6.687  0.1516 -0.3420  0.1790
  974YOPC   C3A13973  12.745  16.830   6.897  0.1168 -0.0860  0.0942
  974YOPC   C4A13974  12.529  16.606   7.098 -0.0365 -0.0103 -0.3205
  974YOPC   C1B13975  13.878  17.391   7.228  0.1154 -0.0246  0.1544
  974YOPC   C2B13976  13.958  17.652   7.475 -0.1427  0.1376 -0.0719
  974YOPC   D3B13977  13.919  17.616   7.985 -0.1820 -0.0601 -0.0226
  974YOPC   C4B13978  13.668  17.491   8.343 -0.0764  0.1160  0.2927
  975YOPC   NC313979  14.732  13.144   5.856 -0.0514 -0.0449  0.0807
  975YOPC   PO413980  14.513  13.292   5.887 -0.1138 -0.3435 -0.0724
  975YOPC   GL113981  14.424  13.343   6.234 -0.3490  0.0846 -0.2068
  975YOPC   GL213982  14.288  13.158   6.517  0.0921  0.3554  0.0077
  975YOPC   C1A13983  14.764  13.568   6.542  0.0178  0.0310 -0.0910
  975YOPC   D2A13984  15.012  13.742   6.896  0.1328 -0.0442 -0.2467
  975YOPC   C3A13985  14.836  14.119   6.877  0.0283 -0.0474 -0.1074
  975YOPC   C4A13986  14.878  14.523   6.653  0.0328 -0.1156  0.0191
  975YOPC   C1B13987  14.296  13.369   6.914  0.1540  0.1091  0.1889
  975YOPC   C2B13988  14.429  13.765   7.152 -0.1834  0.2936  0.2376
  975YOPC   D3B13989  14.207  14.071   7.392  0.3057 -0.3164  0.0730
  975YOPC   C4B13990  14.106  14.354   7.788 -0.2988  0.2140  0.2175
  976YOPC   NC313991   2.986   6.410   6.675  0.1474 -0.0785 -0.0873
  976YOPC   PO413992   2.655   6.705   6.508 -0.0596 -0.1672 -0.2236
  976YOPC   GL113993   2.601   6.778   6.971  0.1993  0.3027  0.1764
  976YOPC   GL213994   2.816   6.575   7.145 -0.0541 -0.4526  0.0908
  976YOPC   C1A13995   2.650   7.160   7.238  0.1899 -0.0085 -0.0821
  976YOPC   D2A13996   2.747   7.034   7.742 -0.2387 -0.0658  0.0474
  976YOPC   C3A13997   2.952   7.283   8.028 -0.1171 -0.2730  0.1829
  976YOPC   C4A13998   3.288   7.336   8.380  0.0349 -0.1929  0.2075
  976YOPC   C1B13999   2.741   6.556   7.532 -0.2966  0.2319 -0.1388
  976YOPC   C2B14000   2.783   6.599   7.968  0.0558 -0.2097 -0.2116
  976YOPC   D3B14001   2.863   6.471   8.423  0.1587  0.1645  0.0337
  976YOPC   C4B14002   3.145   6.373   8.691  0.0356  0.1552 -0.2263
  977YOPC   NC314003   6.280   4.213   6.260  0.0297 -0.0534 -0.2461
  977YOPC   PO414004   6.691   4.056   6.196  0.1904  0.2388 -0.0509
  977YOPC   GL114005   6.587   4.053   6.655  0.0281 -0.1075 -0.0250
  977YOPC   GL214006   6.516   3.721   6.752  0.1233 -0.1713 -0.0223
  977YOPC   C1A14007   6.334   3.984   7.135 -0.0148 -0.0112 -0.1878
  977YOPC   D2A14008   6.384   3.885   7.551  0.0367  0.0665  0.2130
  977YOPC   C3A14009   6.397   4.120   7.953  0.0839  0.1856 -0.3189
  977YOPC   C4A14010   6.677   4.015   8.268  0.0952  0.0202 -0.2172
  977YOPC   C1B14011   6.475   3.539   7.048 -0.2274  0.0608  0.1055
  977YOPC   C2B14012   6.330   3.410   7.544 -0.0570  0.0012  0.0174
  977YOPC   D3B14013   6.248   3.631   7.945  0.1628  0.0634  0.1694
  977YOPC   C4B14014   6.035   3.320   8.326 -0.2760  0.0799 -0.0191
  978YOPC   NC314015  10.437  10.046   5.736  0.1371 -0.1868  0.0717
  978YOPC   PO414016  10.661   9.809   6.113 -0.1417  0.1595  0.0143
  978YOPC   GL114017  10.641  10.019   6.515  0.0799 -0.0844  0.1186
  978YOPC   GL214018  10.921  10.157   6.645  0.0240  0.0156 -0.2648
  978YOPC   C1A14019  10.601   9.910   6.941  0.0382 -0.1018  0.1002
  978YOPC   D2A14020  10.531   9.878   7.327  0.2016 -0.2621 -0.3168
  978YOPC   C3A14021  10.457  10.292   7.499 -0.0176 -0.2442 -0.0003
  978YOPC   C4A14022  10.294  10.679   7.665  0.2045 -0.3881  0.0229
  978YOPC   C1B14023  10.839  10.329   7.012  0.2771  0.0336  0.1040
  978YOPC   C2B14024  10.897  10.631   7.347  0.1488  0.2113 -0.0145
  978YOPC   D3B14025  10.849  10.561   7.802  0.0680  0.0349 -0.0864
  978YOPC   C4B14026  11.010  10.275   8.102  0.0294 -0.0022 -0.2633
  979YOPC   NC314027   0.733   8.721   6.659  0.0237 -0.0948 -0.2380
  979YOPC   PO414028   0.372   8.616   6.420  0.1242 -0.2692 -0.2255
  979YOPC   GL114029   0.242   8.775   6.931 -0.2402 -0.2677 -0.0657
  979YOPC   GL214030   0.578   8.897   7.099  0.0373 -0.0462 -0.0465
  979YOPC   C1A14031   0.111   8.744   7.378 -0.3215 -0.0741 -0.1383
  979YOPC   D2A14032   0.368   8.613   7.808  0.0254 -0.2090 -0.0098
  979YOPC   C3A14033   0.367   8.393   8.206  0.1869 -0.3358  0.1996
  979YOPC   C4A14034   0.547   8.058   8.548 -0.0098 -0.1409  0.0479
  979YOPC   C1B14035   0.781   8.918   7.582 -0.2307 -0.0838  0.3817
  979YOPC   C2B14036   0.819   8.875   8.104  0.2576 -0.0150 -0.1990
  979YOPC   D3B14037   0.448   8.989   8.368 -0.1897 -0.2242 -0.3230
  979YOPC   C4B14038   0.151   9.209   8.552 -0.0790 -0.2737  0.4313
  980YOPC   NC314039   9.291   6.966   5.973  0.3366 -0.0154 -0.1435
  980YOPC   PO414040   9.276   7.271   6.355 -0.0302 -0.0269  0.0794
  980YOPC   GL114041   9.577   7.370   6.592  0.0947 -0.2355  0.2093
  980YOPC   GL214042   9.824   7.022   6.737 -0.4119  0.3730  0.2752
  980YOPC   C1A14043   9.715   7.641   6.959  0.0498 -0.1292  0.1086
  980YOPC   D2A14044   9.696   7.790   7.324  0.1218  0.0236 -0.2689
  980YOPC   C3A14045   9.567   7.683   7.785  0.1588  0.1681 -0.0025
  980YOPC   C4A14046   9.504   7.288   8.029 -0.0081 -0.4192  0.2188
  980YOPC   C1B14047   9.518   6.965   7.104 -0.0747 -0.0077  0.0954
  980YOPC   C2B14048   9.296   6.697   7.321 -0.0085 -0.0025 -0.3166
  980YOPC   D3B14049   9.325   6.468   7.743 -0.2304  0.0156  0.0949
  980YOPC   C4B14050   8.846   6.483   7.900 -0.2015 -0.0787 -0.2397
  981YOPC   NC314051  10.609   6.626   5.994 -0.1778  0.2610 -0.0908
  981YOPC   PO414052  10.854   6.401   6.251 -0.2186 -0.4770 -0.0321
  981YOPC   GL114053  10.736   6.433   6.713 -0.1218 -0.1459  0.0870
  981YOPC   GL214054  10.879   6.208   6.727  0.1323  0.1359 -0.5260
  981YOPC   C1A14055  10.821   6.582   7.082 -0.1013 -0.1841  0.0478
  981YOPC   D2A14056  10.824   6.823   7.322  0.1799 -0.2883  0.1417
  981YOPC   C3A14057  10.797   6.722   7.751 -0.1838 -0.4843  0.2012
  981YOPC   C4A14058  10.571   6.975   8.050 -0.2414 -0.1126 -0.0087
  981YOPC   C1B14059  11.101   6.103   7.012  0.2738  0.0731  0.1090
  981YOPC   C2B14060  11.284   5.978   7.385 -0.3632 -0.0933 -0.1981
  981YOPC   D3B14061  11.238   6.374   7.692  0.1762  0.2163 -0.1365
  981YOPC   C4B14062  11.158   6.434   8.136 -0.1372  0.0396 -0.1531
  982YOPC   NC314063  12.441  11.379   6.418 -0.0631 -0.0411  0.1672
  982YOPC   PO414064  12.714  11.018   6.375  0.3534  0.0597 -0.1322
  982YOPC   GL114065  12.801  11.190   6.801 -0.0678 -0.0341 -0.1211
  982YOPC   GL214066  12.666  11.503   6.875  0.0217  0.0172 -0.0661
  982YOPC   C1A14067  13.015  11.364   7.230  0.4363  0.1969  0.1033
  982YOPC   D2A14068  13.223  11.509   7.514 -0.2002 -0.0186  0.2148
  982YOPC   C3A14069  13.249  11.737   7.925  0.3908 -0.0552  0.1565
  982YOPC   C4A14070  13.420  11.996   8.162  0.2204  0.2102 -0.2292
  982YOPC   C1B14071  12.521  11.302   7.248 -0.0461  0.3162 -0.2579
  982YOPC   C2B14072  12.239  11.059   7.466 -0.0774  0.1433  0.0269
  982YOPC   D3B14073  12.316  10.658   7.536  0.1249 -0.2345 -0.0362
  982YOPC   C4B14074  12.226  10.303   7.343 -0.0853  0.0454  0.2754
  983YOPC   NC314075   8.680   0.225   5.804  0.4763 -0.1942  0.3424
  983YOPC   PO414076   8.883   0.676   5.769  0.0048 -0.0050  0.0011
  983YOPC   GL114077   8.714   0.542   6.196  0.2134 -0.0678  0.2231
  983YOPC   GL214078   8.967   0.541   6.410 -0.0211  0.1823 -0.0718
  983YOPC   C1A14079   8.520   0.453   6.576 -0.1463  0.3684 -0.0437
  983YOPC   D2A14080   8.421   0.008   6.823  0.0669 -0.2955  0.1623
  983YOPC   C3A14081   8.665  -0.257   7.036  0.0624  0.1583  0.3719
  983YOPC   C4A14082   8.971  -0.553   7.137  0.0644  0.1296  0.0200
  983YOPC   C1B14083   8.885   0.627   6.876  0.0400  0.1116  0.0858
  983YOPC   C2B14084   9.006   0.588   7.273 -0.0856  0.1327 -0.0798
  983YOPC   D3B14085   9.405   0.785   7.511  0.1116  0.0981 -0.0916
  983YOPC   C4B14086   9.531   0.857   7.979 -0.3231 -0.2519  0.0676
  984YOPC   NC314087   2.410  17.251   6.551  0.2678  0.2050  0.3154
  984YOPC   PO414088   2.661  17.588   6.820  0.2561 -0.1357  0.0334
  984YOPC   GL114089   2.756  17.267   6.936  0.0393 -0.2162 -0.0372
  984YOPC   GL214090   2.628  17.324   7.220  0.0271 -0.2801 -0.0985
  984YOPC   C1A14091   2.922  16.884   7.225  0.0895  0.1382 -0.2057
  984YOPC   D2A14092   2.882  16.696   7.554 -0.0271 -0.0064  0.0685
  984YOPC   C3A14093   2.839  16.985   7.885 -0.0793 -0.1794 -0.3565
  984YOPC   C4A14094   2.857  17.242   8.146 -0.1445  0.3705 -0.4830
  984YOPC   C1B14095   2.492  17.333   7.695  0.1550  0.1870  0.2396
  984YOPC   C2B14096   2.334  17.144   8.052  0.2553  0.2691 -0.4105
  984YOPC   D3B14097   2.440  16.894   8.276  0.0239  0.1893 -0.2463
  984YOPC   C4B14098   2.441  16.519   8.563 -0.1470 -0.1672  0.2706
  985YOPC   NC314099  11.227   0.102   5.996 -0.0242  0.1796  0.1118
  985YOPC   PO414100  10.730   0.324   5.939 -0.1053  0.1005 -0.2480
  985YOPC   GL114101  10.730   0.395   6.343 -0.1204  0.1207 -0.0098
  985YOPC   GL214102  11.021   0.226   6.427  0.0803 -0.1386 -0.0238
  985YOPC   C1A14103  10.789   0.406   6.862 -0.0778 -0.0544  0.4266
  985YOPC   D2A14104  10.859   0.695   7.220 -0.1726 -0.0792  0.2993
  985YOPC   C3A14105  10.894   0.800   7.674 -0.0021 -0.1233 -0.0103
  985YOPC   C4A14106  10.868   1.061   7.954  0.1476  0.0005 -0.0125
  985YOPC   C1B14107  11.133   0.002   6.797  0.2077  0.0960  0.0229
  985YOPC   C2B14108  10.964  -0.218   7.199 -0.1966  0.1035 -0.0011
  985YOPC   D3B14109  11.102  -0.622   7.501 -0.0576 -0.3166  0.0263
  985YOPC   C4B14110  11.015  -1.030   7.592 -0.1770  0.2260 -0.0734
  986YOPC   NC314111   0.906  15.512   5.558  0.2955 -0.0812 -0.0310
  986YOPC   PO414112   1.053  15.595   5.937 -0.0183  0.2067  0.1105
  986YOPC   GL114113   1.097  15.561   6.381  0.1637  0.2567 -0.0705
  986YOPC   GL214114   1.193  15.321   6.373 -0.0140  0.0139  0.0595
  986YOPC   C1A14115   1.196  15.647   6.826 -0.0465 -0.1064  0.3014
  986YOPC   D2A14116   1.588  15.834   7.113 -0.1950  0.1110 -0.1131
  986YOPC   C3A14117   1.362  15.891   7.439  0.1357 -0.0248 -0.0176
  986YOPC   C4A14118   1.104  16.060   7.779 -0.2662  0.1529  0.1247
  986YOPC   C1B14119   1.286  15.138   6.820 -0.0062 -0.2196  0.0687
  986YOPC   C2B14120   1.435  15.365   7.261  0.1546  0.3107 -0.0491
  986YOPC   D3B14121   1.337  15.156   7.552  0.0435 -0.0459  0.1001
  986YOPC   C4B14122   1.459  15.136   8.006 -0.0344  0.1668  0.0825
  987YOPC   NC314123   4.827  11.143   6.386 -0.0328  0.1195 -0.1157
  987YOPC   PO414124   4.882  10.728   6.518  0.0643 -0.4045  0.1286
  987YOPC   GL114125   5.208  10.570   6.900 -0.1476  0.0902 -0.0748
  987YOPC   GL214126   5.536  10.586   6.874  0.0256  0.1446  0.0223
  987YOPC   C1A14127   5.117  10.436   7.329  0.0432 -0.1534  0.1042
  987YOPC   D2A14128   5.197  10.535   7.727 -0.1511  0.3139 -0.1659
  987YOPC   C3A14129   5.105  10.903   7.903 -0.2242  0.0420  0.1760
  987YOPC   C4A14130   5.171  11.196   8.086  0.0536 -0.0143 -0.2039
  987YOPC   C1B14131   5.587  10.806   7.139  0.0215  0.1816  0.2106
  987YOPC   C2B14132   5.480  10.925   7.540 -0.0054  0.1901 -0.1135
  987YOPC   D3B14133   5.434  11.293   7.662 -0.3675 -0.1686 -0.0705
  987YOPC   C4B14134   5.659  11.528   8.027  0.0189 -0.1851  0.0070
  988YOPC   NC314135   1.629   1.505   5.990  0.0630  0.1707 -0.2857
  988YOPC   PO414136   1.364   1.692   6.397 -0.0816 -0.0092  0.3999
  988YOPC   GL114137   1.242   1.719   6.860  0.3676 -0.1375 -0.1612
  988YOPC   GL214138   1.071   1.911   6.923 -0.1849  0.0872  0.0267
  988YOPC   C1A14139   1.277   1.557   7.322 -0.2331 -0.1275 -0.4042
  988YOPC   D2A14140   1.535   1.363   7.677 -0.4353  0.2372 -0.1187
  988YOPC   C3A14141   1.516   1.537   8.070  0.0672  0.1455  0.1630
  988YOPC   C4A14142   1.542   1.409   8.486  0.2410  0.2279 -0.3022
  988YOPC   C1B14143   0.765   1.714   7.249 -0.0310  0.2555 -0.2674
  988YOPC   C2B14144   0.584   1.792   7.566 -0.0514 -0.1561  0.1988
  988YOPC   D3B14145   0.611   1.464   7.956  0.2508  0.3549 -0.2170
  988YOPC   C4B14146   0.636   1.467   8.397 -0.0762  0.1442 -0.3052
  989YOPC   NC314147  11.863   0.709   5.542 -0.0202 -0.0675 -0.0908
  989YOPC   PO414148  11.786   0.429   5.901  0.2018 -0.0069  0.3885
  989YOPC   GL114149  11.513   0.405   6.249  0.2759  0.1778  0.1244
  989YOPC   GL214150  11.870   0.481   6.420 -0.0214 -0.1383  0.2986
  989YOPC   C1A14151  11.410   0.468   6.671 -0.0950  0.1295 -0.2770
  989YOPC   D2A14152  11.550   0.615   7.029 -0.1516 -0.3430  0.1879
  989YOPC   C3A14153  11.387   0.653   7.554 -0.3559  0.1124 -0.0101
  989YOPC   C4A14154  11.323   0.779   7.982 -0.0988 -0.1073  0.0514
  989YOPC   C1B14155  11.934   0.486   6.742  0.4665  0.0566  0.0199
  989YOPC   C2B14156  12.025   0.302   7.106 -0.0146  0.0256 -0.0046
  989YOPC   D3B14157  11.733   0.262   7.516 -0.0567  0.1383  0.0422
  989YOPC   C4B14158  11.710   0.449   7.912  0.0081  0.2340 -0.0557
  990YOPC   NC314159   0.212  15.333   6.221  0.1198 -0.1995  0.1475
  990YOPC   PO414160   0.654  15.341   6.323 -0.3021  0.0270 -0.1640
  990YOPC   GL114161   0.804  15.247   6.744  0.0835  0.0277  0.0405
  990YOPC   GL214162   0.827  14.905   6.872  0.4863  0.3413 -0.1269
  990YOPC   C1A14163   0.923  15.242   7.199  0.3396 -0.0348 -0.0618
  990YOPC   D2A14164   0.915  15.455   7.512 -0.1082 -0.2874  0.0072
  990YOPC   C3A14165   1.273  15.557   7.813 -0.1856 -0.1305  0.1538
  990YOPC   C4A14166   1.355  15.801   8.161  0.0322 -0.0098  0.2317
  990YOPC   C1B14167   0.981  14.784   7.318 -0.1723 -0.2649 -0.1771
  990YOPC   C2B14168   0.881  14.902   7.823  0.2110  0.1425  0.0410
  990YOPC   D3B14169   1.085  14.697   8.122 -0.4043  0.0892 -0.0425
  990YOPC   C4B14170   1.073  14.208   8.185  0.2608  0.2422 -0.0329
  991YOPC   NC314171  12.736   7.496   6.268  0.0242  0.0842 -0.0002
  991YOPC   PO414172  12.340   7.183   6.430  0.0011 -0.1830 -0.1593
  991YOPC   GL114173  12.121   7.194   6.869  0.2395 -0.2949 -0.2747
  991YOPC   GL214174  12.045   6.968   7.008 -0.0919  0.1355 -0.0698
  991YOPC   C1A14175  12.096   7.517   7.218  0.2833 -0.4555  0.0935
  991YOPC   D2A14176  12.225   7.562   7.576 -0.0910 -0.0382  0.2498
  991YOPC   C3A14177  12.118   7.308   7.931 -0.2357 -0.0055 -0.0545
  991YOPC   C4A14178  11.737   7.189   8.088  0.2124  0.0309  0.1452
  991YOPC   C1B14179  11.635   7.274   7.051  0.0444  0.0249  0.2510
  991YOPC   C2B14180  11.287   7.612   7.080  0.0547 -0.0011  0.1068
  991YOPC   D3B14181  11.261   7.828   7.369 -0.0257 -0.3216  0.0830
  991YOPC   C4B14182  11.312   7.990   7.806 -0.0755 -0.2329  0.3140
  992YOPC   NC314183  17.194  15.058   5.569 -0.4784 -0.2102  0.1653
  992YOPC   PO414184  16.900  15.139   5.959  0.0660 -0.1016  0.0134
  992YOPC   GL114185  16.859  15.173   6.368  0.0172 -0.1541  0.0712
  992YOPC   GL214186  17.084  14.993   6.570  0.1967 -0.2905  0.0246
  992YOPC   C1A14187  16.677  15.243   6.754  0.0198  0.0744  0.2605
  992YOPC   D2A14188  16.225  15.082   6.829 -0.3451  0.0330  0.0488
  992YOPC   C3A14189  16.178  14.895   7.321  0.0694  0.0928 -0.0898
  992YOPC   C4A14190  15.840  14.835   7.526  0.0572 -0.0862 -0.1035
  992YOPC   C1B14191  16.644  14.709   6.788 -0.1795 -0.0248 -0.0616
  992YOPC   C2B14192  16.279  14.490   7.009 -0.1997 -0.1864 -0.1689
  992YOPC   D3B14193  16.158  14.417   7.452  0.0896  0.1773 -0.2082
  992YOPC   C4B14194  16.223  14.672   7.804 -0.1668  0.5456 -0.2257
  993YOPC   NC314195   4.789   6.089   6.166 -0.1953 -0.2328  0.0639
  993YOPC   PO414196   5.091   5.894   6.457  0.1300  0.0347  0.0837
  993YOPC   GL114197   4.976   5.647   6.758 -0.1054 -0.0150 -0.1447
  993YOPC   GL214198   5.096   5.392   6.916 -0.2006 -0.0978  0.0257
  993YOPC   C1A14199   4.753   5.663   7.188 -0.3394 -0.0087  0.0675
  993YOPC   D2A14200   4.603   5.701   7.597 -0.1564 -0.2289 -0.0481
  993YOPC   C3A14201   4.595   5.851   8.023  0.2174  0.0988  0.1788
  993YOPC   C4A14202   4.749   5.814   8.414 -0.2198 -0.2804  0.1461
  993YOPC   C1B14203   5.324   5.579   7.267 -0.0686  0.0410 -0.0571
  993YOPC   C2B14204   5.326   5.702   7.724  0.2513  0.0947 -0.2103
  993YOPC   D3B14205   5.035   5.453   7.904  0.2429  0.1946  0.1066
  993YOPC   C4B14206   4.588   5.370   8.018  0.2784 -0.0780  0.0847
  994YOPC   NC314207  12.227  16.739   6.277  0.0262  0.0229 -0.1564
  994YOPC   PO414208  12.562  16.477   6.132  0.1143 -0.4069  0.0987
  994YOPC   GL114209  12.440  16.417   6.644  0.2380  0.1437  0.0852
  994YOPC   GL214210  12.481  16.095   6.714  0.0147  0.2300  0.2848
  994YOPC   C1A14211  12.053  16.514   6.947 -0.0287  0.1839 -0.0466
  994YOPC   D2A14212  12.124  16.651   7.387 -0.0380 -0.2054 -0.0837
  994YOPC   C3A14213  11.993  16.494   7.743 -0.1513 -0.0160  0.0180
  994YOPC   C4A14214  11.767  16.307   8.091  0.2032 -0.1065  0.3124
  994YOPC   C1B14215  12.318  16.083   7.209  0.0461 -0.2876 -0.0787
  994YOPC   C2B14216  12.238  15.962   7.570 -0.0059  0.0493  0.1997
  994YOPC   D3B14217  12.539  15.809   7.887 -0.2076 -0.2410  0.0594
  994YOPC   C4B14218  12.858  15.698   8.163  0.1500  0.2600 -0.2732
  995YOPC   NC314219   7.110  12.348   5.598 -0.0774 -0.2021  0.1423
  995YOPC   PO414220   6.872  12.165   5.799  0.2443 -0.0353 -0.3457
  995YOPC   GL114221   6.890  12.059   6.235  0.1843  0.1577  0.1775
  995YOPC   GL214222   6.658  11.979   6.371 -0.1151 -0.0152 -0.0384
  995YOPC   C1A14223   7.013  12.213   6.628  0.0064  0.1527 -0.1060
  995YOPC   D2A14224   7.187  12.105   7.016  0.1346  0.0262 -0.1389
  995YOPC   C3A14225   7.302  12.278   7.444 -0.0998 -0.1850 -0.1200
  995YOPC   C4A14226   7.038  12.272   7.870 -0.1365  0.3638  0.0246
  995YOPC   C1B14227   6.506  11.874   6.715  0.0249 -0.0913  0.2120
  995YOPC   C2B14228   6.659  12.100   7.088 -0.1507  0.1468 -0.0124
  995YOPC   D3B14229   6.385  12.074   7.487  0.0240 -0.0985 -0.0257
  995YOPC   C4B14230   6.487  12.044   7.869  0.1181 -0.1301 -0.0753
  996YOPC   NC314231  15.089  14.959   5.501  0.1091 -0.1289 -0.0519
  996YOPC   PO414232  15.468  15.119   5.736  0.0699 -0.0613 -0.1325
  996YOPC   GL114233  15.583  15.257   6.224 -0.0227 -0.0400  0.1030
  996YOPC   GL214234  15.465  15.626   6.311 -0.0326 -0.1344 -0.0300
  996YOPC   C1A14235  15.608  15.227   6.629 -0.2802 -0.0229  0.0395
  996YOPC   D2A14236  15.697  14.980   7.031  0.2031 -0.0894  0.0037
  996YOPC   C3A14237  15.856  15.302   7.337 -0.0446 -0.1522  0.0280
  996YOPC   C4A14238  15.863  15.315   7.817 -0.0855  0.0587 -0.0821
  996YOPC   C1B14239  15.701  15.682   6.631  0.1041  0.2480 -0.1283
  996YOPC   C2B14240  15.777  15.770   7.126  0.2119  0.1543 -0.1169
  996YOPC   D3B14241  15.898  15.782   7.552 -0.1439 -0.0585 -0.1317
  996YOPC   C4B14242  15.634  15.787   7.970  0.0396  0.1233  0.3072
  997YOPC   NC314243   4.256   8.635   6.585 -0.0010  0.0199 -0.3800
  997YOPC   PO414244   4.071   8.275   6.620 -0.0766  0.2580 -0.0941
  997YOPC   GL114245   4.172   8.383   7.067  0.1360  0.1751 -0.0728
  997YOPC   GL214246   4.017   8.605   7.385  0.0799  0.1457  0.0169
  997YOPC   C1A14247   4.256   8.138   7.378  0.0591  0.6081  0.2917
  997YOPC   D2A14248   4.606   8.055   7.565  0.2186  0.0972  0.0590
  997YOPC   C3A14249   4.613   8.032   7.965  0.1717  0.1006  0.1666
  997YOPC   C4A14250   4.636   8.124   8.333  0.1444  0.1332  0.1776
  997YOPC   C1B14251   3.873   8.742   7.775 -0.1055  0.1581 -0.1959
  997YOPC   C2B14252   3.964   8.763   8.163  0.0478  0.2520  0.1140
  997YOPC   D3B14253   3.692   8.374   8.207  0.0959  0.1891 -0.0507
  997YOPC   C4B14254   3.652   7.997   8.439  0.0542  0.3008 -0.1433
  998YOPC   NC314255   5.758  11.321   6.407 -0.0509  0.1119 -0.1063
  998YOPC   PO414256   5.360  11.350   6.310  0.0837  0.2210  0.0278
  998YOPC   GL114257   5.175  11.309   6.717  0.0502 -0.0992  0.1686
  998YOPC   GL214258   4.939  11.175   6.867 -0.0625 -0.2123 -0.1170
  998YOPC   C1A14259   5.416  11.291   7.031 -0.0486 -0.1333  0.0599
  998YOPC   D2A14260   5.402  11.643   7.339  0.1225 -0.0694 -0.2586
  998YOPC   C3A14261   5.777  11.744   7.540 -0.0101  0.0186 -0.3637
  998YOPC   C4A14262   6.005  11.965   7.840  0.1474  0.1043 -0.0612
  998YOPC   C1B14263   4.999  11.193   7.334  0.1070 -0.0279 -0.1334
  998YOPC   C2B14264   4.807  11.278   7.713  0.0051 -0.0695  0.2687
  998YOPC   D3B14265   5.008  11.568   7.825  0.1642 -0.0698  0.0567
  998YOPC   C4B14266   4.824  11.967   7.937 -0.1097 -0.0122  0.1005
  999YOPC   NC314267   1.892   5.183   6.825 -0.3315  0.1441  0.2734
  999YOPC   PO414268   1.837   5.624   6.824  0.1644 -0.4452 -0.1881
  999YOPC   GL114269   1.772   5.514   7.213 -0.1926  0.1462 -0.0018
  999YOPC   GL214270   1.971   5.236   7.331 -0.0719 -0.0632  0.0111
  999YOPC   C1A14271   1.697   5.368   7.712 -0.2884 -0.0949  0.3596
  999YOPC   D2A14272   1.640   5.297   8.069  0.0966 -0.2680 -0.1812
  999YOPC   C3A14273   1.765   5.486   8.479  0.0739  0.4142 -0.0637
  999YOPC   C4A14274   1.593   5.474   8.892 -0.0262 -0.3396  0.1729
  999YOPC   C1B14275   2.180   5.410   7.611  0.0225 -0.0054  0.1281
  999YOPC   C2B14276   2.125   5.345   8.044 -0.2333  0.0200 -0.1174
  999YOPC   D3B14277   2.138   5.229   8.381 -0.1155  0.1624  0.1923
  999YOPC   C4B14278   2.481   5.184   8.794  0.1143  0.0963  0.0375
 1000YOPC   NC314279   3.528  13.870   6.011 -0.0341 -0.0080 -0.2057
 1000YOPC   PO414280   3.480  14.329   6.035 -0.1265 -0.1620 -0.1468
 1000YOPC   GL114281   3.520  14.590   6.360 -0.1861  0.2257 -0.0084
 1000YOPC   GL214282   3.340  14.963   6.361 -0.1904  0.0480 -0.2376
 1000YOPC   C1A14283   3.670  14.528   6.849 -0.0560 -0.0223  0.0120
 1000YOPC   D2A14284   3.587  14.326   7.187  0.0014  0.1389 -0.1655
 1000YOPC   C3A14285   3.579  13.916   7.242  0.0852 -0.0151  0.1632
 1000YOPC   C4A14286   3.403  13.664   7.118 -0.2026  0.2740  0.2262
 1000YOPC   C1B14287   3.247  14.898   6.728 -0.0235 -0.2174  0.0198
 1000YOPC   C2B14288   3.088  14.628   6.996 -0.1154  0.1756  0.1105
 1000YOPC   D3B14289   3.228  14.721   7.446 -0.0167 -0.0632  0.1931
 1000YOPC   C4B14290   3.244  14.633   7.901  0.0428 -0.0951  0.0692
 1001YOPC   NC314291  13.834  10.214   6.092 -0.2243  0.2588  0.2462
 1001YOPC   PO414292  13.859  10.289   6.508  0.1929 -0.0928 -0.0908
 1001YOPC   GL114293  13.714  10.328   6.883 -0.0687  0.0827  0.1292
 1001YOPC   GL214294  13.608  10.612   7.024  0.3266  0.2848  0.0641
 1001YOPC   C1A14295  13.971  10.246   7.262 -0.1137  0.0299 -0.1281
 1001YOPC   D2A14296  14.214   9.930   7.414 -0.3040 -0.1705  0.0970
 1001YOPC   C3A14297  14.200   9.864   7.920  0.0424 -0.0522  0.1031
 1001YOPC   C4A14298  14.492   9.817   8.271 -0.1820 -0.2443  0.0805
 1001YOPC   C1B14299  13.497  10.589   7.503  0.1061 -0.1437 -0.0020
 1001YOPC   C2B14300  13.223  10.527   7.784 -0.1387 -0.0063  0.2033
 1001YOPC   D3B14301  13.391  10.435   8.164  0.2261 -0.1535 -0.1114
 1001YOPC   C4B14302  13.739  10.405   8.352 -0.0489 -0.2233 -0.1376
 1002YOPC   NC314303   4.266   7.833   6.829 -0.0030  0.0185 -0.2364
 1002YOPC   PO414304   3.968   7.416   6.745 -0.1977 -0.0820  0.2683
 1002YOPC   GL114305   3.942   7.513   7.139  0.0443 -0.2347  0.2550
 1002YOPC   GL214306   4.010   7.189   7.281 -0.0024  0.4823 -0.0611
 1002YOPC   C1A14307   3.859   7.524   7.650 -0.0869 -0.1951  0.2711
 1002YOPC   D2A14308   3.686   7.270   7.964 -0.0975 -0.1459  0.3212
 1002YOPC   C3A14309   3.756   7.038   8.384  0.1356 -0.0204  0.3230
 1002YOPC   C4A14310   3.589   7.114   8.794 -0.1998 -0.0978  0.1124
 1002YOPC   C1B14311   4.038   7.032   7.656  0.1448 -0.0788  0.1152
 1002YOPC   C2B14312   4.334   6.869   7.879  0.0080 -0.1749  0.1671
 1002YOPC   D3B14313   4.254   7.081   8.296 -0.0750 -0.0137  0.2385
 1002YOPC   C4B14314   4.165   7.248   8.679 -0.1091  0.0378 -0.1228
 1003YOPC   NC314315   3.842  11.298   6.041 -0.1422 -0.0798  0.1148
 1003YOPC   PO414316   3.923  11.412   6.495  0.4611  0.1775  0.0112
 1003YOPC   GL114317   4.078  11.449   6.886  0.0922 -0.0024  0.0641
 1003YOPC   GL214318   4.348  11.198   6.968 -0.1225 -0.2800 -0.0405
 1003YOPC   C1A14319   3.816  11.333   7.265 -0.2205 -0.3686 -0.1816
 1003YOPC   D2A14320   3.707  11.364   7.761  0.0379  0.2781  0.1882
 1003YOPC   C3A14321   3.536  11.145   8.021  0.0039  0.1622  0.1133
 1003YOPC   C4A14322   3.144  10.885   8.187  0.1528 -0.0943  0.1160
 1003YOPC   C1B14323   4.459  11.164   7.398  0.1350  0.2731  0.2643
 1003YOPC   C2B14324   4.209  11.308   7.811 -0.1605  0.2216  0.0879
 1003YOPC   D3B14325   4.065  11.125   8.203  0.1756 -0.0228  0.1263
 1003YOPC   C4B14326   3.795  11.301   8.530  0.0886  0.0521 -0.1075
 1004YOPC   NC314327  10.468   4.494   5.680 -0.0237  0.0713 -0.0290
 1004YOPC   PO414328  10.344   4.310   6.098  0.1217 -0.0566 -0.2675
 1004YOPC   GL114329  10.321   4.024   6.446 -0.3167 -0.3019 -0.0702
 1004YOPC   GL214330  10.089   3.771   6.585 -0.0955 -0.0689  0.3145
 1004YOPC   C1A14331  10.557   4.062   6.938  0.3281 -0.2328 -0.0860
 1004YOPC   D2A14332  10.489   3.999   7.414  0.2266 -0.1442 -0.0450
 1004YOPC   C3A14333  10.702   3.680   7.703  0.1637 -0.0203 -0.2290
 1004YOPC   C4A14334  10.885   3.726   8.125 -0.1323 -0.0839 -0.2307
 1004YOPC   C1B14335  10.146   3.559   6.925  0.3146 -0.1094  0.0250
 1004YOPC   C2B14336  10.069   3.466   7.264 -0.1649 -0.0860  0.0380
 1004YOPC   D3B14337  10.347   3.321   7.526 -0.3140 -0.2150 -0.2392
 1004YOPC   C4B14338  10.231   3.079   7.846 -0.1760  0.1809  0.1923
 1005YOPC   NC314339  11.443   4.644   5.627  0.2162  0.1675 -0.1968
 1005YOPC   PO414340  11.538   4.261   5.924 -0.2318  0.2899 -0.0541
 1005YOPC   GL114341  11.331   4.021   6.262  0.0680  0.1286  0.1385
 1005YOPC   GL214342  11.261   4.222   6.474 -0.0547  0.1171  0.3943
 1005YOPC   C1A14343  10.945   3.762   6.508  0.0323 -0.0655  0.2770
 1005YOPC   D2A14344  10.713   3.605   6.761 -0.0285  0.1985 -0.0543
 1005YOPC   C3A14345  10.611   3.584   7.172 -0.1039  0.1598 -0.0196
 1005YOPC   C4A14346  10.819   3.219   7.441  0.1057  0.0150 -0.0012
 1005YOPC   C1B14347  11.159   4.312   6.857 -0.0635  0.2148 -0.0396
 1005YOPC   C2B14348  11.320   4.555   7.254  0.0035  0.0980 -0.2395
 1005YOPC   D3B14349  11.234   4.543   7.741 -0.0348  0.0830  0.1157
 1005YOPC   C4B14350  11.300   4.355   8.188 -0.0830  0.0085  0.2419
 1006YOPC   NC314351  16.994   2.171   6.407 -0.0867 -0.1878  0.2817
 1006YOPC   PO414352  17.190   1.798   6.186 -0.1791  0.0163 -0.0315
 1006YOPC   GL114353  17.210   1.802   6.701 -0.1821 -0.2123  0.4356
 1006YOPC   GL214354  16.890   1.995   6.845  0.0285 -0.0820 -0.0849
 1006YOPC   C1A14355  17.023   1.535   7.123  0.0398  0.1620  0.0165
 1006YOPC   D2A14356  17.070   1.327   7.473  0.0447 -0.1241 -0.1233
 1006YOPC   C3A14357  17.145   1.423   7.941 -0.0774  0.2287  0.2647
 1006YOPC   C4A14358  17.321   1.352   8.277  0.3687 -0.0534  0.2961
 1006YOPC   C1B14359  16.833   2.029   7.229  0.2696 -0.1940  0.1656
 1006YOPC   C2B14360  16.641   2.077   7.688 -0.1641 -0.0565 -0.1104
 1006YOPC   D3B14361  16.796   1.906   8.072  0.0115 -0.4427 -0.1806
 1006YOPC   C4B14362  16.649   1.942   8.471 -0.1552  0.0583  0.5606
 1007YOPC   NC314363   9.255   8.892   6.316 -0.1291 -0.1099 -0.1927
 1007YOPC   PO414364   9.158   8.480   6.300 -0.3234 -0.0383 -0.2848
 1007YOPC   GL114365   8.948   8.572   6.675  0.0201 -0.0408 -0.1928
 1007YOPC   GL214366   8.749   8.328   6.685 -0.1957  0.0456  0.1067
 1007YOPC   C1A14367   8.581   8.676   7.041  0.0974  0.0211  0.1722
 1007YOPC   D2A14368   8.441   8.537   7.481 -0.1339  0.0262  0.0015
 1007YOPC   C3A14369   8.541   8.569   7.912  0.0357 -0.1756 -0.0675
 1007YOPC   C4A14370   8.641   8.847   8.255 -0.2360 -0.2532 -0.2337
 1007YOPC   C1B14371   8.717   8.207   7.056 -0.1998  0.0225 -0.0937
 1007YOPC   C2B14372   8.857   8.327   7.555  0.0643  0.4737 -0.1364
 1007YOPC   D3B14373   8.702   8.066   7.856 -0.1752 -0.2947  0.2191
 1007YOPC   C4B14374   8.798   7.767   8.206 -0.1910  0.0266 -0.1326
 1008YOPC   NC314375   9.044  13.713   5.523  0.0345  0.0134  0.0080
 1008YOPC   PO414376   9.097  14.067   5.728  0.1501 -0.2892  0.0702
 1008YOPC   GL114377   8.878  14.103   6.121 -0.0469  0.0272  0.0387
 1008YOPC   GL214378   8.792  14.418   6.278 -0.1150 -0.1785 -0.1293
 1008YOPC   C1A14379   9.011  13.933   6.484 -0.2984 -0.2135 -0.1214
 1008YOPC   D2A14380   9.027  13.684   6.898  0.1386 -0.1193  0.1474
 1008YOPC   C3A14381   8.661  13.713   7.278 -0.0456 -0.2728 -0.1885
 1008YOPC   C4A14382   8.203  13.758   7.555 -0.0284 -0.2041 -0.0741
 1008YOPC   C1B14383   8.873  14.389   6.684  0.0458 -0.0188  0.1858
 1008YOPC   C2B14384   8.814  14.120   7.068 -0.0059  0.0921 -0.2033
 1008YOPC   D3B14385   8.745  14.225   7.499 -0.2297  0.0683 -0.0647
 1008YOPC   C4B14386   8.633  14.226   7.804 -0.2694 -0.1214  0.0025
 1009YOPC   NC314387   0.988   2.918   5.991 -0.0434  0.0128 -0.2554
 1009YOPC   PO414388   1.058   2.558   6.342 -0.0269  0.2157 -0.1441
 1009YOPC   GL114389   0.935   2.551   6.753 -0.0309 -0.2789 -0.0362
 1009YOPC   GL214390   0.742   2.380   6.811 -0.0850  0.1047 -0.2733
 1009YOPC   C1A14391   1.198   2.351   7.075  0.1622  0.2021 -0.0674
 1009YOPC   D2A14392   1.616   2.059   7.015  0.1490 -0.2022  0.1308
 1009YOPC   C3A14393   1.678   1.637   7.069  0.0337  0.0288 -0.0055
 1009YOPC   C4A14394   1.675   1.237   7.110 -0.0873 -0.2165 -0.0972
 1009YOPC   C1B14395   0.711   2.214   7.232 -0.0494  0.2036 -0.0774
 1009YOPC   C2B14396   1.064   2.011   7.455 -0.1246 -0.2425  0.1326
 1009YOPC   D3B14397   1.471   2.297   7.513  0.0291  0.1102  0.2239
 1009YOPC   C4B14398   1.620   2.577   7.308  0.0914  0.4147 -0.1105
 1010YOPC   NC314399   9.225  14.862   5.678 -0.1287  0.0027 -0.0537
 1010YOPC   PO414400   8.974  14.830   6.050  0.0218  0.1205  0.1583
 1010YOPC   GL114401   9.114  14.849   6.504 -0.0010  0.1247 -0.2810
 1010YOPC   GL214402   9.428  14.591   6.460 -0.0834  0.1939 -0.0942
 1010YOPC   C1A14403   8.863  14.863   6.925  0.1049  0.1222  0.4088
 1010YOPC   D2A14404   8.952  14.850   7.370  0.1149  0.0843  0.2693
 1010YOPC   C3A14405   8.584  14.735   7.692  0.0442 -0.4265 -0.0650
 1010YOPC   C4A14406   8.217  14.827   7.933 -0.2706  0.3126 -0.3192
 1010YOPC   C1B14407   9.682  14.535   6.780  0.0903  0.1796 -0.0261
 1010YOPC   C2B14408   9.736  14.412   7.170  0.2101 -0.2814  0.0766
 1010YOPC   D3B14409   9.375  14.192   7.379  0.3686  0.0536 -0.0396
 1010YOPC   C4B14410   9.141  14.435   7.669 -0.0101  0.0668  0.1236
 1011YOPC   NC314411  12.828   3.186   6.312 -0.0971 -0.0071 -0.0480
 1011YOPC   PO414412  13.168   2.912   6.224  0.0343  0.1574 -0.2038
 1011YOPC   GL114413  13.197   3.054   6.662  0.2841  0.0137 -0.2733
 1011YOPC   GL214414  12.894   3.120   6.803 -0.0182 -0.0811  0.1245
 1011YOPC   C1A14415  13.459   3.079   7.059  0.3356 -0.2160 -0.0812
 1011YOPC   D2A14416  13.451   2.923   7.478  0.1713  0.0974  0.0001
 1011YOPC   C3A14417  13.768   2.810   7.730 -0.2309  0.0337  0.2264
 1011YOPC   C4A14418  13.733   2.782   8.140  0.1332 -0.1592 -0.1644
 1011YOPC   C1B14419  12.547   3.047   7.036  0.1011 -0.3135 -0.2132
 1011YOPC   C2B14420  12.289   2.785   7.328  0.0662  0.1864  0.0023
 1011YOPC   D3B14421  12.333   2.646   7.675 -0.0655 -0.0750 -0.0143
 1011YOPC   C4B14422  12.370   2.487   8.049 -0.0466  0.0026  0.1207
 1012YOPC   NC314423  15.066   7.837   6.689 -0.0127 -0.0114 -0.0825
 1012YOPC   PO414424  15.525   8.010   6.762  0.0802  0.0853  0.0838
 1012YOPC   GL114425  15.327   7.883   7.114 -0.1890  0.0355 -0.1485
 1012YOPC   GL214426  15.523   7.811   7.414 -0.0611 -0.3777 -0.2549
 1012YOPC   C1A14427  15.092   7.981   7.561  0.1195  0.0912  0.0738
 1012YOPC   D2A14428  15.089   8.109   7.898  0.0172  0.0671  0.0463
 1012YOPC   C3A14429  14.886   8.073   8.316 -0.0659  0.0465 -0.2505
 1012YOPC   C4A14430  14.829   8.056   8.826  0.0673  0.3868 -0.0695
 1012YOPC   C1B14431  15.604   7.768   7.841 -0.2904 -0.1100 -0.0225
 1012YOPC   C2B14432  15.654   7.606   8.279 -0.2926  0.0160  0.1424
 1012YOPC   D3B14433  15.523   7.905   8.518 -0.3127 -0.0489 -0.1230
 1012YOPC   C4B14434  15.285   8.239   8.587  0.0694 -0.1362 -0.0639
 1013YOPC   NC314435  15.182  17.089   6.198  0.0108 -0.1060 -0.2252
 1013YOPC   PO414436  15.599  17.089   6.376  0.0708 -0.1391 -0.1883
 1013YOPC   GL114437  15.548  17.180   6.795 -0.0156 -0.0384 -0.0197
 1013YOPC   GL214438  15.337  17.373   6.670 -0.2908  0.0928 -0.2426
 1013YOPC   C1A14439  15.455  17.178   7.274  0.0794  0.1004 -0.0283
 1013YOPC   D2A14440  15.598  17.273   7.605 -0.2074  0.1727 -0.4895
 1013YOPC   C3A14441  15.727  17.227   8.037 -0.1381  0.2958 -0.0387
 1013YOPC   C4A14442  15.778  17.172   8.415  0.0366  0.2721 -0.2656
 1013YOPC   C1B14443  15.217  17.627   6.983  0.0680 -0.1583 -0.1728
 1013YOPC   C2B14444  15.315  17.792   7.412  0.0671  0.1278  0.0771
 1013YOPC   D3B14445  15.327  17.731   7.757 -0.0077  0.0052  0.0130
 1013YOPC   C4B14446  15.311  17.469   8.053 -0.0474 -0.3612 -0.1965
 1014YOPC   NC314447   7.571   1.191   5.625  0.1028 -0.0358  0.0637
 1014YOPC   PO414448   7.422   0.942   5.849 -0.0156  0.1462 -0.0674
 1014YOPC   GL114449   7.450   0.704   6.185 -0.0417  0.1401 -0.1308
 1014YOPC   GL214450   7.721   0.616   6.131  0.1272 -0.0468  0.2776
 1014YOPC   C1A14451   7.257   0.811   6.583  0.0857 -0.1416  0.1876
 1014YOPC   D2A14452   7.375   1.083   6.954 -0.1985  0.1075  0.0004
 1014YOPC   C3A14453   7.500   1.234   7.323 -0.2527  0.2707 -0.0217
 1014YOPC   C4A14454   7.904   1.442   7.401 -0.1054  0.0577 -0.0555
 1014YOPC   C1B14455   7.875   0.725   6.653  0.1148 -0.4601 -0.3392
 1014YOPC   C2B14456   8.182   0.738   6.878 -0.0424  0.0709 -0.1505
 1014YOPC   D3B14457   8.466   0.457   7.115 -0.0188 -0.1617 -0.1592
 1014YOPC   C4B14458   8.414   0.116   7.293 -0.1900  0.1655  0.0829
 1015YOPC   NC314459  10.249   4.538   6.531  0.3290 -0.3410 -0.0464
 1015YOPC   PO414460   9.846   4.432   6.185  0.1178 -0.1025 -0.3946
 1015YOPC   GL114461   9.850   4.264   6.606 -0.0995  0.0020  0.3104
 1015YOPC   GL214462   9.606   4.299   6.806 -0.2718 -0.1252  0.1423
 1015YOPC   C1A14463  10.031   4.060   6.983 -0.1794 -0.0279 -0.1619
 1015YOPC   D2A14464  10.004   3.988   7.416 -0.2469  0.1704  0.2934
 1015YOPC   C3A14465  10.111   3.752   7.737 -0.1929  0.1447  0.3144
 1015YOPC   C4A14466  10.347   3.543   8.094 -0.5214  0.0183 -0.2479
 1015YOPC   C1B14467   9.578   4.010   7.155  0.2095  0.2767 -0.1500
 1015YOPC   C2B14468   9.322   3.904   7.567  0.0836  0.0142  0.0742
 1015YOPC   D3B14469   9.486   3.806   7.951  0.0502 -0.1218  0.2609
 1015YOPC   C4B14470   9.433   3.603   8.304 -0.2083 -0.1549  0.1136
 1016YOPC   NC314471   9.960   8.929   6.070 -0.3012  0.1220 -0.1839
 1016YOPC   PO414472   9.759   8.808   6.446  0.0313 -0.2352  0.1152
 1016YOPC   GL114473   9.541   8.553   6.702  0.2036 -0.0226  0.0921
 1016YOPC   GL214474   9.449   8.836   6.889 -0.2259 -0.1709 -0.0195
 1016YOPC   C1A14475   9.729   8.465   7.160 -0.0241  0.1530  0.0487
 1016YOPC   D2A14476   9.852   8.736   7.564 -0.0494 -0.3645 -0.2246
 1016YOPC   C3A14477  10.273   8.797   7.806  0.1090  0.1205 -0.0658
 1016YOPC   C4A14478  10.445   8.543   8.148  0.1594  0.2662  0.0321
 1016YOPC   C1B14479   9.467   8.922   7.306  0.0108  0.1909  0.0323
 1016YOPC   C2B14480   9.607   9.208   7.619 -0.1269  0.0834 -0.0088
 1016YOPC   D3B14481   9.859   9.032   7.986  0.0198  0.3120  0.0819
 1016YOPC   C4B14482   9.872   8.787   8.373 -0.1106  0.1206  0.1530
 1017YOPC   NC314483  12.525   3.130   5.625  0.2177 -0.3327 -0.1923
 1017YOPC   PO414484  12.431   3.244   6.039 -0.3160 -0.0756 -0.1718
 1017YOPC   GL114485  12.229   3.066   6.435 -0.0546  0.2056  0.2416
 1017YOPC   GL214486  12.495   2.872   6.515 -0.1400  0.1864 -0.1862
 1017YOPC   C1A14487  12.066   3.009   6.823 -0.0732  0.2223  0.1568
 1017YOPC   D2A14488  11.826   3.014   7.156  0.1019  0.4219 -0.1313
 1017YOPC   C3A14489  11.821   2.915   7.612 -0.0914 -0.0494 -0.3754
 1017YOPC   C4A14490  12.029   2.822   8.023 -0.2616 -0.2173  0.0457
 1017YOPC   C1B14491  12.391   2.594   6.911  0.0212  0.0024  0.0556
 1017YOPC   C2B14492  12.660   2.433   7.257 -0.5218  0.1328 -0.1275
 1017YOPC   D3B14493  12.632   2.268   7.689 -0.2142  0.0452 -0.0516
 1017YOPC   C4B14494  12.460   2.015   7.992  0.1342  0.1549 -0.0566
 1018YOPC   NC314495  10.361   6.312   6.406 -0.1911  0.1813 -0.1321
 1018YOPC   PO414496  10.033   6.046   6.660  0.3432 -0.0276  0.0250
 1018YOPC   GL114497  10.168   6.376   6.961  0.0830  0.0165 -0.0105
 1018YOPC   GL214498   9.988   6.667   7.068 -0.1009  0.1771  0.1211
 1018YOPC   C1A14499  10.394   6.488   7.364 -0.0999  0.0478 -0.1711
 1018YOPC   D2A14500  10.263   6.436   7.825  0.0696 -0.1012  0.4708
 1018YOPC   C3A14501  10.177   6.454   8.242  0.0467 -0.0505 -0.0175
 1018YOPC   C4A14502   9.952   6.286   8.534 -0.1163  0.0654 -0.0343
 1018YOPC   C1B14503  10.070   6.782   7.501  0.1386 -0.0280 -0.0810
 1018YOPC   C2B14504  10.070   6.920   7.917  0.2016  0.3221  0.0338
 1018YOPC   D3B14505  10.037   6.902   8.396 -0.0089 -0.3998 -0.0215
 1018YOPC   C4B14506   9.724   6.793   8.696  0.0599  0.1169 -0.0819
 1019YOPC   NC314507   0.720  11.223   6.219  0.0023  0.0860 -0.0018
 1019YOPC   PO414508   0.531  10.939   6.478 -0.2095 -0.2905  0.0653
 1019YOPC   GL114509   0.734  11.078   6.889 -0.0235  0.1534 -0.1089
 1019YOPC   GL214510   0.924  11.212   6.688  0.0924  0.1935 -0.2839
 1019YOPC   C1A14511   0.793  11.065   7.307 -0.1544 -0.2659 -0.1571
 1019YOPC   D2A14512   1.030  11.024   7.619 -0.0969 -0.0914 -0.1773
 1019YOPC   C3A14513   0.938  11.147   7.939 -0.0906 -0.0687  0.2538
 1019YOPC   C4A14514   0.839  11.582   8.130 -0.0724  0.1313 -0.4292
 1019YOPC   C1B14515   0.866  11.560   6.962  0.3327  0.2714 -0.0463
 1019YOPC   C2B14516   0.842  11.573   7.329 -0.0442 -0.0303  0.1592
 1019YOPC   D3B14517   0.642  11.437   7.644 -0.1547  0.3574 -0.0327
 1019YOPC   C4B14518   0.356  11.430   7.921 -0.3121  0.0608 -0.2180
 1020YOPC   NC314519   5.173   2.293   6.153  0.2653  0.0661  0.1404
 1020YOPC   PO414520   4.866   2.532   6.260  0.1906  0.1635  0.0706
 1020YOPC   GL114521   4.902   2.361   6.600  0.0078 -0.2089 -0.1811
 1020YOPC   GL214522   4.877   2.578   6.804  0.3079 -0.0863 -0.1298
 1020YOPC   C1A14523   4.814   2.136   6.884  0.1006  0.0492  0.2925
 1020YOPC   D2A14524   4.822   2.166   7.299 -0.2427 -0.0263 -0.1260
 1020YOPC   C3A14525   4.967   2.363   7.642  0.1673  0.3146 -0.1304
 1020YOPC   C4A14526   4.970   2.361   8.083  0.4130  0.0599  0.2130
 1020YOPC   C1B14527   4.823   2.604   7.148 -0.1412 -0.1926 -0.0101
 1020YOPC   C2B14528   4.560   2.694   7.379  0.1400  0.1776  0.3857
 1020YOPC   D3B14529   4.729   2.758   7.782  0.2582 -0.0790  0.1601
 1020YOPC   C4B14530   4.792   3.080   8.091 -0.2547  0.1042 -0.1695
 1021YOPC   NC314531  16.708  16.921   5.717 -0.4544 -0.1913  0.0093
 1021YOPC   PO414532  16.981  17.111   6.020  0.3495 -0.0519 -0.0645
 1021YOPC   GL114533  16.943  17.198   6.434 -0.0473 -0.1259 -0.0051
 1021YOPC   GL214534  17.174  16.913   6.556 -0.1524 -0.3478 -0.1041
 1021YOPC   C1A14535  16.705  17.288   6.810  0.0013 -0.0264  0.0412
 1021YOPC   D2A14536  16.560  17.182   7.228  0.1362  0.1232 -0.0635
 1021YOPC   C3A14537  16.380  16.790   7.297 -0.2256  0.0540  0.0325
 1021YOPC   C4A14538  16.294  16.414   7.477 -0.2782 -0.2546  0.1430
 1021YOPC   C1B14539  17.084  16.945   6.993 -0.0865 -0.1861 -0.0973
 1021YOPC   C2B14540  16.920  16.838   7.385  0.1443 -0.4809 -0.2560
 1021YOPC   D3B14541  17.317  16.857   7.711  0.0111 -0.0013 -0.0400
 1021YOPC   C4B14542  17.739  17.086   7.874 -0.2293 -0.0356  0.0303
 1022YOPC   NC314543   1.166   5.569   6.830  0.0984 -0.3192  0.0310
 1022YOPC   PO414544   1.451   5.254   6.972  0.0085 -0.3742 -0.1801
 1022YOPC   GL114545   1.355   4.866   7.209 -0.1101 -0.1536  0.2260
 1022YOPC   GL214546   1.081   4.670   7.021 -0.0444  0.0620  0.0220
 1022YOPC   C1A14547   1.307   4.564   7.467  0.0330  0.1962  0.0070
 1022YOPC   D2A14548   1.296   4.427   7.848 -0.1320 -0.1555  0.1213
 1022YOPC   C3A14549   1.189   4.716   8.114  0.0959 -0.1929 -0.0036
 1022YOPC   C4A14550   0.986   4.915   8.492  0.1279 -0.0258 -0.1793
 1022YOPC   C1B14551   0.858   4.447   7.262  0.2222 -0.4315 -0.1626
 1022YOPC   C2B14552   1.027   4.165   7.523  0.1462 -0.4746  0.1183
 1022YOPC   D3B14553   1.005   4.043   7.838 -0.1341 -0.2181  0.1023
 1022YOPC   C4B14554   0.877   4.297   8.223 -0.3548  0.2655 -0.0530
 1023YOPC   NC314555  11.228   1.608   5.759 -0.1223 -0.0046 -0.2330
 1023YOPC   PO414556  11.586   1.463   5.840 -0.0862  0.3262 -0.1759
 1023YOPC   GL114557  11.711   1.357   6.218  0.2612 -0.1193 -0.3298
 1023YOPC   GL214558  11.852   1.534   6.426 -0.1520  0.2833 -0.0176
 1023YOPC   C1A14559  11.901   0.971   6.391 -0.2492 -0.3954 -0.3328
 1023YOPC   D2A14560  12.272   0.757   6.460 -0.2675 -0.1371  0.0954
 1023YOPC   C3A14561  12.373   0.634   6.840 -0.1313 -0.0590  0.3090
 1023YOPC   C4A14562  12.553   0.529   7.273  0.2609 -0.4983  0.3631
 1023YOPC   C1B14563  11.876   1.535   6.942  0.0349  0.0154 -0.1954
 1023YOPC   C2B14564  12.007   1.319   7.359  0.0655  0.1401 -0.0184
 1023YOPC   D3B14565  11.913   1.424   7.808 -0.2832  0.4434 -0.0850
 1023YOPC   C4B14566  11.468   1.440   7.983  0.0125  0.0070  0.1074
 1024YOPC   NC314567   4.623   9.008   6.036  0.0290 -0.0164  0.0910
 1024YOPC   PO414568   4.547   9.025   6.463  0.0706 -0.0661  0.1925
 1024YOPC   GL114569   4.420   8.994   6.877  0.0663 -0.2449 -0.1166
 1024YOPC   GL214570   4.532   9.215   7.004  0.3125 -0.1279  0.1680
 1024YOPC   C1A14571   4.499   8.708   7.253 -0.0253  0.3233  0.1573
 1024YOPC   D2A14572   4.529   8.536   7.591 -0.1205  0.0091 -0.3662
 1024YOPC   C3A14573   4.239   8.382   7.768 -0.2109 -0.2501 -0.0271
 1024YOPC   C4A14574   4.159   8.259   8.139  0.1914  0.4060 -0.0364
 1024YOPC   C1B14575   4.637   9.291   7.356 -0.1112  0.0743  0.2299
 1024YOPC   C2B14576   4.912   9.104   7.575  0.1739  0.1970 -0.1718
 1024YOPC   D3B14577   5.038   9.250   7.911 -0.3578 -0.1223  0.3921
 1024YOPC   C4B14578   5.047   9.597   8.080  0.3105  0.1544 -0.0933
 1025YOPC   NC314579  12.654   0.781   6.226 -0.1392  0.1579  0.1393
 1025YOPC   PO414580  12.349   0.524   5.980  0.1891 -0.3154 -0.1866
 1025YOPC   GL114581  12.450   0.257   6.378  0.1886 -0.0549  0.1667
 1025YOPC   GL214582  12.740   0.351   6.471 -0.0709  0.3552 -0.0680
 1025YOPC   C1A14583  12.468   0.135   6.840 -0.3009  0.2664  0.0694
 1025YOPC   D2A14584  12.463  -0.078   7.265 -0.1195 -0.4617  0.1049
 1025YOPC   C3A14585  12.316   0.177   7.536 -0.2021  0.3250  0.0742
 1025YOPC   C4A14586  12.528   0.431   7.867  0.1053  0.2712  0.1416
 1025YOPC   C1B14587  12.909   0.485   6.781 -0.0554 -0.1631  0.0683
 1025YOPC   C2B14588  12.985   0.210   7.110 -0.2067 -0.0023 -0.0012
 1025YOPC   D3B14589  12.868   0.136   7.559 -0.2822 -0.0109  0.2863
 1025YOPC   C4B14590  12.933   0.173   8.032 -0.3362  0.2353 -0.2625
 1026YOPC   NC314591  15.549  12.741   6.074 -0.0002  0.0122 -0.0127
 1026YOPC   PO414592  15.231  12.968   5.710  0.1697  0.0866 -0.0083
 1026YOPC   GL114593  15.192  13.075   6.221 -0.1213 -0.0489 -0.2480
 1026YOPC   GL214594  14.914  13.042   6.424  0.0623 -0.2627  0.0856
 1026YOPC   C1A14595  15.265  13.386   6.511 -0.4180 -0.2044  0.1147
 1026YOPC   D2A14596  15.343  13.357   6.881  0.0699  0.0089 -0.4245
 1026YOPC   C3A14597  15.259  13.607   7.286 -0.0155  0.2769 -0.0129
 1026YOPC   C4A14598  14.991  13.845   7.361 -0.1263 -0.1085  0.1979
 1026YOPC   C1B14599  14.835  13.191   6.850  0.0433  0.0838 -0.1277
 1026YOPC   C2B14600  14.762  13.413   7.166 -0.0324  0.1434 -0.0027
 1026YOPC   D3B14601  14.641  13.529   7.593  0.1195  0.0377  0.0513
 1026YOPC   C4B14602  14.670  13.656   8.108  0.0436 -0.0559  0.2429
 1027YOPC   NC314603   9.277  14.440   6.004  0.0817 -0.1770  0.2271
 1027YOPC   PO414604   9.667  14.437   5.974  0.0984 -0.1322  0.2373
 1027YOPC   GL114605   9.813  14.256   6.304 -0.1734  0.3256  0.1578
 1027YOPC   GL214606  10.062  14.294   6.423  0.0307  0.2254 -0.0654
 1027YOPC   C1A14607   9.448  14.121   6.619  0.0707 -0.3137 -0.1124
 1027YOPC   D2A14608   9.275  14.097   6.941  0.0695 -0.1044 -0.1557
 1027YOPC   C3A14609   9.208  14.521   7.088 -0.0480 -0.0224  0.0740
 1027YOPC   C4A14610   9.335  14.939   7.039 -0.2982  0.1076 -0.1176
 1027YOPC   C1B14611  10.155  14.448   6.860  0.2072 -0.2054 -0.0877
 1027YOPC   C2B14612  10.244  14.228   7.211  0.1657 -0.0996 -0.0395
 1027YOPC   D3B14613  10.463  14.375   7.463  0.1534  0.0879 -0.6517
 1027YOPC   C4B14614  10.598  14.377   7.848  0.0999 -0.0446 -0.0221
 1028YOPC   NC314615  10.195  17.087   5.648  0.1755 -0.0637  0.0300
 1028YOPC   PO414616   9.990  17.404   5.955 -0.1301 -0.1055  0.0913
 1028YOPC   GL114617   9.895  17.398   6.322  0.1292  0.0599  0.1113
 1028YOPC   GL214618   9.821  17.650   6.494 -0.1879  0.0287  0.0604
 1028YOPC   C1A14619   9.930  17.288   6.802 -0.1027 -0.1356 -0.0483
 1028YOPC   D2A14620   9.966  17.234   7.153 -0.0880  0.0879 -0.1888
 1028YOPC   C3A14621  10.083  17.311   7.539  0.1054  0.1386  0.1221
 1028YOPC   C4A14622  10.051  17.211   7.985 -0.2210 -0.0553  0.1688
 1028YOPC   C1B14623   9.846  17.798   6.835 -0.0238  0.0242  0.2708
 1028YOPC   C2B14624   9.990  17.795   7.292  0.3409  0.2453  0.2171
 1028YOPC   D3B14625   9.826  18.138   7.668  0.0480  0.1492  0.1629
 1028YOPC   C4B14626  10.004  18.449   8.000  0.1572  0.0179  0.2108
 1029YOPC   NC314627  12.137  13.876   5.748 -0.2197  0.0762  0.2106
 1029YOPC   PO414628  12.480  13.968   5.957 -0.3095 -0.0522  0.3823
 1029YOPC   GL114629  12.299  14.047   6.440 -0.1245 -0.0914 -0.0042
 1029YOPC   GL214630  12.143  14.453   6.516 -0.2677 -0.1091 -0.1109
 1029YOPC   C1A14631  12.351  14.116   6.881 -0.3007 -0.0954  0.1970
 1029YOPC   D2A14632  12.358  14.260   7.282  0.1083  0.0177 -0.3584
 1029YOPC   C3A14633  12.422  14.537   7.628 -0.1842  0.2365 -0.1067
 1029YOPC   C4A14634  12.728  14.801   7.787  0.2052  0.0103 -0.3579
 1029YOPC   C1B14635  12.167  14.583   6.929  0.1107  0.1628 -0.0298
 1029YOPC   C2B14636  12.435  14.844   7.187  0.0338 -0.1940 -0.0709
 1029YOPC   D3B14637  12.786  14.647   7.279  0.0683 -0.1566 -0.0015
 1029YOPC   C4B14638  13.034  14.621   6.980  0.0777  0.0790  0.0531
 1030YOPC   NC314639  14.247  12.353   6.275 -0.1150  0.0805 -0.1196
 1030YOPC   PO414640  14.317  11.994   6.131  0.1600  0.2644  0.0410
 1030YOPC   GL114641  14.436  11.968   6.527  0.1033 -0.0577 -0.1151
 1030YOPC   GL214642  14.519  12.214   6.786 -0.1110  0.0927  0.0998
 1030YOPC   C1A14643  14.167  11.784   6.849 -0.0438  0.0873 -0.0668
 1030YOPC   D2A14644  13.908  11.931   7.108  0.1576  0.0843  0.0757
 1030YOPC   C3A14645  14.105  12.094   7.517  0.1159  0.1586 -0.2422
 1030YOPC   C4A14646  13.865  12.267   7.895 -0.0372 -0.1107  0.2259
 1030YOPC   C1B14647  14.471  12.050   7.159  0.0028  0.0279 -0.1920
 1030YOPC   C2B14648  14.625  12.034   7.527 -0.0354 -0.0398  0.0048
 1030YOPC   D3B14649  14.422  12.177   7.892 -0.0014  0.2595  0.1758
 1030YOPC   C4B14650  14.297  12.161   8.305  0.1193 -0.0150 -0.0573
 1031YOPC   NC314651  12.768   9.363   6.197  0.0993  0.0063 -0.0747
 1031YOPC   PO414652  12.662   9.595   6.555  0.1852 -0.0024 -0.0594
 1031YOPC   GL114653  12.484   9.298   6.876 -0.1040 -0.3158 -0.0545
 1031YOPC   GL214654  12.186   9.152   6.840 -0.1513  0.0655 -0.0434
 1031YOPC   C1A14655  12.421   9.400   7.307  0.3082  0.3179 -0.1801
 1031YOPC   D2A14656  12.249   9.250   7.717  0.3836 -0.1130 -0.0632
 1031YOPC   C3A14657  12.599   9.225   7.937  0.0338  0.1535  0.0106
 1031YOPC   C4A14658  13.007   9.072   7.908 -0.0351 -0.2669  0.1284
 1031YOPC   C1B14659  11.975   9.202   7.246 -0.1261  0.1746  0.2640
 1031YOPC   C2B14660  11.808   9.446   7.637  0.0771  0.0880 -0.1761
 1031YOPC   D3B14661  12.076   9.525   8.114  0.1752  0.1226 -0.1285
 1031YOPC   C4B14662  12.419   9.384   8.350 -0.1108  0.0274 -0.1494
 1032YOPC   NC314663   7.539   3.175   5.982  0.1872  0.0069  0.1211
 1032YOPC   PO414664   7.764   3.383   6.131  0.0714 -0.0851 -0.2239
 1032YOPC   GL114665   7.957   3.212   6.410  0.1484  0.3548 -0.0606
 1032YOPC   GL214666   7.873   2.961   6.721 -0.0451  0.0086 -0.1900
 1032YOPC   C1A14667   8.151   3.358   6.782  0.0610  0.0381  0.1097
 1032YOPC   D2A14668   8.458   3.515   7.128  0.2400 -0.4186  0.0969
 1032YOPC   C3A14669   8.432   3.302   7.493  0.1185 -0.0542  0.2140
 1032YOPC   C4A14670   8.438   3.030   7.838 -0.2901 -0.1844 -0.0000
 1032YOPC   C1B14671   7.561   2.694   6.873 -0.2982 -0.5394 -0.1399
 1032YOPC   C2B14672   7.642   2.274   7.178 -0.0708 -0.1153 -0.2377
 1032YOPC   D3B14673   7.404   2.295   7.611  0.1349  0.2484  0.1610
 1032YOPC   C4B14674   7.012   2.453   7.775  0.1852  0.1625 -0.3482
 1033YOPC   NC314675   9.511  16.148   6.110 -0.1059 -0.4991  0.1247
 1033YOPC   PO414676   9.289  15.904   5.851 -0.2924  0.3082 -0.1634
 1033YOPC   GL114677   9.109  15.796   6.190  0.1413  0.1307  0.2075
 1033YOPC   GL214678   9.249  15.795   6.510 -0.2494 -0.0643  0.0844
 1033YOPC   C1A14679   8.698  15.624   6.423 -0.1104 -0.1352 -0.3080
 1033YOPC   D2A14680   8.449  15.206   6.633 -0.3504  0.2818  0.0108
 1033YOPC   C3A14681   7.999  15.188   6.728 -0.2450  0.0452 -0.1775
 1033YOPC   C4A14682   7.585  15.248   6.819 -0.0209  0.1279  0.0264
 1033YOPC   C1B14683   9.280  15.788   6.955  0.0445 -0.1623  0.1355
 1033YOPC   C2B14684   9.244  15.538   7.277  0.2454 -0.1544 -0.2327
 1033YOPC   D3B14685   9.314  15.667   7.688  0.0825  0.0525 -0.0040
 1033YOPC   C4B14686   9.632  15.557   7.960  0.4661 -0.0327 -0.1084
 1034YOPC   NC314687  17.171   5.150   6.056  0.0250  0.0919  0.2352
 1034YOPC   PO414688  17.109   5.214   6.512 -0.0051  0.2315 -0.1518
 1034YOPC   GL114689  17.020   5.178   6.988  0.1300  0.0747 -0.2832
 1034YOPC   GL214690  17.297   5.362   7.160 -0.0585  0.2293 -0.1917
 1034YOPC   C1A14691  16.900   5.277   7.447 -0.2265  0.0635 -0.3291
 1034YOPC   D2A14692  16.850   4.996   7.737  0.3622 -0.1119  0.1711
 1034YOPC   C3A14693  16.653   4.551   7.655  0.0999  0.3477  0.0874
 1034YOPC   C4A14694  16.464   4.150   7.631  0.1855  0.3471 -0.1724
 1034YOPC   C1B14695  17.406   5.290   7.549 -0.1361  0.0450 -0.2062
 1034YOPC   C2B14696  17.621   4.973   7.697  0.0393  0.2239  0.0146
 1034YOPC   D3B14697  18.045   4.677   7.599 -0.1007  0.2789  0.0591
 1034YOPC   C4B14698  18.418   4.587   7.756 -0.1882  0.1408 -0.1420
 1035YOPC   NC314699  16.825   6.377   6.368 -0.1600  0.1817 -0.0322
 1035YOPC   PO414700  16.440   6.504   6.522 -0.0844 -0.1222  0.1380
 1035YOPC   GL114701  16.362   6.337   6.977  0.5734  0.0566  0.2233
 1035YOPC   GL214702  16.308   6.536   7.152  0.1097  0.1091  0.1499
 1035YOPC   C1A14703  16.122   6.112   7.095 -0.2648  0.2249 -0.0719
 1035YOPC   D2A14704  16.021   5.746   7.352 -0.0956  0.0810 -0.1150
 1035YOPC   C3A14705  16.065   5.823   7.771 -0.3744 -0.1658  0.0680
 1035YOPC   C4A14706  16.126   5.549   8.236  0.1479 -0.2796  0.3148
 1035YOPC   C1B14707  16.443   6.758   7.517  0.0052 -0.2510  0.1208
 1035YOPC   C2B14708  16.451   6.543   7.968 -0.1346  0.1255  0.2945
 1035YOPC   D3B14709  16.119   6.677   8.200  0.2312  0.1422  0.3668
 1035YOPC   C4B14710  16.292   7.114   8.383 -0.1046  0.1728  0.0909
 1036YOPC   NC314711   3.389   8.973   6.244 -0.3512  0.0869 -0.1274
 1036YOPC   PO414712   3.477   8.735   6.545  0.2167  0.0116 -0.0911
 1036YOPC   GL114713   3.200   8.800   6.899 -0.1678 -0.2392 -0.0781
 1036YOPC   GL214714   3.383   8.930   7.180 -0.1450 -0.2023 -0.3089
 1036YOPC   C1A14715   2.995   8.642   7.333  0.0737 -0.2865 -0.1974
 1036YOPC   D2A14716   2.931   8.458   7.718 -0.3660 -0.0888 -0.1645
 1036YOPC   C3A14717   2.622   8.561   7.968  0.0573 -0.1668 -0.3391
 1036YOPC   C4A14718   2.542   8.759   8.347  0.1020 -0.1185 -0.0867
 1036YOPC   C1B14719   3.513   8.593   7.352  0.0629 -0.1004 -0.1176
 1036YOPC   C2B14720   3.536   8.376   7.716 -0.1622 -0.0555 -0.0309
 1036YOPC   D3B14721   3.295   8.191   8.040  0.1339 -0.3432  0.0578
 1036YOPC   C4B14722   2.831   8.281   8.310 -0.2137 -0.1925  0.0781
 1037YOPC   NC314723   3.024  14.384   5.817  0.0902 -0.0356  0.4097
 1037YOPC   PO414724   3.059  14.054   6.066 -0.0318 -0.3761  0.2010
 1037YOPC   GL114725   3.236  14.122   6.460  0.1291 -0.0574 -0.0606
 1037YOPC   GL214726   3.427  13.826   6.593 -0.0157 -0.1154  0.1308
 1037YOPC   C1A14727   3.163  14.124   6.928 -0.0777  0.0712 -0.1292
 1037YOPC   D2A14728   2.929  13.782   7.181 -0.0500 -0.1994 -0.0308
 1037YOPC   C3A14729   3.056  13.858   7.634 -0.0208  0.0726 -0.0257
 1037YOPC   C4A14730   3.014  14.205   7.959  0.1013 -0.2253 -0.0100
 1037YOPC   C1B14731   3.664  14.058   6.770  0.5781 -0.3651 -0.1348
 1037YOPC   C2B14732   4.043  14.080   7.148 -0.2302  0.0916  0.1159
 1037YOPC   D3B14733   3.943  14.175   7.550 -0.0201  0.1131  0.0320
 1037YOPC   C4B14734   3.951  14.149   8.064 -0.0514 -0.3412  0.1344
 1038YOPC   NC314735   3.934  13.037   6.289 -0.1374  0.0477  0.1515
 1038YOPC   PO414736   3.700  13.362   6.205 -0.0553  0.2068 -0.0375
 1038YOPC   GL114737   3.750  13.390   6.680  0.1640  0.1661 -0.0508
 1038YOPC   GL214738   3.621  13.165   6.932  0.1194 -0.2308  0.0490
 1038YOPC   C1A14739   3.888  13.608   7.032 -0.0407 -0.0822  0.1030
 1038YOPC   D2A14740   4.197  13.672   7.332 -0.3514 -0.4149  0.4320
 1038YOPC   C3A14741   4.393  13.579   7.660  0.2430  0.0689  0.1381
 1038YOPC   C4A14742   4.760  13.532   7.890 -0.3107 -0.0081 -0.0805
 1038YOPC   C1B14743   3.579  13.301   7.343  0.0063  0.0888 -0.2096
 1038YOPC   C2B14744   3.477  13.530   7.621  0.0329 -0.1180  0.0201
 1038YOPC   D3B14745   3.837  13.735   7.780 -0.2769  0.1586  0.0009
 1038YOPC   C4B14746   4.112  13.671   8.067  0.1352 -0.1001 -0.1741
 1039YOPC   NC314747   4.373   9.573   6.502  0.0781  0.1300 -0.2540
 1039YOPC   PO414748   4.279  10.029   6.539  0.1665 -0.2405  0.1473
 1039YOPC   GL114749   4.193  10.022   6.971  0.0822 -0.0137  0.2339
 1039YOPC   GL214750   3.982   9.909   6.933 -0.2458  0.2174  0.1418
 1039YOPC   C1A14751   4.382  10.234   7.275  0.0837  0.3181  0.1520
 1039YOPC   D2A14752   4.732  10.141   7.491  0.0259  0.0299 -0.0868
 1039YOPC   C3A14753   4.780  10.038   7.927 -0.2408 -0.1805  0.0949
 1039YOPC   C4A14754   4.881   9.954   8.341 -0.0127 -0.1487  0.0008
 1039YOPC   C1B14755   3.960   9.862   7.384 -0.0059 -0.1370 -0.1058
 1039YOPC   C2B14756   4.225   9.931   7.750 -0.0028  0.0969 -0.2726
 1039YOPC   D3B14757   4.389  10.367   7.828  0.2599 -0.1451 -0.1493
 1039YOPC   C4B14758   4.240  10.713   7.561  0.0328 -0.1626 -0.4048
 1040YOPC   NC314759   5.988  11.954   6.074 -0.2235 -0.1459  0.1617
 1040YOPC   PO414760   5.617  11.822   6.329 -0.4301  0.2405  0.1501
 1040YOPC   GL114761   5.533  11.638   6.691  0.1845  0.1139 -0.1925
 1040YOPC   GL214762   5.271  11.785   6.862 -0.0491  0.0676 -0.2253
 1040YOPC   C1A14763   5.766  11.679   7.038  0.3287 -0.3397  0.0443
 1040YOPC   D2A14764   6.201  11.662   7.242 -0.5133  0.3479  0.1062
 1040YOPC   C3A14765   6.403  11.586   7.611  0.1480 -0.0277  0.2095
 1040YOPC   C4A14766   6.234  11.540   7.909  0.3102  0.1774  0.1812
 1040YOPC   C1B14767   5.409  12.101   7.204 -0.1712 -0.0604 -0.0279
 1040YOPC   C2B14768   5.905  12.164   7.319  0.2291  0.1031 -0.1158
 1040YOPC   D3B14769   6.111  12.050   6.948  0.1472 -0.0443 -0.0755
 1040YOPC   C4B14770   6.421  12.409   6.787 -0.0954  0.0542  0.0311
 1041YOPC   NC314771   1.921  15.261   5.867  0.1085 -0.2087 -0.2520
 1041YOPC   PO414772   1.492  15.388   6.031 -0.0946  0.2704  0.3371
 1041YOPC   GL114773   1.661  15.284   6.450  0.3797 -0.0561 -0.0210
 1041YOPC   GL214774   1.901  15.041   6.375  0.3406  0.0012  0.1823
 1041YOPC   C1A14775   1.720  15.382   6.863 -0.1330 -0.1710 -0.0495
 1041YOPC   D2A14776   1.994  15.373   7.227 -0.1291  0.1814  0.1880
 1041YOPC   C3A14777   1.880  15.308   7.680  0.4433  0.0059 -0.3181
 1041YOPC   C4A14778   2.017  15.194   8.027 -0.0344  0.0982  0.0336
 1041YOPC   C1B14779   2.219  15.123   6.828  0.0511  0.1736  0.0614
 1041YOPC   C2B14780   2.275  14.870   7.143 -0.0287  0.0161 -0.0674
 1041YOPC   D3B14781   2.273  15.014   7.520 -0.2613  0.2504 -0.3237
 1041YOPC   C4B14782   2.526  15.106   7.824  0.1788 -0.0005 -0.3270
 1042YOPC   NC314783   4.447  10.471   6.438  0.0120 -0.2473  0.0929
 1042YOPC   PO414784   3.992  10.481   6.604 -0.2716 -0.1689 -0.2487
 1042YOPC   GL114785   3.770  10.396   7.029 -0.1415  0.0155 -0.0540
 1042YOPC   GL214786   3.634  10.194   7.129 -0.2875 -0.1358  0.2418
 1042YOPC   C1A14787   3.849  10.397   7.508 -0.0273 -0.0181 -0.1905
 1042YOPC   D2A14788   3.797  10.141   7.834 -0.1639  0.3380 -0.2363
 1042YOPC   C3A14789   3.808  10.066   8.204 -0.1382 -0.2146  0.0806
 1042YOPC   C4A14790   3.962  10.281   8.550  0.3556 -0.2678  0.0536
 1042YOPC   C1B14791   3.454   9.959   7.500  0.1375 -0.0858  0.4457
 1042YOPC   C2B14792   3.578   9.650   7.784  0.0688 -0.2416 -0.0605
 1042YOPC   D3B14793   3.293   9.244   7.683  0.1514  0.0924 -0.1478
 1042YOPC   C4B14794   3.307   8.844   7.712 -0.0356  0.0578  0.1554
 1043YOPC   NC314795  13.691   5.832   6.369  0.0267  0.0056  0.4049
 1043YOPC   PO414796  14.187   5.881   6.406 -0.0761 -0.2927 -0.0620
 1043YOPC   GL114797  14.044   5.855   6.796 -0.2545  0.0688  0.2160
 1043YOPC   GL214798  14.187   5.692   6.951 -0.1209 -0.1327 -0.1207
 1043YOPC   C1A14799  13.807   5.890   7.122  0.1403  0.3635 -0.0135
 1043YOPC   D2A14800  13.742   5.923   7.555 -0.3129 -0.1460 -0.3354
 1043YOPC   C3A14801  13.781   6.177   7.871  0.2528 -0.1374 -0.1980
 1043YOPC   C4A14802  14.049   5.966   8.193  0.1773  0.2022  0.1773
 1043YOPC   C1B14803  14.208   5.769   7.450 -0.2884  0.0435 -0.3488
 1043YOPC   C2B14804  14.102   5.645   7.851  0.0929  0.0206 -0.1495
 1043YOPC   D3B14805  13.687   5.651   8.044 -0.1877 -0.2109 -0.1121
 1043YOPC   C4B14806  13.391   5.924   8.031  0.0792  0.3773  0.1162
 1044YOPC   NC314807   5.021   6.782   6.604  0.0023 -0.1069 -0.0102
 1044YOPC   PO414808   4.813   6.369   6.649  0.1761  0.0939 -0.3342
 1044YOPC   GL114809   4.899   6.100   6.992 -0.0483  0.0925 -0.0460
 1044YOPC   GL214810   5.276   6.042   7.031  0.2344  0.2044  0.1100
 1044YOPC   C1A14811   4.887   6.078   7.457 -0.3007 -0.1535 -0.6128
 1044YOPC   D2A14812   4.992   6.200   7.869 -0.0943 -0.0767  0.0884
 1044YOPC   C3A14813   5.151   5.903   8.133  0.0520 -0.3138 -0.3089
 1044YOPC   C4A14814   5.522   5.647   8.198 -0.1521  0.2156  0.4006
 1044YOPC   C1B14815   5.370   6.085   7.454  0.1150  0.4361  0.2818
 1044YOPC   C2B14816   5.490   6.219   7.932 -0.0519 -0.3565  0.0155
 1044YOPC   D3B14817   5.849   6.144   8.063 -0.1057  0.0292 -0.0204
 1044YOPC   C4B14818   6.225   6.084   8.275  0.0033 -0.1086 -0.0996
 1045YOPC   NC314819  14.333   7.507   6.197  0.1416  0.3392 -0.0725
 1045YOPC   PO414820  14.524   7.700   6.424 -0.3992 -0.0826  0.0796
 1045YOPC   GL114821  14.247   7.753   6.829  0.1612 -0.3260  0.1099
 1045YOPC   GL214822  14.029   8.018   6.844  0.2079  0.2225 -0.1155
 1045YOPC   C1A14823  14.327   7.550   7.237 -0.0967  0.0375 -0.2002
 1045YOPC   D2A14824  14.446   7.304   7.564 -0.5476 -0.2251  0.0098
 1045YOPC   C3A14825  14.601   7.253   7.946  0.0166 -0.1137  0.0669
 1045YOPC   C4A14826  14.760   7.319   8.248  0.2713  0.0319  0.0978
 1045YOPC   C1B14827  13.749   8.218   7.205  0.0295 -0.1671  0.1636
 1045YOPC   C2B14828  13.705   8.562   7.453  0.1349  0.0414 -0.3112
 1045YOPC   D3B14829  13.419   8.832   7.374  0.0031  0.0640  0.0035
 1045YOPC   C4B14830  13.021   9.035   7.299 -0.4564 -0.0437  0.2766
 1046YOPC   NC314831   7.202  11.228   6.184 -0.0606 -0.1334 -0.2690
 1046YOPC   PO414832   6.797  11.131   6.063  0.2321  0.1385 -0.1048
 1046YOPC   GL114833   6.732  10.908   6.484 -0.1365  0.0423 -0.0344
 1046YOPC   GL214834   6.872  11.058   6.704 -0.2782  0.1007 -0.0320
 1046YOPC   C1A14835   6.794  10.626   6.887 -0.3753  0.2113 -0.0378
 1046YOPC   D2A14836   7.049  10.482   7.120  0.0706  0.3266 -0.3740
 1046YOPC   C3A14837   7.371  10.741   7.194 -0.2675 -0.2717 -0.0350
 1046YOPC   C4A14838   7.744  10.924   7.127  0.0186  0.1283 -0.1701
 1046YOPC   C1B14839   6.939  11.040   7.112  0.2014 -0.1867  0.1661
 1046YOPC   C2B14840   7.106  11.015   7.569  0.0638 -0.2995 -0.0419
 1046YOPC   D3B14841   7.559  11.037   7.643  0.1443  0.0441 -0.0609
 1046YOPC   C4B14842   7.982  11.012   7.552 -0.0030 -0.1371 -0.0246
 1047YOPC   NC314843   6.229   1.644   5.602 -0.2327 -0.2880  0.0527
 1047YOPC   PO414844   5.869   1.431   5.790 -0.0257 -0.0634  0.0818
 1047YOPC   GL114845   5.975   1.472   6.204  0.1465 -0.3456  0.0258
 1047YOPC   GL214846   6.010   1.732   6.157 -0.1226 -0.1118  0.0237
 1047YOPC   C1A14847   5.903   1.279   6.597  0.0306 -0.2458 -0.3581
 1047YOPC   D2A14848   5.982   1.207   7.035  0.4399 -0.3872 -0.0084
 1047YOPC   C3A14849   5.943   1.386   7.395  0.0893  0.0348  0.1741
 1047YOPC   C4A14850   5.915   1.136   7.766  0.0147 -0.0851  0.0716
 1047YOPC   C1B14851   6.363   1.832   6.316  0.3400  0.0386 -0.3165
 1047YOPC   C2B14852   6.644   1.782   6.616 -0.3233  0.1069  0.0531
 1047YOPC   D3B14853   7.034   1.969   6.667 -0.0501 -0.1669 -0.2058
 1047YOPC   C4B14854   7.491   2.026   6.724  0.0413  0.0673  0.0728
 1048YOPC   NC314855   6.514   5.592   6.121 -0.0534  0.0544 -0.1924
 1048YOPC   PO414856   6.921   5.862   6.128 -0.0540 -0.2496  0.2144
 1048YOPC   GL114857   6.747   5.894   6.480 -0.0102  0.0427 -0.1010
 1048YOPC   GL214858   7.035   5.877   6.690 -0.0199  0.2964  0.3629
 1048YOPC   C1A14859   6.521   5.904   6.901  0.1519  0.1938 -0.2994
 1048YOPC   D2A14860   6.540   5.907   7.428 -0.0727 -0.1702  0.2131
 1048YOPC   C3A14861   6.254   6.077   7.773 -0.1554  0.2465 -0.1116
 1048YOPC   C4A14862   5.821   6.293   7.558  0.1063 -0.3386  0.0637
 1048YOPC   C1B14863   7.122   5.886   7.136 -0.0344  0.0351 -0.1270
 1048YOPC   C2B14864   7.021   5.701   7.537  0.0267 -0.2250 -0.0182
 1048YOPC   D3B14865   7.114   5.646   8.005  0.0903 -0.0178  0.3279
 1048YOPC   C4B14866   7.290   5.310   8.349  0.2505  0.3724 -0.1596
 1049YOPC   NC314867  10.157   9.716   6.147  0.2623 -0.0136 -0.1787
 1049YOPC   PO414868   9.987   9.326   6.382  0.1736  0.2354 -0.1029
 1049YOPC   GL114869   9.858   9.625   6.592  0.0500  0.0206  0.0962
 1049YOPC   GL214870   9.642   9.614   6.843  0.2335 -0.1988  0.1318
 1049YOPC   C1A14871  10.104   9.758   7.064  0.0002 -0.1498 -0.3485
 1049YOPC   D2A14872  10.056  10.023   7.460 -0.2766  0.0238  0.1355
 1049YOPC   C3A14873  10.178   9.903   7.817 -0.0457  0.2581 -0.0196
 1049YOPC   C4A14874  10.153   9.813   8.250 -0.1784 -0.1542 -0.1451
 1049YOPC   C1B14875   9.426   9.406   7.195  0.1994  0.1349 -0.0323
 1049YOPC   C2B14876   9.142   9.364   7.461 -0.0783 -0.0201 -0.1315
 1049YOPC   D3B14877   9.267   9.024   7.874 -0.0795 -0.2104 -0.0929
 1049YOPC   C4B14878   9.518   8.705   7.945  0.1627 -0.0986  0.2656
 1050YOPC   NC314879  13.181   3.975   6.298 -0.4368 -0.0401  0.2054
 1050YOPC   PO414880  12.980   3.615   6.559 -0.2537 -0.1114 -0.2866
 1050YOPC   GL114881  12.904   3.596   6.960  0.4069  0.0335 -0.0598
 1050YOPC   GL214882  12.952   3.848   7.103  0.0022  0.1682 -0.1427
 1050YOPC   C1A14883  12.802   3.381   7.308  0.0890  0.0037  0.0867
 1050YOPC   D2A14884  12.516   3.174   7.538 -0.1231 -0.4241 -0.3939
 1050YOPC   C3A14885  12.520   3.119   7.954  0.2150  0.0172 -0.0481
 1050YOPC   C4A14886  12.466   2.918   8.244  0.1503  0.1195 -0.3610
 1050YOPC   C1B14887  13.035   3.803   7.555  0.0338 -0.3046  0.1362
 1050YOPC   C2B14888  13.100   3.830   7.948 -0.6037  0.3578  0.1400
 1050YOPC   D3B14889  13.191   3.551   8.164 -0.0463  0.0773 -0.2585
 1050YOPC   C4B14890  13.184   3.439   8.638  0.3143  0.3609  0.2533
 1051YOPC   NC314891   1.012   0.106   5.781 -0.1127 -0.3393  0.1692
 1051YOPC   PO414892   0.673  -0.049   6.129 -0.0175  0.2787 -0.1714
 1051YOPC   GL114893   0.740   0.074   6.566  0.0188 -0.2843 -0.0666
 1051YOPC   GL214894   0.809   0.435   6.574 -0.0227  0.1045  0.0573
 1051YOPC   C1A14895   0.639   0.115   6.940 -0.0895  0.0852 -0.0758
 1051YOPC   D2A14896   0.801   0.101   7.326  0.1118 -0.0335  0.0179
 1051YOPC   C3A14897   0.914  -0.269   7.389  0.0342  0.1362 -0.3493
 1051YOPC   C4A14898   0.823  -0.581   7.800 -0.1082 -0.1925  0.0288
 1051YOPC   C1B14899   1.049   0.368   6.948  0.0463 -0.0129 -0.0284
 1051YOPC   C2B14900   1.447   0.569   7.080  0.1204 -0.1524 -0.0257
 1051YOPC   D3B14901   1.770   0.339   7.205 -0.0660  0.2238 -0.2422
 1051YOPC   C4B14902   1.687   0.170   7.612 -0.0578  0.1577 -0.1290
 1052YOPC   NC314903   7.703  13.638   5.174  0.1175  0.2128 -0.2061
 1052YOPC   PO414904   7.721  13.891   5.548 -0.0944  0.0864  0.3637
 1052YOPC   GL114905   7.629  13.801   6.052  0.1275  0.0864  0.2434
 1052YOPC   GL214906   7.666  14.154   6.264 -0.0459  0.2504  0.0133
 1052YOPC   C1A14907   7.762  13.492   6.362  0.1067 -0.2577 -0.0076
 1052YOPC   D2A14908   7.819  13.643   6.779 -0.2953 -0.4602 -0.0905
 1052YOPC   C3A14909   7.844  13.597   7.260 -0.0183  0.0437  0.1102
 1052YOPC   C4A14910   7.510  13.575   7.595  0.0637 -0.1575  0.4030
 1052YOPC   C1B14911   7.386  13.852   6.689 -0.2554 -0.0714 -0.1251
 1052YOPC   C2B14912   7.395  13.746   7.093 -0.0014  0.2457  0.1411
 1052YOPC   D3B14913   7.310  14.009   7.384  0.1282  0.0741 -0.2400
 1052YOPC   C4B14914   7.275  14.374   7.656  0.1195 -0.2955  0.4316
 1053YOPC   NC314915  11.363  11.797   5.865  0.2531  0.0005 -0.0508
 1053YOPC   PO414916  11.255  11.421   6.135 -0.3571 -0.1721  0.1322
 1053YOPC   GL114917  11.168  11.628   6.503  0.0713 -0.2269  0.0702
 1053YOPC   GL214918  11.309  11.593   6.800 -0.2038  0.0182 -0.0538
 1053YOPC   C1A14919  11.034  12.069   6.605  0.2922  0.2627  0.1464
 1053YOPC   D2A14920  10.720  12.239   6.740 -0.2268 -0.2360 -0.1585
 1053YOPC   C3A14921  10.687  12.426   7.063 -0.2515 -0.2234  0.1897
 1053YOPC   C4A14922  10.720  12.257   7.529  0.0988  0.0196  0.0822
 1053YOPC   C1B14923  11.232  11.569   7.228 -0.1431 -0.0740  0.1336
 1053YOPC   C2B14924  10.887  11.483   7.483  0.0272  0.0314 -0.0902
 1053YOPC   D3B14925  11.008  11.854   7.756  0.3260  0.2103 -0.1687
 1053YOPC   C4B14926  10.732  12.169   8.039  0.0615  0.2958  0.2587
 1054YOPC   NC314927   4.079   1.608   6.216  0.2403  0.4267 -0.1587
 1054YOPC   PO414928   3.665   1.506   6.396  0.1897  0.1409  0.1900
 1054YOPC   GL114929   3.661   1.575   6.794  0.2185 -0.2897 -0.0857
 1054YOPC   GL214930   3.446   1.399   6.937  0.2448  0.1303  0.0480
 1054YOPC   C1A14931   3.934   1.768   7.082 -0.0726  0.0785  0.0661
 1054YOPC   D2A14932   4.160   1.911   7.457  0.2424 -0.0487  0.1695
 1054YOPC   C3A14933   3.934   1.767   7.921  0.0474 -0.0400 -0.0303
 1054YOPC   C4A14934   3.662   1.984   8.221  0.1011  0.0476 -0.0426
 1054YOPC   C1B14935   3.206   1.254   7.289  0.0409 -0.0672 -0.4232
 1054YOPC   C2B14936   3.121   1.129   7.661  0.0510  0.3611 -0.3620
 1054YOPC   D3B14937   3.305   1.038   8.085 -0.1303  0.2546  0.0554
 1054YOPC   C4B14938   3.451   0.679   8.373  0.0254 -0.2256 -0.1054
 1055YOPC   NC314939   6.384  14.764   5.627  0.1199 -0.2144 -0.2744
 1055YOPC   PO414940   6.058  14.476   5.736  0.1460 -0.3503  0.1477
 1055YOPC   GL114941   6.297  14.469   6.026  0.2496  0.4188  0.3675
 1055YOPC   GL214942   6.701  14.575   5.977  0.0761 -0.0597  0.1627
 1055YOPC   C1A14943   6.322  14.262   6.394 -0.0604 -0.1483 -0.2694
 1055YOPC   D2A14944   6.523  14.266   6.807  0.0533 -0.4291  0.3266
 1055YOPC   C3A14945   6.437  14.527   7.149  0.0584 -0.1133  0.0316
 1055YOPC   C4A14946   6.224  15.008   7.122 -0.1162 -0.0179 -0.2341
 1055YOPC   C1B14947   6.769  14.579   6.448 -0.1305 -0.4001  0.1013
 1055YOPC   C2B14948   6.877  14.648   6.906 -0.2188  0.1932  0.2256
 1055YOPC   D3B14949   6.783  14.982   7.060 -0.0787 -0.1498  0.1747
 1055YOPC   C4B14950   6.984  15.326   6.883  0.0394  0.0832  0.3367
 1056YOPC   NC314951   0.269   3.113   6.461  0.0367  0.2454 -0.0773
 1056YOPC   PO414952  -0.148   3.110   6.506  0.0758  0.0105 -0.0755
 1056YOPC   GL114953  -0.168   2.905   6.845 -0.0312  0.1557 -0.1992
 1056YOPC   GL214954  -0.446   2.951   6.950 -0.0604 -0.1731 -0.0109
 1056YOPC   C1A14955  -0.048   2.646   7.218 -0.0360 -0.1770  0.0759
 1056YOPC   D2A14956   0.283   2.674   7.336  0.0533 -0.2388  0.3026
 1056YOPC   C3A14957   0.437   2.570   7.688 -0.0145  0.2667 -0.0223
 1056YOPC   C4A14958   0.738   2.355   7.989 -0.1630 -0.0847  0.2085
 1056YOPC   C1B14959  -0.494   2.849   7.433  0.0692 -0.2583  0.1037
 1056YOPC   C2B14960  -0.372   2.842   7.968  0.1641 -0.0884  0.2279
 1056YOPC   D3B14961  -0.497   2.919   8.288 -0.0038 -0.0351 -0.0404
 1056YOPC   C4B14962  -0.751   2.686   8.647 -0.2252  0.3251 -0.3524
 1057YOPC   NC314963   1.054  10.877   6.336 -0.1022  0.2636 -0.0518
 1057YOPC   PO414964   1.476  10.904   6.293  0.3552 -0.0475 -0.2973
 1057YOPC   GL114965   1.523  10.957   6.720  0.3924  0.1445 -0.4190
 1057YOPC   GL214966   1.175  10.800   6.823 -0.2151 -0.0934  0.0373
 1057YOPC   C1A14967   1.796  11.139   7.073 -0.2669  0.5485  0.3561
 1057YOPC   D2A14968   2.159  10.965   7.439 -0.1937 -0.0837  0.0909
 1057YOPC   C3A14969   2.161  11.308   7.732 -0.2626 -0.0222 -0.3092
 1057YOPC   C4A14970   2.230  11.444   8.108  0.0403 -0.2090 -0.1046
 1057YOPC   C1B14971   1.274  11.106   7.101  0.2351 -0.0933 -0.0049
 1057YOPC   C2B14972   1.308  11.424   7.334 -0.0929  0.1102  0.1306
 1057YOPC   D3B14973   1.211  11.567   7.704  0.0944  0.1345 -0.0584
 1057YOPC   C4B14974   1.302  11.571   8.131  0.0176  0.1557  0.3247
 1058YOPC   NC314975   6.771  13.750   5.534 -0.1035 -0.0654  0.1613
 1058YOPC   PO414976   6.879  14.188   5.740  0.2246 -0.1691 -0.2410
 1058YOPC   GL114977   6.957  14.190   6.200 -0.0174 -0.0143 -0.1788
 1058YOPC   GL214978   7.162  13.987   6.246 -0.1946 -0.1753  0.4232
 1058YOPC   C1A14979   6.968  14.100   6.698 -0.1305  0.0711  0.0030
 1058YOPC   D2A14980   6.911  13.978   7.096  0.1454  0.0902  0.0912
 1058YOPC   C3A14981   6.823  14.298   7.450 -0.1093 -0.2517 -0.1458
 1058YOPC   C4A14982   6.523  14.383   7.791 -0.2019 -0.0291 -0.0198
 1058YOPC   C1B14983   6.805  13.737   6.444 -0.0702 -0.0274  0.1261
 1058YOPC   C2B14984   6.948  13.430   6.810  0.0655 -0.1027  0.0282
 1058YOPC   D3B14985   6.989  13.520   7.310  0.0948 -0.1118  0.4185
 1058YOPC   C4B14986   7.051  13.208   7.578  0.0500  0.0121 -0.0521
 1059YOPC   NC314987  14.303   4.388   6.574 -0.2032 -0.2341  0.0753
 1059YOPC   PO414988  13.972   4.251   6.735 -0.1980  0.0646  0.0272
 1059YOPC   GL114989  14.090   4.345   7.228  0.1478 -0.0998  0.1458
 1059YOPC   GL214990  13.723   4.285   7.228 -0.1288 -0.0988  0.2461
 1059YOPC   C1A14991  14.312   4.344   7.674  0.3571  0.2966  0.2907
 1059YOPC   D2A14992  14.385   4.295   8.050  0.0703  0.0105 -0.0522
 1059YOPC   C3A14993  14.255   4.472   8.456  0.0414  0.1779 -0.2047
 1059YOPC   C4A14994  13.888   4.785   8.655  0.2291  0.3896  0.1670
 1059YOPC   C1B14995  13.827   4.329   7.646 -0.2217  0.2809 -0.3545
 1059YOPC   C2B14996  13.910   4.454   8.028 -0.0565  0.2246  0.1195
 1059YOPC   D3B14997  13.678   4.457   8.335  0.1066 -0.3113 -0.4004
 1059YOPC   C4B14998  13.727   4.170   8.650  0.2841  0.1340 -0.2465
 1060YOPC   NC314999   4.310  11.907   6.659  0.2459  0.0989 -0.2492
 1060YOPC   PO415000   4.657  12.013   6.690 -0.0271 -0.1796 -0.0007
 1060YOPC   GL115001   4.427  12.184   7.073  0.0195  0.2135 -0.1711
 1060YOPC   GL215002   4.165  12.467   7.270 -0.0358  0.2306 -0.2039
 1060YOPC   C1A15003   4.458  12.171   7.485  0.1125 -0.0683 -0.0616
 1060YOPC   D2A15004   4.404  12.189   7.863  0.2805 -0.0992  0.0280
 1060YOPC   C3A15005   4.595  12.509   8.075  0.0867  0.0630  0.0953
 1060YOPC   C4A15006   4.869  12.876   8.265  0.0908  0.2876  0.1126
 1060YOPC   C1B15007   3.942  12.575   7.623 -0.0731  0.0264 -0.0662
 1060YOPC   C2B15008   4.034  12.817   8.042  0.1660  0.0011  0.0430
 1060YOPC   D3B15009   3.787  12.920   8.403  0.1710  0.1188  0.2611
 1060YOPC   C4B15010   3.742  12.834   8.840 -0.1355 -0.2329 -0.1665
 1061YOPC   NC315011   9.038   1.258   5.570 -0.0959  0.0751 -0.1739
 1061YOPC   PO415012   9.541   1.189   5.661  0.0175 -0.1816 -0.1669
 1061YOPC   GL115013   9.687   1.265   6.040 -0.0799 -0.1148 -0.0120
 1061YOPC   GL215014   9.795   1.064   6.336  0.3405 -0.2154 -0.2508
 1061YOPC   C1A15015   9.662   1.551   6.402  0.1711  0.1700 -0.3288
 1061YOPC   D2A15016   9.620   1.270   6.753  0.1123 -0.4104 -0.0622
 1061YOPC   C3A15017   9.340   1.389   7.006  0.2347 -0.0988 -0.1792
 1061YOPC   C4A15018   9.080   1.226   7.423  0.2274 -0.0447  0.3282
 1061YOPC   C1B15019  10.167   1.060   6.139 -0.0242 -0.0429 -0.1649
 1061YOPC   C2B15020  10.386   0.894   6.441  0.0574 -0.4834 -0.0647
 1061YOPC   D3B15021  10.653   1.064   6.853  0.0849 -0.1190 -0.0358
 1061YOPC   C4B15022  10.515   1.118   7.249 -0.1302  0.3235 -0.3790
 1062YOPC   NC315023  13.064  16.606   6.255  0.0196  0.0217 -0.1925
 1062YOPC   PO415024  13.151  17.084   6.230  0.1069 -0.1632  0.2207
 1062YOPC   GL115025  13.293  17.388   6.554  0.0577  0.1295 -0.0611
 1062YOPC   GL215026  13.082  17.596   6.688  0.2391  0.0337 -0.0879
 1062YOPC   C1A15027  13.501  17.547   6.916 -0.3462  0.0743  0.3384
 1062YOPC   D2A15028  13.329  17.542   7.394  0.0088  0.2226 -0.0915
 1062YOPC   C3A15029  13.614  17.319   7.617  0.1520  0.2031 -0.0064
 1062YOPC   C4A15030  13.961  17.166   7.651 -0.3282 -0.2285  0.1445
 1062YOPC   C1B15031  12.917  17.331   7.030 -0.1658 -0.2027  0.1719
 1062YOPC   C2B15032  13.125  17.093   7.287 -0.1066  0.2756 -0.1856
 1062YOPC   D3B15033  13.503  17.067   7.197  0.0143  0.0691  0.1377
 1062YOPC   C4B15034  13.923  16.844   7.184 -0.1336 -0.1371  0.0740
 1063YOPC   NC315035  13.628   3.000   6.401  0.3946 -0.0045  0.0990
 1063YOPC   PO415036  14.029   3.146   6.452  0.1063  0.0754  0.0206
 1063YOPC   GL115037  13.879   3.018   6.833 -0.1944  0.1460 -0.3263
 1063YOPC   GL215038  13.835   3.377   6.910 -0.0459  0.0838 -0.1012
 1063YOPC   C1A15039  13.953   2.878   7.226  0.1018 -0.2069 -0.1289
 1063YOPC   D2A15040  14.222   2.604   7.409 -0.0629  0.0845 -0.0060
 1063YOPC   C3A15041  14.574   2.718   7.725 -0.0587 -0.0169  0.0760
 1063YOPC   C4A15042  14.664   3.151   7.914  0.0839 -0.0457 -0.0419
 1063YOPC   C1B15043  13.750   3.387   7.272 -0.0856 -0.1234  0.0516
 1063YOPC   C2B15044  13.776   3.285   7.737  0.1714 -0.1418  0.0627
 1063YOPC   D3B15045  13.483   3.228   7.909 -0.0031  0.3417 -0.2771
 1063YOPC   C4B15046  13.413   3.141   8.379 -0.0333  0.0411 -0.0767
 1064YOPC   NC315047   4.140   5.543   6.357  0.0975  0.2234  0.1881
 1064YOPC   PO415048   4.173   5.157   6.641  0.1793  0.1247 -0.4141
 1064YOPC   GL115049   4.062   5.496   6.898  0.1179  0.2231 -0.0988
 1064YOPC   GL215050   3.704   5.467   7.086  0.1293  0.0174  0.0606
 1064YOPC   C1A15051   4.220   5.813   7.125  0.2587  0.0235  0.1849
 1064YOPC   D2A15052   4.020   5.804   7.537 -0.0516  0.0239  0.1065
 1064YOPC   C3A15053   4.139   5.796   8.027  0.1794  0.2081 -0.2003
 1064YOPC   C4A15054   4.229   5.769   8.573 -0.3367  0.3151  0.1950
 1064YOPC   C1B15055   3.537   5.479   7.522  0.1377 -0.2696 -0.1190
 1064YOPC   C2B15056   3.690   5.578   7.959  0.0190  0.0195  0.0678
 1064YOPC   D3B15057   3.730   5.606   8.419 -0.0927 -0.0690 -0.1025
 1064YOPC   C4B15058   3.778   5.760   8.876 -0.1232 -0.3856  0.0345
 1065YOPC   NC315059   3.040  14.556   6.244 -0.2656 -0.0453  0.0085
 1065YOPC   PO415060   2.716  14.342   6.458  0.0028  0.2664 -0.2398
 1065YOPC   GL115061   2.723  14.254   6.841  0.0917  0.1285  0.0813
 1065YOPC   GL215062   2.471  14.405   6.962 -0.0491 -0.5706  0.0119
 1065YOPC   C1A15063   2.840  14.273   7.245  0.0652 -0.1377  0.2406
 1065YOPC   D2A15064   3.195  14.250   7.454 -0.2586  0.0823 -0.2334
 1065YOPC   C3A15065   3.502  14.165   7.725 -0.2553  0.0688  0.2952
 1065YOPC   C4A15066   3.423  13.922   8.053  0.0460 -0.0913 -0.2558
 1065YOPC   C1B15067   2.363  14.398   7.401  0.0824  0.0772  0.0840
 1065YOPC   C2B15068   2.242  14.612   7.825  0.0050  0.1008  0.1186
 1065YOPC   D3B15069   2.374  14.822   8.204  0.0047  0.2000 -0.1102
 1065YOPC   C4B15070   2.452  15.186   8.344  0.0574 -0.0521  0.0755
 1066YOPC   NC315071   5.038   7.609   6.498  0.0672  0.1786 -0.1790
 1066YOPC   PO415072   4.794   7.210   6.571 -0.2560  0.1996  0.1517
 1066YOPC   GL115073   5.095   7.270   6.868 -0.0617  0.3249  0.0077
 1066YOPC   GL215074   5.353   7.209   6.806 -0.0590 -0.1033 -0.0518
 1066YOPC   C1A15075   5.263   7.128   7.286  0.0132  0.1048  0.0089
 1066YOPC   D2A15076   5.202   7.078   7.618 -0.0803  0.0326 -0.0229
 1066YOPC   C3A15077   5.190   6.715   7.850 -0.1662  0.1239  0.1376
 1066YOPC   C4A15078   5.100   6.460   8.237  0.1936 -0.1548  0.0541
 1066YOPC   C1B15079   5.697   7.291   7.017  0.0162  0.0685 -0.0480
 1066YOPC   C2B15080   5.788   7.049   7.354  0.0969  0.2200 -0.0266
 1066YOPC   D3B15081   6.008   6.742   7.319  0.2933  0.0894  0.2202
 1066YOPC   C4B15082   6.326   6.370   7.276 -0.2077 -0.1604 -0.0329
 1067YOPC   NC315083  17.535  11.062   5.915  0.0703 -0.0246  0.0410
 1067YOPC   PO415084  17.312  11.272   6.186 -0.1581 -0.0295  0.1306
 1067YOPC   GL115085  17.444  11.283   6.609 -0.2287  0.0036 -0.0874
 1067YOPC   GL215086  17.743  11.108   6.817  0.3875  0.0101  0.2031
 1067YOPC   C1A15087  17.424  11.328   7.088 -0.0342  0.1137 -0.4057
 1067YOPC   D2A15088  17.629  11.637   7.462  0.0757  0.1140 -0.0093
 1067YOPC   C3A15089  17.504  11.679   7.865 -0.2822  0.3091 -0.2432
 1067YOPC   C4A15090  17.238  11.641   8.305 -0.1511  0.3353 -0.2694
 1067YOPC   C1B15091  17.537  10.811   7.122 -0.0408 -0.0956  0.2135
 1067YOPC   C2B15092  17.197  10.694   7.054  0.1787 -0.2917  0.0135
 1067YOPC   D3B15093  17.177  10.371   7.371 -0.1483  0.2761  0.0451
 1067YOPC   C4B15094  16.931  10.173   7.721 -0.1180  0.2861 -0.0319
 1068YOPC   NC315095   0.079   2.644   6.512  0.1193 -0.0655 -0.1048
 1068YOPC   PO415096   0.388   2.310   6.422 -0.1497 -0.1156 -0.1169
 1068YOPC   GL115097   0.219   2.203   6.788 -0.2491 -0.1370 -0.1303
 1068YOPC   GL215098   0.249   2.232   7.021  0.1612  0.1277 -0.3459
 1068YOPC   C1A15099  -0.096   1.876   7.033 -0.1152 -0.0904  0.1475
 1068YOPC   D2A15100  -0.172   1.654   7.407  0.0543  0.0932  0.3005
 1068YOPC   C3A15101  -0.455   1.877   7.647 -0.0136 -0.2532 -0.2635
 1068YOPC   C4A15102  -0.478   2.236   7.911  0.2272 -0.0801 -0.2283
 1068YOPC   C1B15103   0.176   2.081   7.430 -0.0192 -0.1373  0.1495
 1068YOPC   C2B15104   0.158   2.047   7.809  0.1690  0.0311 -0.4470
 1068YOPC   D3B15105   0.366   1.852   8.036 -0.0610 -0.0737 -0.1275
 1068YOPC   C4B15106   0.433   1.940   8.447  0.2133 -0.0165 -0.2276
 1069YOPC   NC315107  10.418  13.970   6.162  0.2605 -0.2094  0.0556
 1069YOPC   PO415108  10.818  14.251   6.030  0.0648  0.0996 -0.3206
 1069YOPC   GL115109  10.694  14.440   6.422 -0.0291 -0.4044  0.0298
 1069YOPC   GL215110  10.572  14.757   6.453 -0.1494  0.4006 -0.0608
 1069YOPC   C1A15111  10.768  14.387   6.835 -0.1741 -0.0859  0.2655
 1069YOPC   D2A15112  10.758  14.584   7.156  0.1998 -0.0437 -0.1598
 1069YOPC   C3A15113  10.946  14.481   7.503 -0.1621  0.2213 -0.1723
 1069YOPC   C4A15114  11.096  14.282   7.895  0.0752 -0.3067  0.0594
 1069YOPC   C1B15115  10.392  14.844   6.745  0.1697 -0.0272 -0.1440
 1069YOPC   C2B15116  10.272  14.713   7.215 -0.0775  0.0621 -0.0446
 1069YOPC   D3B15117  10.048  15.014   7.564 -0.0745 -0.0197 -0.0657
 1069YOPC   C4B15118   9.909  15.181   7.884 -0.2522 -0.2120 -0.1917
 1070YOPC   NC315119   6.138  13.908   5.770 -0.0715 -0.0855  0.1204
 1070YOPC   PO415120   6.360  13.503   5.725 -0.0375  0.1416  0.1309
 1070YOPC   GL115121   6.579  13.295   6.038 -0.1719  0.1920 -0.0729
 1070YOPC   GL215122   6.852  13.312   6.134  0.0253  0.0477  0.0138
 1070YOPC   C1A15123   6.511  13.260   6.482 -0.1975 -0.2752 -0.1681
 1070YOPC   D2A15124   6.716  12.972   6.851  0.0923  0.0195 -0.0304
 1070YOPC   C3A15125   7.120  13.003   7.098 -0.1668 -0.2684  0.0676
 1070YOPC   C4A15126   7.522  13.206   7.247  0.1829 -0.1008  0.4643
 1070YOPC   C1B15127   7.041  13.054   6.522  0.3250 -0.0751  0.1585
 1070YOPC   C2B15128   7.169  12.698   6.767 -0.1489 -0.1461 -0.2407
 1070YOPC   D3B15129   6.968  12.570   7.104  0.0864  0.3073  0.1340
 1070YOPC   C4B15130   7.061  12.747   7.516  0.0938 -0.0239  0.1676
 1071YOPC   NC315131   6.367  17.142   5.803 -0.1599  0.3673  0.0788
 1071YOPC   PO415132   6.784  17.292   5.824 -0.0678  0.0544  0.2316
 1071YOPC   GL115133   6.879  17.123   6.173 -0.0360  0.1455  0.3216
 1071YOPC   GL215134   7.110  16.940   6.289 -0.0456  0.1858 -0.1376
 1071YOPC   C1A15135   6.797  17.048   6.654  0.1018  0.2137 -0.4204
 1071YOPC   D2A15136   6.954  16.713   6.971 -0.0698  0.1665 -0.1663
 1071YOPC   C3A15137   6.946  16.624   7.475  0.1258 -0.0120 -0.0032
 1071YOPC   C4A15138   6.898  16.876   7.876 -0.0944 -0.0629  0.1391
 1071YOPC   C1B15139   7.027  16.576   6.516 -0.0331  0.0403 -0.0021
 1071YOPC   C2B15140   7.042  16.244   6.748 -0.1538 -0.1163  0.1177
 1071YOPC   D3B15141   7.110  16.235   7.176 -0.1713 -0.2052 -0.0243
 1071YOPC   C4B15142   7.299  16.218   7.536 -0.1520 -0.0654 -0.0375
 1072YOPC   NC315143   5.384  15.520   6.002  0.0585  0.0268  0.2963
 1072YOPC   PO415144   5.693  15.730   6.297  0.1297 -0.3632  0.1580
 1072YOPC   GL115145   5.642  15.779   6.679 -0.0886 -0.2129  0.0021
 1072YOPC   GL215146   5.491  15.725   6.893  0.1392 -0.0346  0.0372
 1072YOPC   C1A15147   5.853  15.956   7.119  0.0292 -0.3718  0.0199
 1072YOPC   D2A15148   5.834  15.911   7.581 -0.0887 -0.4204  0.0855
 1072YOPC   C3A15149   6.069  15.649   7.848  0.0426 -0.2684  0.0608
 1072YOPC   C4A15150   6.127  15.665   8.192  0.0998 -0.1279 -0.0177
 1072YOPC   C1B15151   5.546  15.511   7.277 -0.0968  0.0652  0.1969
 1072YOPC   C2B15152   5.707  15.399   7.610  0.0290  0.3324 -0.3039
 1072YOPC   D3B15153   5.569  15.535   8.002  0.1342 -0.1959 -0.4912
 1072YOPC   C4B15154   5.395  15.780   8.311 -0.1110  0.3855  0.1028
 1073YOPC   NC315155   0.183  14.490   6.270  0.0579  0.1535  0.0491
 1073YOPC   PO415156   0.353  14.886   6.136  0.2667  0.2779 -0.1539
 1073YOPC   GL115157   0.377  14.993   6.545 -0.1808  0.0172  0.0197
 1073YOPC   GL215158   0.033  14.917   6.623  0.0062  0.2817 -0.1290
 1073YOPC   C1A15159   0.331  15.109   6.967 -0.1353  0.2455  0.0895
 1073YOPC   D2A15160   0.513  15.049   7.390 -0.0822 -0.0175  0.0373
 1073YOPC   C3A15161   0.401  15.246   7.835 -0.0584  0.1264 -0.0420
 1073YOPC   C4A15162   0.535  15.298   8.295  0.3094  0.1306  0.0968
 1073YOPC   C1B15163  -0.292  15.157   6.974 -0.0600 -0.1498 -0.0940
 1073YOPC   C2B15164  -0.346  15.234   7.377  0.4889 -0.1710 -0.0778
 1073YOPC   D3B15165  -0.584  15.501   7.650 -0.0165 -0.2157 -0.2316
 1073YOPC   C4B15166  -0.962  15.481   7.762  0.0445  0.0856  0.5018
 1074YOPC   NC315167  10.750  16.304   6.037 -0.2360  0.0664 -0.1392
 1074YOPC   PO415168  10.598  15.934   5.818 -0.1050 -0.1259  0.0145
 1074YOPC   GL115169  10.473  15.916   6.258 -0.2234 -0.2248  0.3056
 1074YOPC   GL215170  10.717  15.796   6.517 -0.2950  0.1283 -0.0436
 1074YOPC   C1A15171  10.239  15.659   6.421  0.0748 -0.0165 -0.0335
 1074YOPC   D2A15172   9.882  15.693   6.623 -0.1604  0.2438 -0.0427
 1074YOPC   C3A15173   9.866  15.774   7.125 -0.0664 -0.0988  0.1307
 1074YOPC   C4A15174   9.648  15.958   7.430  0.0285  0.0083 -0.1404
 1074YOPC   C1B15175  10.445  15.565   6.889  0.0091  0.1591 -0.0229
 1074YOPC   C2B15176  10.492  15.154   7.276  0.0199  0.0494  0.1689
 1074YOPC   D3B15177  10.668  14.873   7.622  0.0555 -0.0598 -0.2019
 1074YOPC   C4B15178  10.921  14.742   8.058 -0.1845  0.1173 -0.0778
 1075YOPC   NC315179  12.716   6.253   6.325 -0.0315 -0.1651  0.0121
 1075YOPC   PO415180  12.886   6.554   6.606 -0.0524  0.1045  0.0062
 1075YOPC   GL115181  12.902   6.220   6.872  0.1532  0.0108 -0.1005
 1075YOPC   GL215182  12.791   5.966   6.688  0.1716 -0.0127 -0.1921
 1075YOPC   C1A15183  12.868   6.130   7.324  0.1382  0.1220  0.2283
 1075YOPC   D2A15184  12.687   6.119   7.592 -0.1870 -0.2475 -0.0785
 1075YOPC   C3A15185  12.911   6.101   8.010 -0.0998 -0.1628 -0.0998
 1075YOPC   C4A15186  13.055   6.139   8.323  0.1534 -0.2255  0.3000
 1075YOPC   C1B15187  12.415   5.959   6.971 -0.3121 -0.0381 -0.0410
 1075YOPC   C2B15188  12.365   5.874   7.350 -0.0205  0.1099  0.1226
 1075YOPC   D3B15189  12.460   5.739   7.828 -0.1262 -0.0683 -0.0147
 1075YOPC   C4B15190  12.204   5.445   8.158  0.0017  0.3260 -0.0141
 1076YOPC   NC315191  16.347   9.779   6.447  0.1007 -0.2106 -0.0148
 1076YOPC   PO415192  16.722   9.560   6.368  0.2524  0.4198  0.1028
 1076YOPC   GL115193  16.660   9.520   6.771 -0.1479  0.0226 -0.0729
 1076YOPC   GL215194  16.442   9.373   6.818  0.1761  0.0203  0.3246
 1076YOPC   C1A15195  16.624   9.377   7.255  0.0763  0.3182  0.4192
 1076YOPC   D2A15196  16.635   9.299   7.668  0.5060  0.3766  0.2096
 1076YOPC   C3A15197  16.730   9.590   7.846 -0.0145  0.0862 -0.4103
 1076YOPC   C4A15198  16.657   9.937   8.155 -0.1732 -0.0497  0.1597
 1076YOPC   C1B15199  16.398   9.032   7.000  0.0184 -0.0411 -0.2522
 1076YOPC   C2B15200  16.193   9.074   7.438 -0.1609 -0.0662 -0.0768
 1076YOPC   D3B15201  16.131   8.875   7.838 -0.0426  0.1527  0.1737
 1076YOPC   C4B15202  15.823   8.909   8.145 -0.3363  0.1201  0.1396
 1077YOPC   NC315203  13.258  15.424   5.629 -0.0046 -0.1138  0.0540
 1077YOPC   PO415204  13.584  15.528   6.081  0.0168 -0.0597 -0.0058
 1077YOPC   GL115205  13.722  15.486   6.612  0.1239 -0.0260  0.0130
 1077YOPC   GL215206  14.005  15.649   6.640 -0.0672 -0.1080 -0.1181
 1077YOPC   C1A15207  13.711  15.529   7.017  0.1194  0.1267 -0.0633
 1077YOPC   D2A15208  13.620  15.318   7.325 -0.1159 -0.3635 -0.1023
 1077YOPC   C3A15209  13.483  15.424   7.775 -0.1336 -0.1909  0.1571
 1077YOPC   C4A15210  13.668  15.495   8.195 -0.1174 -0.1790 -0.2277
 1077YOPC   C1B15211  14.346  15.584   6.981  0.0788  0.2803 -0.0079
 1077YOPC   C2B15212  14.512  15.605   7.302  0.4865  0.1071  0.0491
 1077YOPC   D3B15213  14.866  15.384   7.380  0.0822  0.2721 -0.1887
 1077YOPC   C4B15214  15.255  15.489   7.685  0.3418 -0.1546  0.2348
 1078YOPC   NC315215   3.878   7.043   6.403 -0.1678 -0.0384  0.0935
 1078YOPC   PO415216   3.793   6.662   6.181 -0.2518  0.0403  0.0919
 1078YOPC   GL115217   3.889   6.484   6.609  0.2872  0.1338 -0.1618
 1078YOPC   GL215218   4.146   6.281   6.821 -0.3701  0.2448  0.1480
 1078YOPC   C1A15219   3.678   6.501   6.978  0.0949  0.3284  0.3170
 1078YOPC   D2A15220   3.694   6.754   7.220  0.1045  0.1477  0.0083
 1078YOPC   C3A15221   3.680   6.578   7.677 -0.0400  0.2084  0.0288
 1078YOPC   C4A15222   3.679   6.653   8.047 -0.0956  0.3421 -0.0976
 1078YOPC   C1B15223   4.490   6.266   7.200  0.0091 -0.0946  0.1423
 1078YOPC   C2B15224   4.434   6.196   7.646 -0.0855  0.0519 -0.2079
 1078YOPC   D3B15225   4.142   6.393   7.929  0.1169 -0.0074 -0.4517
 1078YOPC   C4B15226   4.136   6.602   8.320  0.1413  0.1759  0.0365
 1079YOPC   NC315227   3.257  16.560   6.578 -0.1223  0.0802 -0.0410
 1079YOPC   PO415228   3.422  16.290   6.239  0.0977 -0.1823  0.0590
 1079YOPC   GL115229   3.273  16.006   6.563  0.0849  0.1251 -0.3301
 1079YOPC   GL215230   3.006  16.051   6.669 -0.3372  0.0723  0.0542
 1079YOPC   C1A15231   3.364  15.744   6.913  0.2053  0.1836  0.1184
 1079YOPC   D2A15232   3.429  15.415   7.172 -0.3640 -0.0468  0.2821
 1079YOPC   C3A15233   3.441  15.466   7.642  0.1902  0.1603  0.4584
 1079YOPC   C4A15234   3.513  15.550   8.118  0.0355 -0.1667  0.3096
 1079YOPC   C1B15235   3.179  16.124   7.121 -0.0736  0.2570 -0.0150
 1079YOPC   C2B15236   3.266  16.066   7.560 -0.2104  0.0997 -0.2347
 1079YOPC   D3B15237   3.183  15.822   7.872 -0.0357  0.2690 -0.0197
 1079YOPC   C4B15238   3.224  15.896   8.264  0.1312 -0.2302 -0.1991
 1080YOPC   NC315239   1.405   2.880   6.478  0.3659  0.0085 -0.1289
 1080YOPC   PO415240   1.187   2.999   6.817  0.2902 -0.0487  0.0158
 1080YOPC   GL115241   1.156   2.861   7.250  0.0173 -0.0333 -0.1358
 1080YOPC   GL215242   0.807   2.697   7.187 -0.0335 -0.1810  0.4135
 1080YOPC   C1A15243   1.541   2.954   7.628 -0.1506  0.3091  0.3779
 1080YOPC   D2A15244   1.608   3.092   8.090 -0.2549  0.1264 -0.1349
 1080YOPC   C3A15245   1.570   3.544   8.272  0.3762  0.1204 -0.0204
 1080YOPC   C4A15246   1.290   3.985   8.269 -0.0906  0.0702  0.0997
 1080YOPC   C1B15247   0.973   2.507   7.572  0.0704  0.1723  0.0100
 1080YOPC   C2B15248   1.095   2.725   7.988 -0.2271 -0.0329 -0.0337
 1080YOPC   D3B15249   0.966   2.766   8.367 -0.3641  0.2159 -0.0967
 1080YOPC   C4B15250   0.797   2.833   8.824  0.0025 -0.0828  0.2105
 1081YOPC   NC315251   6.538  15.689   5.902 -0.1008  0.2013  0.2724
 1081YOPC   PO415252   7.052  15.577   5.870 -0.0279  0.0502  0.2223
 1081YOPC   GL115253   6.808  15.322   6.166 -0.1010 -0.0470 -0.0704
 1081YOPC   GL215254   6.973  15.026   6.237 -0.3700  0.0865 -0.0496
 1081YOPC   C1A15255   6.649  15.337   6.561 -0.2216  0.1999 -0.2182
 1081YOPC   D2A15256   6.430  15.418   6.920  0.2569 -0.0749  0.0989
 1081YOPC   C3A15257   6.671  15.400   7.303  0.3984 -0.0843 -0.0449
 1081YOPC   C4A15258   7.029  15.276   7.467  0.0812  0.0192  0.1325
 1081YOPC   C1B15259   7.254  14.960   6.618 -0.2608 -0.0608 -0.1208
 1081YOPC   C2B15260   7.368  14.900   7.090 -0.1418 -0.3382  0.0960
 1081YOPC   D3B15261   7.794  14.991   7.176  0.2954 -0.1203 -0.0815
 1081YOPC   C4B15262   8.079  14.860   7.467 -0.0817 -0.1924  0.2406
 1082YOPC   NC315263   0.806   5.401   6.478  0.1143 -0.0599  0.0753
 1082YOPC   PO415264   0.663   5.662   6.786  0.0521  0.2007  0.2669
 1082YOPC   GL115265   0.662   5.500   7.236  0.1256  0.3848 -0.2256
 1082YOPC   GL215266   1.023   5.453   7.246 -0.0815 -0.1632  0.0852
 1082YOPC   C1A15267   0.601   5.283   7.549  0.1975  0.1782  0.1364
 1082YOPC   D2A15268   0.531   5.207   7.916  0.3066  0.1594 -0.0445
 1082YOPC   C3A15269   0.571   4.820   8.158  0.5287  0.0134  0.3238
 1082YOPC   C4A15270   0.367   4.451   8.252  0.2959 -0.0745  0.1373
 1082YOPC   C1B15271   0.964   5.542   7.737  0.1298 -0.0975  0.1834
 1082YOPC   C2B15272   0.833   5.607   8.118  0.5070 -0.1277  0.1503
 1082YOPC   D3B15273   0.657   5.303   8.474  0.1433 -0.0842 -0.0381
 1082YOPC   C4B15274   0.722   5.084   8.861  0.3410 -0.0970 -0.0345
 1083YOPC   NC315275  11.036   1.078   5.740  0.2251 -0.0183 -0.0081
 1083YOPC   PO415276  10.802   0.715   5.652 -0.0485  0.3169  0.0210
 1083YOPC   GL115277  11.098   0.716   6.078 -0.0555  0.1976  0.0776
 1083YOPC   GL215278  10.807   0.954   6.148  0.2359 -0.2780  0.2685
 1083YOPC   C1A15279  11.375   0.896   6.437  0.2313  0.0623 -0.0285
 1083YOPC   D2A15280  11.496   1.231   6.772  0.0630  0.0624  0.0183
 1083YOPC   C3A15281  11.526   1.073   7.224  0.0368 -0.0164 -0.1133
 1083YOPC   C4A15282  11.402   1.174   7.585  0.4246 -0.1127 -0.2419
 1083YOPC   C1B15283  10.909   0.776   6.532  0.1399  0.0762 -0.2144
 1083YOPC   C2B15284  11.085   0.908   6.883  0.1625 -0.1047  0.2134
 1083YOPC   D3B15285  11.077   1.313   7.117  0.1349  0.0105 -0.2571
 1083YOPC   C4B15286  10.903   1.324   7.515 -0.1178 -0.3658 -0.1165
 1084ERGO   ROH15287   8.987  12.058   6.439 -0.0379 -0.0861  0.1093
 1084ERGO    R115288   9.081  12.086   6.705 -0.0533  0.0686  0.0988
 1084ERGO    R215289   9.045  12.317   6.852 -0.3318  0.0449  0.0660
 1084ERGO    R315290   8.934  12.147   7.032 -0.1066 -0.0684  0.1026
 1084ERGO    R415291   8.952  12.402   7.174 -0.4247 -0.0028  0.0524
 1084ERGO    R515292   9.029  12.211   7.242 -0.1719  0.1009  0.0870
 1084ERGO    C115293   8.793  12.292   7.530 -0.2675 -0.1369  0.0788
 1084ERGO    C215294   8.477  12.408   7.677  0.1151 -0.1018 -0.4137
 1085ERGO   ROH15295   4.706   1.626   6.530  0.0392 -0.1405  0.1027
 1085ERGO    R115296   4.878   1.568   6.747  0.0341 -0.0766  0.1243
 1085ERGO    R215297   5.058   1.752   6.848  0.0576 -0.0572  0.0521
 1085ERGO    R315298   4.933   1.697   7.082  0.0507  0.0483  0.0733
 1085ERGO    R415299   5.190   1.810   7.162  0.0054  0.1701  0.0336
 1085ERGO    R515300   5.107   1.621   7.227  0.0555  0.1868  0.1395
 1085ERGO    C115301   5.149   1.793   7.565 -0.0315  0.4014  0.0429
 1085ERGO    C215302   5.286   1.946   7.799 -0.2484 -0.0577  0.0051
 1086ERGO   ROH15303   5.672   0.323   6.428  0.1334 -0.0182  0.1067
 1086ERGO    R115304   5.728   0.338   6.705  0.0185 -0.0143  0.1296
 1086ERGO    R215305   5.551   0.449   6.887 -0.0883 -0.0821  0.0631
 1086ERGO    R315306   5.581   0.209   7.012 -0.0603 -0.0777  0.0668
 1086ERGO    R415307   5.575   0.406   7.229 -0.2040 -0.0779  0.0724
 1086ERGO    R515308   5.728   0.255   7.195 -0.1407 -0.0320  0.1247
 1086ERGO    C115309   5.615   0.156   7.546 -0.2452 -0.0713  0.0813
 1086ERGO    C215310   5.735   0.127   7.806 -0.1974  0.1729 -0.0194
 1087ERGO   ROH15311  14.017   3.838   7.061  0.1043  0.0422 -0.1455
 1087ERGO    R115312  14.162   3.790   7.300  0.0184  0.2044 -0.0590
 1087ERGO    R215313  14.089   3.900   7.543 -0.3088  0.0484 -0.0813
 1087ERGO    R315314  14.094   3.641   7.624  0.0178  0.0325 -0.1370
 1087ERGO    R415315  14.203   3.792   7.851 -0.2556  0.1347 -0.0701
 1087ERGO    R515316  14.296   3.622   7.751  0.0078  0.2797 -0.0793
 1087ERGO    C115317  14.274   3.485   8.107  0.0821  0.1700 -0.1159
 1087ERGO    C215318  14.401   3.337   8.403 -0.3471 -0.2802  0.0265
 1088ERGO   ROH15319   3.756  17.306   7.119  0.1632 -0.1248 -0.0853
 1088ERGO    R115320   3.601  17.275   7.354  0.2673  0.0232  0.0040
 1088ERGO    R215321   3.433  17.060   7.394  0.1021  0.1728  0.1086
 1088ERGO    R315322   3.576  17.032   7.624  0.2057  0.0597  0.0326
 1088ERGO    R415323   3.297  16.980   7.702  0.2300  0.0435  0.1331
 1088ERGO    R515324   3.433  17.124   7.793  0.2836 -0.0039  0.1381
 1088ERGO    C115325   3.352  16.908   8.097  0.4018 -0.1378  0.0762
 1088ERGO    C215326   3.402  16.825   8.471  0.0472 -0.0691 -0.1653
 1089ERGO   ROH15327  15.343   0.609  10.601  0.0063  0.0893 -0.0629
 1089ERGO    R115328  15.234   0.538  10.350 -0.0239  0.0623 -0.0427
 1089ERGO    R215329  15.151   0.725  10.165  0.0266  0.0446 -0.0864
 1089ERGO    R315330  15.319   0.590  10.000 -0.0185 -0.0464 -0.0574
 1089ERGO    R415331  15.149   0.746   9.820  0.0340 -0.0320 -0.0907
 1089ERGO    R515332  15.184   0.531   9.812 -0.0364 -0.0438 -0.0438
 1089ERGO    C115333  15.306   0.630   9.465 -0.0041 -0.1621 -0.0661
 1089ERGO    C215334  15.396   0.634   9.152  0.0184 -0.0669 -0.0728
 1090ERGO   ROH15335  16.071   3.392  10.532 -0.1866 -0.1836 -0.0327
 1090ERGO    R115336  16.153   3.547  10.309 -0.1097 -0.1044  0.0500
 1090ERGO    R215337  16.330   3.452  10.119 -0.0866 -0.0568  0.0471
 1090ERGO    R315338  16.131   3.522   9.947 -0.0371  0.0533  0.0337
 1090ERGO    R415339  16.355   3.448   9.774 -0.0467 -0.0125  0.0495
 1090ERGO    R515340  16.243   3.634   9.768  0.0314  0.0352  0.0651
 1090ERGO    C115341  16.183   3.511   9.412  0.0229  0.1165  0.0384
 1090ERGO    C215342  16.210   3.400   9.150 -0.3032  0.3005 -0.0302
 1091ERGO   ROH15343   6.982   2.836   6.644  0.1556  0.0459  0.0015
 1091ERGO    R115344   6.846   2.944   6.867  0.0660  0.0123 -0.0340
 1091ERGO    R215345   6.583   3.032   6.855  0.0532 -0.0093 -0.1162
 1091ERGO    R315346   6.550   2.860   7.062  0.0061 -0.0388 -0.1504
 1091ERGO    R415347   6.328   3.049   7.087  0.0406 -0.0215 -0.1314
 1091ERGO    R515348   6.471   2.998   7.242  0.0119 -0.0694 -0.1332
 1091ERGO    C115349   6.148   2.897   7.417 -0.0109 -0.0562 -0.1724
 1091ERGO    C215350   6.152   3.002   7.782 -0.1694  0.0430 -0.1896
 1092ERGO   ROH15351   7.355   3.150   6.964  0.1275 -0.1119 -0.0231
 1092ERGO    R115352   7.624   3.211   7.031  0.0818 -0.1662  0.2158
 1092ERGO    R215353   7.730   3.465   7.004  0.2418 -0.2579 -0.0042
 1092ERGO    R315354   7.795   3.430   7.266 -0.0842  0.0623  0.1296
 1092ERGO    R415355   7.937   3.674   7.186  0.1546 -0.1235 -0.0564
 1092ERGO    R515356   8.024   3.498   7.280 -0.0536 -0.0557  0.2959
 1092ERGO    C115357   8.118   3.763   7.537 -0.2021  0.2554  0.0388
 1092ERGO    C215358   8.050   4.153   7.593 -0.2495  0.0951 -0.1345
 1093ERGO   ROH15359  11.811  11.115   6.837  0.0229 -0.1552  0.1391
 1093ERGO    R115360  11.887  11.267   7.064  0.0831 -0.4060  0.2880
 1093ERGO    R215361  11.728  11.468   7.168  0.4129 -0.0618  0.1282
 1093ERGO    R315362  11.755  11.325   7.398 -0.2322 -0.2054  0.1368
 1093ERGO    R415363  11.657  11.587   7.485  0.5283  0.1417  0.0806
 1093ERGO    R515364  11.835  11.484   7.558  0.1644 -0.4598  0.2183
 1093ERGO    C115365  11.641  11.522   7.885 -0.0101  0.1253  0.0610
 1093ERGO    C215366  11.460  11.661   7.959  0.0249  0.2718  0.1601
 1094ERGO   ROH15367  12.136  15.869  10.067  0.0002  0.1000  0.0963
 1094ERGO    R115368  11.985  15.792   9.841  0.0057 -0.1065  0.1603
 1094ERGO    R215369  11.925  15.967   9.635 -0.2685 -0.2025  0.1526
 1094ERGO    R315370  12.039  15.775   9.481 -0.1005 -0.0970  0.1439
 1094ERGO    R415371  11.949  15.979   9.291 -0.1654 -0.1091  0.1631
 1094ERGO    R515372  11.901  15.766   9.285 -0.0325 -0.1372  0.0985
 1094ERGO    C115373  12.070  15.806   8.945  0.0524  0.0444  0.1612
 1094ERGO    C215374  12.182  15.681   8.637 -0.1426  0.2035  0.3417
 1095ERGO   ROH15375  17.361   5.907   7.128  0.2431 -0.0155 -0.0609
 1095ERGO    R115376  17.433   5.861   7.398  0.2460 -0.0527 -0.0684
 1095ERGO    R215377  17.564   6.050   7.551  0.1047 -0.0144  0.0027
 1095ERGO    R315378  17.355   6.010   7.721  0.1146 -0.2057 -0.0274
 1095ERGO    R415379  17.562   6.139   7.885 -0.0150 -0.0324  0.0075
 1095ERGO    R515380  17.459   5.952   7.929  0.1408 -0.1275 -0.0165
 1095ERGO    C115381  17.365   6.153   8.239 -0.0750 -0.2226 -0.0179
 1095ERGO    C215382  17.461   6.183   8.552  0.1370  0.1300  0.0341
 1096ERGO   ROH15383  14.263  16.874   6.803  0.2398  0.2394 -0.0677
 1096ERGO    R115384  14.401  17.016   7.006  0.1741  0.2881 -0.0556
 1096ERGO    R215385  14.316  17.260   7.101  0.1059  0.2834 -0.0937
 1096ERGO    R315386  14.329  17.135   7.342  0.0857  0.3061 -0.0818
 1096ERGO    R415387  14.371  17.419   7.403 -0.1935  0.3433 -0.0677
 1096ERGO    R515388  14.500  17.253   7.460 -0.0808  0.4591  0.0075
 1096ERGO    C115389  14.416  17.394   7.805 -0.3871  0.3996 -0.0414
 1096ERGO    C215390  14.384  17.505   8.118  0.0918 -0.2087 -0.0851
 1097ERGO   ROH15391  11.234  15.823   6.597  0.0357 -0.1350 -0.0804
 1097ERGO    R115392  11.358  15.793   6.849  0.0289 -0.1280 -0.0755
 1097ERGO    R215393  11.367  15.997   7.036  0.0303 -0.1188 -0.0816
 1097ERGO    R315394  11.255  15.810   7.198  0.0194 -0.1095 -0.0799
 1097ERGO    R415395  11.321  16.032   7.377  0.1021 -0.1453 -0.0697
 1097ERGO    R515396  11.380  15.824   7.401  0.0595 -0.1595 -0.1026
 1097ERGO    C115397  11.189  15.876   7.727  0.1336 -0.1523 -0.0612
 1097ERGO    C215398  11.043  15.706   8.021  0.1231 -0.0287 -0.1087
 1098ERGO   ROH15399   5.276   4.391   6.851  0.1621  0.1467  0.0131
 1098ERGO    R115400   5.158   4.502   7.083  0.0758  0.0916 -0.0037
 1098ERGO    R215401   5.029   4.347   7.272 -0.0386  0.0509 -0.1102
 1098ERGO    R315402   5.201   4.469   7.443 -0.0922 -0.0351  0.0055
 1098ERGO    R415403   4.991   4.357   7.615 -0.2003 -0.0261 -0.1250
 1098ERGO    R515404   5.060   4.565   7.611 -0.1481 -0.0439 -0.0388
 1098ERGO    C115405   5.131   4.478   7.976 -0.3448 -0.1517 -0.0251
 1098ERGO    C215406   4.934   4.425   8.243 -0.0967 -0.3180  0.0700
 1099ERGO   ROH15407   3.914  12.013   7.066  0.1400  0.0003 -0.0480
 1099ERGO    R115408   4.018  11.968   7.326  0.1111 -0.0788 -0.0504
 1099ERGO    R215409   3.882  12.041   7.555  0.1681  0.0197 -0.0494
 1099ERGO    R315410   3.919  11.780   7.621 -0.0231 -0.0095 -0.0501
 1099ERGO    R415411   3.878  11.917   7.877  0.0762  0.0217 -0.0489
 1099ERGO    R515412   4.045  11.788   7.824 -0.0166 -0.1022 -0.0492
 1099ERGO    C115413   3.910  11.600   8.127 -0.1569 -0.0046 -0.0494
 1099ERGO    C215414   3.594  11.600   8.233 -0.1038 -0.3802 -0.0336
 1100ERGO   ROH15415   9.967   9.117   6.853  0.1491  0.0780  0.0527
 1100ERGO    R115416  10.082   9.240   7.081  0.0273  0.1300  0.0860
 1100ERGO    R215417   9.930   9.343   7.287 -0.0721 -0.1286  0.1411
 1100ERGO    R315418  10.086   9.181   7.440  0.1375  0.0009  0.0638
 1100ERGO    R415419  10.068   9.431   7.592 -0.0038 -0.0166  0.0789
 1100ERGO    R515420  10.251   9.327   7.533  0.0572  0.1403 -0.0095
 1100ERGO    C115421  10.295   9.330   7.912  0.2326  0.1702 -0.0298
 1100ERGO    C215422  10.387   9.094   8.240  0.2129  0.0104  0.2263
 1101ERGO   ROH15423   7.091   0.336  10.109  0.2981 -0.1381 -0.1010
 1101ERGO    R115424   6.999   0.249   9.856  0.3127 -0.0820 -0.1253
 1101ERGO    R215425   6.772   0.350   9.737  0.1188 -0.3107  0.0484
 1101ERGO    R315426   6.940   0.399   9.529 -0.0360  0.0771  0.0050
 1101ERGO    R415427   6.679   0.353   9.404 -0.0135 -0.3425  0.0840
 1101ERGO    R515428   6.866   0.251   9.356  0.1619  0.0060 -0.0255
 1101ERGO    C115429   6.783   0.401   9.015 -0.2358  0.0031  0.0641
 1101ERGO    C215430   6.675   0.412   8.654  0.0260  0.0274 -0.0913
 1102ERGO   ROH15431   7.597  14.392   9.721  0.1393 -0.3250  0.0394
 1102ERGO    R115432   7.678  14.328   9.457 -0.1655 -0.5439 -0.0073
 1102ERGO    R215433   7.510  14.202   9.276 -0.6435 -0.0325  0.0470
 1102ERGO    R315434   7.573  14.416   9.120 -0.0672 -0.1798  0.0534
 1102ERGO    R415435   7.457  14.220   8.935 -0.9151  0.2360  0.0988
 1102ERGO    R515436   7.650  14.319   8.915 -0.5788 -0.3984 -0.0504
 1102ERGO    C115437   7.485  14.430   8.590 -0.5322  0.2541  0.1350
 1102ERGO    C215438   7.518  14.365   8.303 -0.2174 -0.0956 -0.0093
 1103ERGO   ROH15439   2.076  17.447  10.499 -0.2557 -0.2429  0.0284
 1103ERGO    R115440   2.186  17.554  10.262 -0.1576 -0.2057  0.0896
 1103ERGO    R215441   2.333  17.401  10.083 -0.0774 -0.1758  0.1290
 1103ERGO    R315442   2.152  17.495   9.904 -0.0043 -0.1559  0.0656
 1103ERGO    R415443   2.386  17.426   9.743  0.0846 -0.0871  0.1601
 1103ERGO    R515444   2.282  17.617   9.745  0.0580 -0.1002  0.1578
 1103ERGO    C115445   2.247  17.527   9.376  0.2475 -0.0166  0.1187
 1103ERGO    C215446   2.265  17.567   8.985  0.1571 -0.1076 -0.1819
 1104ERGO   ROH15447  10.098   0.550   6.398  0.1819  0.0145 -0.1129
 1104ERGO    R115448  10.235   0.447   6.624  0.0762  0.0025 -0.0517
 1104ERGO    R215449  10.374   0.609   6.800  0.1458 -0.0224 -0.0721
 1104ERGO    R315450  10.216   0.488   6.985  0.0279  0.1351 -0.0707
 1104ERGO    R415451  10.428   0.619   7.141  0.1341 -0.0582 -0.0705
 1104ERGO    R515452  10.370   0.409   7.151 -0.0597  0.0018 -0.0599
 1104ERGO    C115453  10.312   0.511   7.514  0.0163  0.0688 -0.0682
 1104ERGO    C215454  10.392   0.738   7.734  0.0479 -0.3543  0.1472
 1105ERGO   ROH15455   9.530  17.489   9.669  0.3376 -0.0613  0.0070
 1105ERGO    R115456   9.640  17.435   9.414  0.0937 -0.3496 -0.0439
 1105ERGO    R215457   9.519  17.265   9.233 -0.4050 -0.0907  0.0207
 1105ERGO    R315458   9.540  17.480   9.068  0.0268 -0.1378  0.0036
 1105ERGO    R415459   9.526  17.249   8.888 -0.2819 -0.1284  0.0252
 1105ERGO    R515460   9.679  17.404   8.888 -0.0224 -0.3848  0.0722
 1105ERGO    C115461   9.550  17.441   8.532  0.1950 -0.1943  0.0118
 1105ERGO    C215462   9.575  17.351   8.160 -0.2741  0.0771  0.3264
 1106ERGO   ROH15463  11.213   2.897   6.383 -0.1062 -0.1710 -0.1820
 1106ERGO    R115464  11.079   2.686   6.515  0.0197 -0.2249 -0.1369
 1106ERGO    R215465  11.201   2.444   6.571  0.1909 -0.1189 -0.0170
 1106ERGO    R315466  11.121   2.499   6.825  0.0893 -0.0779 -0.0582
 1106ERGO    R415467  11.125   2.206   6.810  0.0412 -0.0721 -0.0177
 1106ERGO    R515468  10.958   2.331   6.874  0.0395 -0.0382 -0.1060
 1106ERGO    C115469  11.006   2.119   7.188 -0.1412 -0.0063 -0.0568
 1106ERGO    C215470  11.128   1.804   7.379 -0.2602  0.0637 -0.0370
 1107ERGO   ROH15471  11.617   3.428   6.937  0.2493  0.0222  0.2679
 1107ERGO    R115472  11.572   3.526   7.198  0.0360 -0.0405  0.2562
 1107ERGO    R215473  11.318   3.550   7.306 -0.0454 -0.1782  0.0998
 1107ERGO    R315474  11.425   3.400   7.506 -0.1010 -0.1594  0.1437
 1107ERGO    R415475  11.201   3.541   7.631 -0.0700 -0.0655  0.0942
 1107ERGO    R515476  11.407   3.539   7.700 -0.0752 -0.1065  0.1086
 1107ERGO    C115477  11.232   3.396   8.008 -0.1364  0.0178  0.1321
 1107ERGO    C215478  11.022   3.283   8.284  0.1611 -0.1852 -0.2448
 1108ERGO   ROH15479  16.999   1.033  10.424 -0.0134  0.0596  0.1366
 1108ERGO    R115480  17.126   0.960  10.182 -0.0526  0.1165  0.0988
 1108ERGO    R215481  17.025   0.766  10.012 -0.0040  0.0560  0.1413
 1108ERGO    R315482  17.043   0.964   9.827 -0.1683  0.0562  0.1240
 1108ERGO    R415483  17.025   0.718   9.670  0.0505  0.0179  0.1467
 1108ERGO    R515484  17.179   0.871   9.653 -0.0786  0.1524  0.1384
 1108ERGO    C115485  17.042   0.876   9.297 -0.0722 -0.0042  0.1334
 1108ERGO    C215486  17.155   0.999   8.907 -0.0770  0.3053  0.1694
 1109ERGO   ROH15487   7.160  14.548   9.974 -0.0193  0.1080  0.1500
 1109ERGO    R115488   7.125  14.660   9.717  0.1057  0.1995  0.1714
 1109ERGO    R215489   7.333  14.692   9.538  0.1279 -0.0994  0.1371
 1109ERGO    R315490   7.170  14.551   9.372 -0.1255  0.1708  0.1489
 1109ERGO    R415491   7.313  14.737   9.196  0.1932 -0.0844  0.1352
 1109ERGO    R515492   7.097  14.712   9.210  0.1459  0.2909  0.1427
 1109ERGO    C115493   7.149  14.631   8.841 -0.0066  0.1779  0.1453
 1109ERGO    C215494   7.031  14.670   8.499  0.1589 -0.1379  0.0296
 1110ERGO   ROH15495  16.071  14.567  10.476 -0.0909  0.0053  0.0807
 1110ERGO    R115496  15.975  14.472  10.227  0.0474 -0.0930  0.0647
 1110ERGO    R215497  15.903  14.642  10.020 -0.0794 -0.1673  0.0521
 1110ERGO    R315498  16.080  14.492   9.879  0.0925  0.0015  0.0820
 1110ERGO    R415499  15.913  14.621   9.676 -0.0859 -0.2483  0.0561
 1110ERGO    R515500  15.952  14.407   9.694  0.1718 -0.2031  0.1140
 1110ERGO    C115501  16.084  14.467   9.342  0.0718 -0.1370  0.0865
 1110ERGO    C215502  16.201  14.517   9.047 -0.3057 -0.1084  0.1315
 1111ERGO   ROH15503  15.829  13.019  10.376 -0.0747  0.1811 -0.1649
 1111ERGO    R115504  15.957  13.043  10.125 -0.0775  0.0272 -0.1827
 1111ERGO    R215505  15.982  12.830   9.949 -0.1671 -0.0588 -0.0988
 1111ERGO    R315506  15.864  13.002   9.775 -0.1126 -0.0840 -0.1595
 1111ERGO    R415507  16.003  12.810   9.605  0.0874  0.0039 -0.0879
 1111ERGO    R515508  16.022  13.027   9.598  0.0022  0.0091 -0.0422
 1111ERGO    C115509  15.905  12.960   9.241  0.2865  0.0168 -0.1386
 1111ERGO    C215510  15.797  12.901   8.927 -0.0488 -0.4154  0.0215
 1112ERGO   ROH15511   5.478   8.675   7.261  0.1406  0.0347 -0.0469
 1112ERGO    R115512   5.573   8.478   7.441  0.2949  0.0806 -0.0741
 1112ERGO    R215513   5.777   8.526   7.621  0.1039  0.2922  0.1022
 1112ERGO    R315514   5.594   8.438   7.802  0.0867 -0.0545 -0.0763
 1112ERGO    R415515   5.841   8.473   7.957 -0.0738  0.1727  0.1175
 1112ERGO    R515516   5.719   8.293   7.947  0.1668  0.0207 -0.0767
 1112ERGO    C115517   5.707   8.361   8.322 -0.1935 -0.2225 -0.0411
 1112ERGO    C215518   5.683   8.285   8.644 -0.1197  0.1268  0.0027
 1113ERGO   ROH15519   6.241  12.170   8.317  0.0870 -0.0761 -0.1324
 1113ERGO    R115520   6.214  11.888   8.302  0.0395 -0.0799  0.0172
 1113ERGO    R215521   6.235  11.725   8.524 -0.0671  0.0422  0.1161
 1113ERGO    R315522   5.992  11.636   8.441 -0.0556  0.0391  0.0835
 1113ERGO    R415523   6.105  11.413   8.594 -0.1130  0.0761  0.1854
 1113ERGO    R515524   6.027  11.405   8.390 -0.0632  0.0180  0.1666
 1113ERGO    C115525   5.801  11.147   8.557 -0.1289  0.0928  0.1951
 1113ERGO    C215526   5.627  11.078   8.776 -0.1064 -0.2210 -0.0003
 1114ERGO   ROH15527   9.674   2.500   6.839  0.0050 -0.0067 -0.0847
 1114ERGO    R115528   9.527   2.482   7.080 -0.0004  0.1136 -0.0783
 1114ERGO    R215529   9.568   2.281   7.265 -0.2207  0.0244 -0.1225
 1114ERGO    R315530   9.602   2.489   7.436  0.0345 -0.0473 -0.0819
 1114ERGO    R415531   9.566   2.255   7.610 -0.3411 -0.0294 -0.1267
 1114ERGO    R515532   9.453   2.441   7.618 -0.0805  0.1338 -0.1260
 1114ERGO    C115533   9.597   2.436   7.971 -0.1717 -0.1280 -0.0911
 1114ERGO    C215534   9.871   2.480   8.303 -0.0491  0.2049 -0.3158
 1115ERGO   ROH15535  15.863  12.569   6.515 -0.0831 -0.0419  0.0302
 1115ERGO    R115536  15.708  12.646   6.739 -0.0487 -0.1104  0.0783
 1115ERGO    R215537  15.809  12.647   6.997  0.0446 -0.0249  0.0433
 1115ERGO    R315538  15.724  12.905   6.994 -0.1084 -0.0746  0.0456
 1115ERGO    R415539  15.750  12.838   7.279  0.0938 -0.0098  0.0432
 1115ERGO    R515540  15.573  12.920   7.180 -0.0112 -0.1306  0.1291
 1115ERGO    C115541  15.635  13.191   7.441 -0.0213 -0.0478  0.0453
 1115ERGO    C215542  15.518  13.282   7.650  0.1603  0.4075 -0.0299
 1116ERGO   ROH15543  13.087   6.608   7.109 -0.0191  0.3551 -0.0494
 1116ERGO    R115544  12.986   6.727   7.344 -0.1972  0.1082  0.0034
 1116ERGO    R215545  12.871   6.580   7.548 -0.0018 -0.1496 -0.0644
 1116ERGO    R315546  13.055   6.707   7.701 -0.1819  0.0408 -0.0034
 1116ERGO    R415547  12.870   6.585   7.893 -0.0279 -0.2946 -0.0624
 1116ERGO    R515548  12.929   6.795   7.885 -0.3135 -0.2075  0.0279
 1116ERGO    C115549  13.043   6.708   8.239 -0.2123 -0.2004 -0.0038
 1116ERGO    C215550  13.115   6.516   8.599  0.2678 -0.0810  0.0298
 1117ERGO   ROH15551  14.798   7.422   6.835 -0.1727 -0.1038  0.1299
 1117ERGO    R115552  14.866   7.323   7.092 -0.1314  0.0004  0.1603
 1117ERGO    R215553  15.096   7.400   7.225 -0.0302 -0.0594  0.0285
 1117ERGO    R315554  14.921   7.463   7.423  0.0816  0.1584  0.0595
 1117ERGO    R415555  15.184   7.457   7.554  0.0915 -0.1901  0.0189
 1117ERGO    R515556  15.006   7.347   7.615 -0.0414  0.0393  0.0399
 1117ERGO    C115557  15.072   7.549   7.932  0.2673 -0.0618  0.0425
 1117ERGO    C215558  15.155   7.694   8.213  0.2734 -0.0558  0.2196
 1118ERGO   ROH15559  13.134   7.654   8.368 -0.0548 -0.0490 -0.0580
 1118ERGO    R115560  12.939   7.851   8.310 -0.0736 -0.0751 -0.0823
 1118ERGO    R215561  12.996   8.076   8.159 -0.0656 -0.0311 -0.0124
 1118ERGO    R315562  12.785   7.990   8.010  0.0029 -0.0396 -0.1057
 1118ERGO    R415563  12.874   8.237   7.879 -0.0964  0.0943  0.0716
 1118ERGO    R515564  12.672   8.191   7.947 -0.0867 -0.0525  0.0077
 1118ERGO    C115565  12.605   8.249   7.576 -0.0500  0.1594  0.0330
 1118ERGO    C215566  12.664   8.378   7.303  0.0069  0.1417 -0.2007
 1119ERGO   ROH15567  16.127   1.425   7.056  0.1646 -0.0125  0.1031
 1119ERGO    R115568  16.025   1.534   7.297  0.1191  0.0314  0.0645
 1119ERGO    R215569  15.968   1.379   7.518  0.0351  0.0654  0.0680
 1119ERGO    R315570  16.133   1.555   7.644  0.0316  0.0522  0.0904
 1119ERGO    R415571  16.058   1.360   7.851  0.0503  0.0146  0.0610
 1119ERGO    R515572  16.038   1.577   7.863  0.0401  0.0111  0.0980
 1119ERGO    C115573  16.265   1.514   8.164  0.0556 -0.0273  0.0779
 1119ERGO    C215574  16.331   1.560   8.434 -0.1754  0.0603 -0.1980
 1120ERGO   ROH15575  13.133  17.378  10.292 -0.0929 -0.2128 -0.0257
 1120ERGO    R115576  13.142  17.287  10.025 -0.3231 -0.0326 -0.0993
 1120ERGO    R215577  12.995  17.404   9.822 -0.0662  0.4840 -0.0112
 1120ERGO    R315578  13.237  17.425   9.702 -0.0076  0.0039  0.0075
 1120ERGO    R415579  13.046  17.418   9.481  0.0087  0.2981 -0.0078
 1120ERGO    R515580  13.219  17.289   9.506 -0.2315 -0.0155  0.0446
 1120ERGO    C115581  13.304  17.446   9.169  0.1074 -0.2610  0.0114
 1120ERGO    C215582  13.345  17.520   8.847  0.0614  0.0507  0.1228
 1121ERGO   ROH15583   4.187   9.076   7.355 -0.1525 -0.0142  0.0528
 1121ERGO    R115584   4.264   8.977   7.609  0.0358  0.0011  0.0031
 1121ERGO    R215585   4.474   9.084   7.752 -0.0253  0.1846 -0.0405
 1121ERGO    R315586   4.286   9.107   7.948  0.0128 -0.0596  0.0278
 1121ERGO    R415587   4.543   9.128   8.088  0.0401  0.3057 -0.0693
 1121ERGO    R515588   4.380   8.990   8.134  0.2450  0.0826  0.0026
 1121ERGO    C115589   4.408   9.175   8.467  0.1140  0.1470 -0.0221
 1121ERGO    C215590   4.370   9.340   8.763  0.0888  0.2221  0.0179
 1122ERGO   ROH15591   4.745   0.613   6.729  0.2835 -0.0337  0.0754
 1122ERGO    R115592   4.627   0.677   6.978  0.1599  0.1652 -0.0321
 1122ERGO    R215593   4.679   0.534   7.209 -0.1865  0.1583  0.0473
 1122ERGO    R315594   4.743   0.780   7.308  0.0219  0.1109  0.0346
 1122ERGO    R415595   4.706   0.612   7.545 -0.1348  0.1562  0.0438
 1122ERGO    R515596   4.609   0.802   7.504  0.0310  0.2401  0.0271
 1122ERGO    C115597   4.783   0.887   7.833  0.0909  0.1104  0.0298
 1122ERGO    C215598   4.924   1.028   8.163 -0.2393  0.1832  0.2149
 1123ERGO   ROH15599  10.651  17.491   9.979 -0.0935  0.0072  0.0107
 1123ERGO    R115600  10.523  17.666   9.797 -0.0936 -0.0385 -0.0338
 1123ERGO    R215601  10.664  17.844   9.639 -0.0993 -0.0113 -0.0113
 1123ERGO    R315602  10.528  17.722   9.437 -0.0161 -0.0631 -0.0362
 1123ERGO    R415603  10.645  17.961   9.315  0.0800 -0.1288 -0.0657
 1123ERGO    R515604  10.435  17.903   9.311  0.0745 -0.0970 -0.1503
 1123ERGO    C115605  10.506  17.915   8.936  0.2626 -0.2457 -0.1210
 1123ERGO    C215606  10.719  17.976   8.666  0.2806 -0.1341  0.0515
 1124ERGO   ROH15607   4.504   5.275   7.018 -0.1181 -0.0007 -0.1004
 1124ERGO    R115608   4.392   5.376   7.257  0.0327 -0.0001 -0.0286
 1124ERGO    R215609   4.137   5.310   7.342 -0.0145  0.2052 -0.0018
 1124ERGO    R315610   4.267   5.237   7.570 -0.0291 -0.0234 -0.0639
 1124ERGO    R415611   3.994   5.300   7.656  0.0638  0.2476  0.0354
 1124ERGO    R515612   4.178   5.383   7.738  0.1801  0.0139  0.0158
 1124ERGO    C115613   4.032   5.226   8.053  0.0957  0.0579 -0.0012
 1124ERGO    C215614   4.057   5.259   8.381  0.0154  0.1104  0.2697
 1125ERGO   ROH15615   2.218   4.281   7.306 -0.2289 -0.0030 -0.0090
 1125ERGO    R115616   2.243   4.380   7.569  0.0196 -0.0527 -0.0112
 1125ERGO    R215617   2.038   4.365   7.755  0.0657  0.2343  0.0670
 1125ERGO    R315618   2.228   4.244   7.906 -0.0483 -0.0529 -0.0138
 1125ERGO    R415619   2.021   4.324   8.097  0.0602  0.0859  0.0494
 1125ERGO    R515620   2.233   4.371   8.109  0.1175 -0.1548  0.0484
 1125ERGO    C115621   2.190   4.185   8.439 -0.0501 -0.2700 -0.0367
 1125ERGO    C215622   2.354   4.279   8.671 -0.0920 -0.2178  0.1485
 1126ERGO   ROH15623  13.599  15.978   6.777  0.0273  0.0483  0.0262
 1126ERGO    R115624  13.428  16.003   7.001  0.0288 -0.0199  0.0339
 1126ERGO    R215625  13.503  15.927   7.256  0.0771  0.0266  0.0279
 1126ERGO    R315626  13.431  16.181   7.318 -0.0379 -0.0043  0.0278
 1126ERGO    R415627  13.462  16.047   7.577  0.3214  0.0783  0.0426
 1126ERGO    R515628  13.287  16.157   7.508  0.1673 -0.0600  0.1852
 1126ERGO    C115629  13.371  16.356   7.823  0.3558  0.0795  0.0511
 1126ERGO    C215630  13.399  16.555   8.077  0.0140  0.1452  0.0014
 1127ERGO   ROH15631  13.252   1.206  10.135  0.0746 -0.0316  0.0230
 1127ERGO    R115632  13.255   1.345   9.889  0.0362 -0.1278 -0.0314
 1127ERGO    R215633  13.489   1.406   9.756  0.0203 -0.0571 -0.0192
 1127ERGO    R315634  13.368   1.278   9.549  0.1199 -0.2011  0.0093
 1127ERGO    R415635  13.594   1.417   9.426 -0.0241  0.0160 -0.0319
 1127ERGO    R515636  13.386   1.430   9.365 -0.0506 -0.1962 -0.0090
 1127ERGO    C115637  13.541   1.302   9.041  0.0436 -0.0765 -0.0125
 1127ERGO    C215638  13.700   1.354   8.719 -0.1547  0.1945 -0.4193
 1128ERGO   ROH15639   9.300  14.958   9.728  0.3930 -0.1726  0.0555
 1128ERGO    R115640   9.262  15.008   9.452  0.0098 -0.0961  0.1171
 1128ERGO    R215641   9.380  14.855   9.255  0.0164  0.1657 -0.0860
 1128ERGO    R315642   9.124  14.829   9.167 -0.0517 -0.1637  0.1882
 1128ERGO    R415643   9.288  14.695   8.963 -0.0267  0.4884 -0.2534
 1128ERGO    R515644   9.141  14.853   8.929 -0.3792  0.2828  0.1966
 1128ERGO    C115645   8.994  14.578   8.710 -0.1159  0.3672 -0.0935
 1128ERGO    C215646   8.913  14.351   8.607 -0.0374 -0.0448  0.1563
 1129ERGO   ROH15647  16.599  11.442  10.738  0.0078 -0.0982 -0.0396
 1129ERGO    R115648  16.682  11.318  10.497  0.0614 -0.0002 -0.0720
 1129ERGO    R215649  16.507  11.185  10.330  0.1300 -0.1000 -0.0681
 1129ERGO    R315650  16.609  11.354  10.143 -0.0178  0.0057 -0.0545
 1129ERGO    R415651  16.472  11.147   9.988 -0.0288  0.0288 -0.0673
 1129ERGO    R515652  16.678  11.211   9.964 -0.0628  0.1016 -0.1475
 1129ERGO    C115653  16.546  11.284   9.614 -0.2600  0.2030 -0.0540
 1129ERGO    C215654  16.566  11.350   9.212  0.1284  0.2984  0.1197
 1130ERGO   ROH15655  12.926  11.858   7.221  0.0760  0.0193 -0.0341
 1130ERGO    R115656  12.756  11.831   7.446  0.0354  0.0315 -0.0638
 1130ERGO    R215657  12.740  11.597   7.592 -0.0051  0.0358 -0.0676
 1130ERGO    R315658  12.797  11.762   7.801 -0.0333  0.0307 -0.0549
 1130ERGO    R415659  12.790  11.493   7.917  0.0536  0.0088 -0.0846
 1130ERGO    R515660  12.678  11.667   7.985  0.0075 -0.0275 -0.0545
 1130ERGO    C115661  12.873  11.586   8.303  0.0612 -0.0118 -0.0826
 1130ERGO    C215662  12.932  11.396   8.599 -0.1675  0.0426 -0.0952
 1131ERGO   ROH15663   7.423   9.885   6.605 -0.2486  0.0914 -0.0628
 1131ERGO    R115664   7.256   9.992   6.807 -0.2162 -0.0277  0.0293
 1131ERGO    R215665   7.059   9.843   6.932 -0.0791 -0.1548  0.1026
 1131ERGO    R315666   7.187   9.923   7.157 -0.0155 -0.1144  0.0518
 1131ERGO    R415667   6.933   9.814   7.252 -0.0944  0.1379  0.1252
 1131ERGO    R515668   7.014  10.011   7.297  0.0554  0.1027  0.0034
 1131ERGO    C115669   6.979   9.872   7.650 -0.0435  0.3463  0.0906
 1131ERGO    C215670   7.052   9.782   8.010  0.0637  0.0323 -0.6347
 1132ERGO   ROH15671  16.766   8.691   6.823  0.0797 -0.0936 -0.0221
 1132ERGO    R115672  16.744   8.645   7.101  0.0670 -0.0308 -0.0124
 1132ERGO    R215673  16.912   8.765   7.285  0.0016  0.0808 -0.0236
 1132ERGO    R315674  16.678   8.845   7.398 -0.0420  0.0205 -0.0702
 1132ERGO    R415675  16.855   8.786   7.625 -0.0378  0.1576 -0.0352
 1132ERGO    R515676  16.655   8.706   7.591 -0.0031  0.0669 -0.0311
 1132ERGO    C115677  16.602   8.874   7.930 -0.1014  0.1458 -0.0856
 1132ERGO    C215678  16.685   9.095   8.197 -0.2279  0.0807  0.2747
 1133ERGO   ROH15679  15.073   1.316   6.853  0.0652 -0.0345 -0.0239
 1133ERGO    R115680  15.170   1.306   7.119  0.1463 -0.1169 -0.0561
 1133ERGO    R215681  15.025   1.401   7.334  0.3164  0.0486 -0.0112
 1133ERGO    R315682  15.066   1.151   7.431  0.0916  0.0086 -0.0119
 1133ERGO    R415683  15.061   1.323   7.668  0.1209 -0.0089 -0.0019
 1133ERGO    R515684  15.219   1.182   7.613  0.0401 -0.1202  0.0534
 1133ERGO    C115685  15.122   1.042   7.955 -0.2038 -0.0799  0.0029
 1133ERGO    C215686  14.988   0.840   8.171 -0.0086  0.0877 -0.1460
 1134ERGO   ROH15687   0.358  17.424  10.462 -0.0301  0.0645 -0.0669
 1134ERGO    R115688   0.276  17.282  10.231  0.0006  0.1400 -0.1245
 1134ERGO    R215689   0.109  17.391  10.040  0.0964  0.2313 -0.1526
 1134ERGO    R315690   0.310  17.320   9.871  0.1267  0.2074 -0.1069
 1134ERGO    R415691   0.071  17.333   9.702  0.1126 -0.0084 -0.1157
 1134ERGO    R515692   0.208  17.165   9.720  0.1891  0.0606 -0.0042
 1134ERGO    C115693   0.236  17.233   9.346  0.1504 -0.1704 -0.0513
 1134ERGO    C215694   0.267  17.276   9.081  0.0782  0.2044 -0.3742
 1135ERGO   ROH15695  10.374  14.009   6.698 -0.1139 -0.2640 -0.0348
 1135ERGO    R115696  10.535  13.867   6.883 -0.1973 -0.2575  0.0429
 1135ERGO    R215697  10.718  13.992   7.048 -0.1075 -0.2764 -0.0437
 1135ERGO    R315698  10.581  13.862   7.244 -0.1815 -0.0692  0.0448
 1135ERGO    R415699  10.800  13.999   7.383 -0.0534 -0.1583 -0.0589
 1135ERGO    R515700  10.751  13.786   7.394 -0.2151 -0.1190  0.0606
 1135ERGO    C115701  10.721  13.881   7.763 -0.0915  0.1051  0.0152
 1135ERGO    C215702  10.757  13.957   8.074 -0.1840  0.1137  0.0994
 1136ERGO   ROH15703   2.141   1.373   7.035  0.1814 -0.0415 -0.0758
 1136ERGO    R115704   2.141   1.527   7.273 -0.0488 -0.1119 -0.0272
 1136ERGO    R215705   1.950   1.497   7.470 -0.0145 -0.4530 -0.0406
 1136ERGO    R315706   2.167   1.462   7.630  0.0370 -0.1879 -0.0464
 1136ERGO    R415707   1.958   1.561   7.810 -0.1333 -0.5878 -0.0111
 1136ERGO    R515708   2.158   1.644   7.784 -0.2553 -0.2646  0.0342
 1136ERGO    C115709   2.167   1.565   8.157 -0.1541 -0.4174  0.0006
 1136ERGO    C215710   2.206   1.289   8.375 -0.1003 -0.2073 -0.2773
 1137ERGO   ROH15711   5.621  15.255   6.468 -0.0391  0.0426 -0.0507
 1137ERGO    R115712   5.544  15.146   6.717  0.0583  0.2115  0.0550
 1137ERGO    R215713   5.638  14.903   6.809 -0.2056  0.0871  0.0025
 1137ERGO    R315714   5.710  15.050   7.026  0.2449  0.0309 -0.0980
 1137ERGO    R415715   5.773  14.773   7.099 -0.3056 -0.0899 -0.0298
 1137ERGO    R515716   5.650  14.912   7.213  0.0571  0.2296 -0.0068
 1137ERGO    C115717   5.918  14.834   7.473  0.0592 -0.2460 -0.1429
 1137ERGO    C215718   6.154  14.647   7.589 -0.0240 -0.1326  0.3180
 1138ERGO   ROH15719  16.537   1.051  10.640  0.2132 -0.3084 -0.0172
 1138ERGO    R115720  16.490   1.110  10.367  0.1258 -0.2918  0.0015
 1138ERGO    R215721  16.637   1.297  10.227 -0.0831 -0.1030  0.0326
 1138ERGO    R315722  16.678   1.090  10.056  0.1183 -0.0202 -0.0229
 1138ERGO    R415723  16.696   1.329   9.888  0.1154  0.0555  0.0794
 1138ERGO    R515724  16.568   1.156   9.854  0.2130  0.0078 -0.0678
 1138ERGO    C115725  16.768   1.154   9.530  0.4201  0.2254  0.0546
 1138ERGO    C215726  16.816   1.255   9.177  0.1694 -0.0819 -0.1506
 1139ERGO   ROH15727  14.746   1.622  10.382  0.1809 -0.3375  0.0007
 1139ERGO    R115728  14.780   1.488  10.135  0.1976 -0.2932 -0.0224
 1139ERGO    R215729  14.668   1.579   9.900  0.0429 -0.3601  0.0188
 1139ERGO    R315730  14.924   1.566   9.810  0.0240 -0.1541 -0.0657
 1139ERGO    R415731  14.759   1.555   9.568 -0.0436 -0.3580 -0.0043
 1139ERGO    R515732  14.914   1.413   9.626  0.1002 -0.2043 -0.0241
 1139ERGO    C115733  15.053   1.528   9.290 -0.1116 -0.1635 -0.0970
 1139ERGO    C215734  15.074   1.485   8.981 -0.0835  0.0878  0.0423
 1140ERGO   ROH15735   1.233   9.630   7.097 -0.0382  0.0799  0.1283
 1140ERGO    R115736   1.406   9.676   7.317  0.0133  0.0465  0.0959
 1140ERGO    R215737   1.337   9.840   7.529  0.0407 -0.0253  0.1659
 1140ERGO    R315738   1.397   9.619   7.676  0.1171 -0.0605  0.0805
 1140ERGO    R415739   1.413   9.839   7.867  0.0578 -0.1356  0.1615
 1140ERGO    R515740   1.567   9.691   7.827  0.0990 -0.0696  0.0995
 1140ERGO    C115741   1.514   9.631   8.200  0.1394 -0.2329  0.0787
 1140ERGO    C215742   1.445   9.553   8.567  0.0482  0.4170 -0.0255
 1141ERGO   ROH15743   9.050   4.469   9.969 -0.1833 -0.2084  0.2104
 1141ERGO    R115744   8.895   4.516   9.737 -0.1220 -0.1542  0.1804
 1141ERGO    R215745   8.986   4.668   9.525 -0.0839 -0.0675  0.2601
 1141ERGO    R315746   8.925   4.447   9.381 -0.0064 -0.0277  0.1642
 1141ERGO    R415747   8.922   4.665   9.186 -0.0394  0.0520  0.2498
 1141ERGO    R515748   8.762   4.522   9.222 -0.0071 -0.0067  0.1734
 1141ERGO    C115749   8.827   4.454   8.853  0.0593  0.1588  0.1537
 1141ERGO    C215750   8.818   4.519   8.627  0.2649  0.0275 -0.1521
 1142ERGO   ROH15751  15.033   5.922   7.239  0.0512  0.0970  0.0443
 1142ERGO    R115752  15.146   5.881   7.495  0.1164  0.2000  0.0317
 1142ERGO    R215753  15.238   6.089   7.653 -0.1595  0.2946  0.0632
 1142ERGO    R315754  15.069   5.981   7.836 -0.0068  0.0322  0.0566
 1142ERGO    R415755  15.298   6.076   7.993  0.0135  0.0665  0.0267
 1142ERGO    R515756  15.213   5.875   7.995  0.1467 -0.0006 -0.0943
 1142ERGO    C115757  15.174   5.966   8.363  0.2577 -0.3126 -0.0008
 1142ERGO    C215758  15.177   5.977   8.680  0.0713 -0.1634  0.0376
 1143ERGO   ROH15759   8.740   2.494   6.311  0.3152 -0.3747 -0.1231
 1143ERGO    R115760   8.647   2.505   6.578  0.2023  0.0144 -0.1731
 1143ERGO    R215761   8.496   2.304   6.691 -0.0295  0.2754 -0.0057
 1143ERGO    R315762   8.690   2.310   6.882 -0.1101  0.3194  0.0758
 1143ERGO    R415763   8.457   2.190   7.015  0.0139 -0.2260 -0.1683
 1143ERGO    R515764   8.572   2.362   7.084 -0.2759 -0.1327  0.1085
 1143ERGO    C115765   8.616   2.129   7.383 -0.0365 -0.4766 -0.1866
 1143ERGO    C215766   8.608   2.155   7.818 -0.0576  0.0069  0.1670
 1144ERGO   ROH15767   5.786  11.099   6.849 -0.1393 -0.1200  0.0661
 1144ERGO    R115768   5.932  11.156   7.085 -0.1910 -0.0093  0.0713
 1144ERGO    R215769   5.820  11.284   7.303 -0.3527 -0.2728  0.1403
 1144ERGO    R315770   5.912  11.066   7.437 -0.0110 -0.1984  0.0380
 1144ERGO    R415771   5.926  11.284   7.632 -0.2564 -0.2227  0.1097
 1144ERGO    R515772   6.088  11.151   7.575 -0.0796  0.0114  0.0120
 1144ERGO    C115773   6.074  11.080   7.949  0.1204 -0.1238 -0.0041
 1144ERGO    C215774   6.175  10.919   8.204  0.0675  0.0639 -0.0781
 1145ERGO   ROH15775   3.580   0.766  10.580 -0.0754  0.2231 -0.0491
 1145ERGO    R115776   3.552   0.905  10.335 -0.2560  0.0095 -0.1540
 1145ERGO    R215777   3.769   0.978  10.179 -0.3116  0.4783 -0.0347
 1145ERGO    R315778   3.634   0.843   9.985  0.1672 -0.0029 -0.0571
 1145ERGO    R415779   3.760   1.069   9.846 -0.4647  0.3630 -0.0628
 1145ERGO    R515780   3.548   1.016   9.843 -0.3157 -0.2938 -0.1376
 1145ERGO    C115781   3.628   0.997   9.470 -0.1044 -0.1558 -0.1000
 1145ERGO    C215782   3.607   1.052   9.161  0.0078  0.1074 -0.0946
 1146ERGO   ROH15783  16.219  17.228  10.595  0.0213 -0.0582  0.1030
 1146ERGO    R115784  16.375  17.307  10.373  0.0587 -0.1511  0.0975
 1146ERGO    R215785  16.473  17.126  10.188 -0.0830 -0.2064  0.0787
 1146ERGO    R315786  16.348  17.289  10.010  0.0173 -0.1045  0.0980
 1146ERGO    R415787  16.534  17.131   9.848 -0.2649 -0.3833  0.0409
 1146ERGO    R515788  16.519  17.348   9.853  0.0056 -0.3599 -0.0157
 1146ERGO    C115789  16.451  17.286   9.483 -0.2770 -0.3905  0.0369
 1146ERGO    C215790  16.534  17.198   9.228  0.0336 -0.1641 -0.1837
 1147ERGO   ROH15791  10.332  16.483   6.308  0.0373 -0.0033 -0.0599
 1147ERGO    R115792  10.232  16.337   6.530 -0.0325 -0.0299 -0.1089
 1147ERGO    R215793  10.392  16.169   6.681 -0.0675 -0.0035 -0.0460
 1147ERGO    R315794  10.300  16.320   6.887 -0.1877 -0.0304 -0.0781
 1147ERGO    R415795  10.322  16.050   6.998  0.1122  0.0199  0.0041
 1147ERGO    R515796  10.146  16.178   7.001 -0.0228 -0.1579 -0.0062
 1147ERGO    C115797  10.195  16.124   7.376  0.1039  0.0082  0.0031
 1147ERGO    C215798  10.072  16.104   7.628  0.1635  0.0699  0.0345
 1148ERGO   ROH15799  14.082   6.748   6.909  0.1465  0.0239 -0.0693
 1148ERGO    R115800  14.078   6.831   7.180  0.2693  0.0335 -0.0691
 1148ERGO    R215801  14.122   7.093   7.257  0.2257  0.0523 -0.1038
 1148ERGO    R315802  13.883   7.062   7.382  0.3047 -0.0221  0.0289
 1148ERGO    R415803  13.985   7.318   7.481  0.2875  0.0026 -0.0167
 1148ERGO    R515804  13.919   7.150   7.602  0.4032 -0.0223  0.0129
 1148ERGO    C115805  13.682   7.420   7.730  0.3977 -0.0961  0.1586
 1148ERGO    C215806  13.444   7.454   7.907  0.0194  0.2482 -0.3169
 1149ERGO   ROH15807   1.580  10.631   7.138  0.2094 -0.1072  0.0463
 1149ERGO    R115808   1.644  10.688   7.408  0.1987  0.2183 -0.0172
 1149ERGO    R215809   1.638  10.945   7.511 -0.3319  0.2844 -0.1938
 1149ERGO    R315810   1.472  10.833   7.694 -0.0090  0.0335 -0.0433
 1149ERGO    R415811   1.562  11.080   7.820 -0.5705  0.4013 -0.3006
 1149ERGO    R515812   1.573  10.881   7.905 -0.0503  0.4881 -0.1120
 1149ERGO    C115813   1.362  11.053   8.172 -0.4062  0.2340 -0.2215
 1149ERGO    C215814   1.100  11.211   8.493  0.0474  0.1250  0.1329
 1150ERGO   ROH15815   2.851  16.501   6.937 -0.0522  0.1141 -0.2074
 1150ERGO    R115816   2.734  16.403   7.176 -0.0283  0.0037 -0.2408
 1150ERGO    R215817   2.669  16.137   7.211  0.2826 -0.0732 -0.2321
 1150ERGO    R315818   2.823  16.163   7.434  0.1648  0.1447 -0.1727
 1150ERGO    R415819   2.598  15.995   7.518  0.2527  0.0062 -0.2016
 1150ERGO    R515820   2.666  16.178   7.613  0.0686  0.1037 -0.2505
 1150ERGO    C115821   2.701  15.936   7.906  0.1247  0.2572 -0.1280
 1150ERGO    C215822   2.583  15.634   8.048  0.2174  0.1160 -0.0267
 1151ERGO   ROH15823   6.609  16.768  10.285  0.0369  0.0429  0.0438
 1151ERGO    R115824   6.549  16.891  10.037 -0.0889  0.0034  0.0538
 1151ERGO    R215825   6.738  16.927   9.838 -0.1467  0.1298  0.0190
 1151ERGO    R315826   6.555  16.796   9.686 -0.0870  0.0075  0.0534
 1151ERGO    R415827   6.695  16.974   9.499 -0.1078 -0.0448 -0.0109
 1151ERGO    R515828   6.479  16.961   9.530 -0.1078 -0.0883 -0.0380
 1151ERGO    C115829   6.498  16.878   9.158 -0.0290 -0.2613  0.0040
 1151ERGO    C215830   6.481  16.773   8.833 -0.1278  0.0296 -0.1862
 1152ERGO   ROH15831   0.820   1.399  10.725  0.1810  0.0288  0.0430
 1152ERGO    R115832   0.839   1.503  10.462  0.1629  0.0378  0.0475
 1152ERGO    R215833   1.067   1.476  10.307  0.0796 -0.1144 -0.0289
 1152ERGO    R315834   0.893   1.370  10.128 -0.0556  0.0346  0.0077
 1152ERGO    R415835   1.076   1.530   9.966  0.2017 -0.2649 -0.0519
 1152ERGO    R515836   0.859   1.543   9.967  0.1993  0.0297 -0.0722
 1152ERGO    C115837   0.918   1.461   9.599  0.1459 -0.2127 -0.0309
 1152ERGO    C215838   0.986   1.413   9.341 -0.2433  0.0093  0.0918
 1153ERGO   ROH15839   5.312   7.714   6.869  0.2656 -0.2277 -0.0901
 1153ERGO    R115840   5.465   7.721   7.107  0.1017 -0.0213  0.0128
 1153ERGO    R215841   5.351   7.708   7.358 -0.0560 -0.0626 -0.0595
 1153ERGO    R315842   5.523   7.501   7.391  0.1199  0.1054  0.1083
 1153ERGO    R415843   5.416   7.551   7.659 -0.2500 -0.0458 -0.0071
 1153ERGO    R515844   5.627   7.542   7.603 -0.1702  0.1766  0.2398
 1153ERGO    C115845   5.616   7.264   7.864 -0.1978  0.1218  0.1811
 1153ERGO    C215846   5.418   7.092   8.157 -0.1261  0.1494  0.5009
 1154ERGO   ROH15847   9.264  11.171   6.856 -0.1609  0.0157  0.0964
 1154ERGO    R115848   9.339  11.370   7.042 -0.0441  0.0685 -0.0049
 1154ERGO    R215849   9.277  11.354   7.311  0.0323  0.1941  0.0247
 1154ERGO    R315850   9.545  11.388   7.342  0.0526  0.1243 -0.0752
 1154ERGO    R415851   9.432  11.434   7.608  0.1690  0.1745 -0.0412
 1154ERGO    R515852   9.564  11.569   7.498  0.1628  0.1283 -0.0972
 1154ERGO    C115853   9.775  11.513   7.811  0.2677  0.0976 -0.1734
 1154ERGO    C215854   9.996  11.615   7.861  0.1084  0.2157 -0.1836
 1155ERGO   ROH15855   0.584   2.304  10.765  0.1436 -0.1687  0.0518
 1155ERGO    R115856   0.675   2.396  10.513 -0.0146 -0.0358  0.0419
 1155ERGO    R215857   0.767   2.224  10.317  0.1298  0.0895  0.0027
 1155ERGO    R315858   0.580   2.350  10.165 -0.0445 -0.0968  0.0571
 1155ERGO    R415859   0.754   2.213   9.972  0.0995  0.1525  0.0010
 1155ERGO    R515860   0.701   2.425   9.972 -0.1556  0.0946  0.0572
 1155ERGO    C115861   0.570   2.325   9.628 -0.0818  0.0143  0.0512
 1155ERGO    C215862   0.609   2.313   9.220  0.0963 -0.0225 -0.1619
 1156ERGO   ROH15863  16.349  11.213   6.741  0.1286 -0.0419  0.0199
 1156ERGO    R115864  16.523  11.221   6.964 -0.0035 -0.1518  0.1283
 1156ERGO    R215865  16.584  11.455   7.096  0.1813 -0.1680  0.0646
 1156ERGO    R315866  16.501  11.316   7.315 -0.1176  0.0210  0.0771
 1156ERGO    R415867  16.604  11.571   7.421  0.1969 -0.0720  0.0301
 1156ERGO    R515868  16.663  11.370   7.483 -0.1118 -0.1437  0.1310
 1156ERGO    C115869  16.537  11.508   7.816 -0.0746  0.1612  0.0217
 1156ERGO    C215870  16.686  11.509   8.210 -0.1033  0.1781  0.0087
 1157ERGO   ROH15871   5.559   9.568   6.925  0.0515 -0.0219  0.0665
 1157ERGO    R115872   5.761   9.612   7.119 -0.0395  0.2537  0.1040
 1157ERGO    R215873   5.723   9.776   7.338 -0.3742  0.0601  0.2032
 1157ERGO    R315874   5.800   9.555   7.476  0.0422  0.1158  0.0725
 1157ERGO    R415875   5.847   9.778   7.661 -0.3988  0.0931  0.2121
 1157ERGO    R515876   5.992   9.626   7.600 -0.1006  0.4052  0.1285
 1157ERGO    C115877   5.992   9.571   7.978 -0.0222  0.1647  0.0946
 1157ERGO    C215878   5.961   9.381   8.308  0.1141 -0.1876 -0.1849
 1158ERGO   ROH15879  17.368   0.573   6.773  0.3353 -0.0345 -0.0250
 1158ERGO    R115880  17.203   0.464   6.975  0.1948  0.1601 -0.0326
 1158ERGO    R215881  17.289   0.266   7.147 -0.0658  0.0115 -0.0688
 1158ERGO    R315882  17.209   0.442   7.338  0.1863  0.0948 -0.0359
 1158ERGO    R415883  17.255   0.191   7.483 -0.6567 -0.1609 -0.1559
 1158ERGO    R515884  17.073   0.312   7.486 -0.3497  0.3368 -0.2867
 1158ERGO    C115885  17.160   0.313   7.858 -0.7639 -0.1831 -0.1757
 1158ERGO    C215886  17.097   0.338   8.273 -0.2528  0.1069  0.2785
 1159ERGO   ROH15887   2.637  13.496   8.630  0.0592  0.0387  0.1272
 1159ERGO    R115888   2.502  13.397   8.402  0.1129  0.1174  0.0614
 1159ERGO    R215889   2.501  13.130   8.334  0.0399  0.1281  0.0295
 1159ERGO    R315890   2.231  13.163   8.335  0.0502  0.2262 -0.0770
 1159ERGO    R415891   2.281  12.970   8.121  0.0422 -0.0474  0.1559
 1159ERGO    R515892   2.169  13.156   8.104  0.1098 -0.0220 -0.0905
 1159ERGO    C115893   1.899  12.908   7.998  0.0534 -0.0576  0.1296
 1159ERGO    C215894   1.728  12.607   7.775 -0.0813  0.1038  0.0310
 1160ERGO   ROH15895   6.946   6.292  10.684 -0.0149  0.2020 -0.1151
 1160ERGO    R115896   6.932   6.333  10.404  0.1554  0.0264 -0.1513
 1160ERGO    R215897   7.069   6.175  10.224  0.0493 -0.2628  0.0185
 1160ERGO    R315898   6.822   6.141  10.115  0.0549 -0.0464 -0.0673
 1160ERGO    R415899   7.004   6.152   9.885  0.1421 -0.0978 -0.0117
 1160ERGO    R515900   6.826   6.274   9.916  0.2168  0.0241 -0.0229
 1160ERGO    C115901   6.734   6.107   9.586  0.2014  0.2014 -0.1099
 1160ERGO    C215902   6.777   6.147   9.190 -0.2571 -0.1713 -0.1163
 1161ERGO   ROH15903   8.119   5.108  10.668 -0.0901 -0.0244 -0.0693
 1161ERGO    R115904   8.237   5.156  10.416 -0.0092  0.0277 -0.0216
 1161ERGO    R215905   8.219   4.977  10.206  0.0643  0.0671 -0.0623
 1161ERGO    R315906   8.122   5.193  10.073  0.1012  0.0900 -0.0523
 1161ERGO    R415907   8.197   5.003   9.862  0.0228  0.0692 -0.0596
 1161ERGO    R515908   8.261   5.211   9.879  0.0781  0.0523 -0.0717
 1161ERGO    C115909   8.092   5.221   9.537  0.0333  0.0920 -0.0487
 1161ERGO    C215910   7.962   5.166   9.190  0.0805 -0.2304 -0.3218
 1162ERGO   ROH15911   1.742   0.780  10.236 -0.1310 -0.1670 -0.0883
 1162ERGO    R115912   1.825   0.714   9.973 -0.1554 -0.3082 -0.0604
 1162ERGO    R215913   1.654   0.598   9.789 -0.2955 -0.0194 -0.1133
 1162ERGO    R315914   1.731   0.809   9.634  0.1173 -0.1444 -0.0936
 1162ERGO    R415915   1.655   0.600   9.443 -0.2698  0.0017 -0.1139
 1162ERGO    R515916   1.844   0.708   9.449 -0.0553 -0.3521 -0.0926
 1162ERGO    C115917   1.726   0.798   9.097  0.1326 -0.1033 -0.0959
 1162ERGO    C215918   1.683   0.877   8.741  0.0397  0.0538 -0.1143
 1163ERGO   ROH15919   9.333  16.593   9.814  0.2607  0.0061 -0.0554
 1163ERGO    R115920   9.199  16.659   9.573  0.1666 -0.0414 -0.0169
 1163ERGO    R215921   9.266  16.879   9.420  0.0161  0.0072 -0.0164
 1163ERGO    R315922   9.289  16.695   9.222  0.0611  0.0341 -0.0364
 1163ERGO    R415923   9.227  16.945   9.083  0.1373  0.0607 -0.0204
 1163ERGO    R515924   9.121  16.756   9.064  0.1222  0.0767 -0.0843
 1163ERGO    C115925   9.226  16.810   8.701  0.2502  0.1173 -0.0415
 1163ERGO    C215926   9.411  16.961   8.478  0.2797  0.3660  0.0669
 1164ERGO   ROH15927  14.710   2.976  10.372  0.2135  0.0047  0.1247
 1164ERGO    R115928  14.834   3.087  10.143  0.2534  0.1674  0.2246
 1164ERGO    R215929  15.102   3.155  10.137  0.3527 -0.2217  0.1937
 1164ERGO    R315930  15.105   2.994   9.918 -0.0006  0.0983 -0.0616
 1164ERGO    R415931  15.198   3.254   9.820  0.3207  0.1328  0.2892
 1164ERGO    R515932  15.034   3.136   9.739  0.0980  0.4859  0.1886
 1164ERGO    C115933  15.257   3.160   9.430 -0.0296  0.6395  0.1050
 1164ERGO    C215934  15.228   3.079   9.052 -0.4136 -0.0387  0.2021
 1165ERGO   ROH15935  13.472  14.569  10.551  0.0281  0.1754  0.0065
 1165ERGO    R115936  13.489  14.472  10.286  0.1507  0.1404  0.0257
 1165ERGO    R215937  13.282  14.337  10.162  0.2655 -0.0280  0.0021
 1165ERGO    R315938  13.314  14.528   9.972  0.1743 -0.0339 -0.0180
 1165ERGO    R415939  13.223  14.292   9.825  0.3629 -0.1070 -0.0040
 1165ERGO    R515940  13.401  14.410   9.783  0.2884  0.0036  0.0152
 1165ERGO    C115941  13.219  14.445   9.449  0.3339 -0.1585 -0.0263
 1165ERGO    C215942  13.227  14.409   9.174  0.2285  0.1255  0.2549
 1166ERGO   ROH15943   5.791  13.040   6.306  0.1225  0.2525  0.0394
 1166ERGO    R115944   5.687  13.128   6.553  0.0286  0.1128  0.0505
 1166ERGO    R215945   5.538  12.964   6.719  0.0924 -0.0271 -0.0277
 1166ERGO    R315946   5.724  13.036   6.904  0.0207  0.0198  0.0267
 1166ERGO    R415947   5.502  12.926   7.060  0.0067 -0.0355 -0.0375
 1166ERGO    R515948   5.595  13.121   7.087 -0.0514 -0.0133 -0.0098
 1166ERGO    C115949   5.655  12.971   7.433 -0.1105  0.0035  0.0080
 1166ERGO    C215950   5.579  12.840   7.757 -0.0004  0.0312  0.1536
 1167ERGO   ROH15951  12.966   2.055   9.939 -0.1432 -0.2286 -0.0772
 1167ERGO    R115952  12.897   2.125   9.674  0.0826  0.1500 -0.0441
 1167ERGO    R215953  13.045   2.305   9.524  0.4891  0.0142  0.1728
 1167ERGO    R315954  13.052   2.100   9.345  0.1591  0.1517 -0.0074
 1167ERGO    R415955  13.117   2.339   9.188  0.5810  0.1831  0.2089
 1167ERGO    R515956  12.961   2.193   9.144  0.3356  0.4833  0.0613
 1167ERGO    C115957  13.167   2.166   8.824  0.3248  0.4104  0.0608
 1167ERGO    C215958  13.184   2.108   8.473  0.2540 -0.0153  0.0592
 1168ERGO   ROH15959  12.752   0.961   6.697  0.0320 -0.0559  0.1613
 1168ERGO    R115960  12.723   0.988   6.978  0.0241 -0.1381  0.1687
 1168ERGO    R215961  12.676   1.232   7.100  0.0109 -0.1747  0.2383
 1168ERGO    R315962  12.464   1.100   7.207  0.0138 -0.2153  0.1945
 1168ERGO    R415963  12.583   1.245   7.432 -0.0619 -0.1930  0.2188
 1168ERGO    R515964  12.540   1.032   7.424 -0.0192 -0.2006  0.2100
 1168ERGO    C115965  12.330   1.129   7.727 -0.1017 -0.2417  0.1663
 1168ERGO    C215966  12.343   1.012   8.102 -0.1943 -0.0399 -0.0966
 1169ERGO   ROH15967  17.434   3.456   6.930 -0.1695  0.0825  0.0394
 1169ERGO    R115968  17.375   3.339   7.180 -0.1144  0.0847  0.0539
 1169ERGO    R215969  17.521   3.128   7.284 -0.1623  0.0078 -0.0290
 1169ERGO    R315970  17.546   3.293   7.498  0.0043 -0.0219 -0.0250
 1169ERGO    R415971  17.584   3.023   7.607 -0.2876 -0.0619 -0.0263
 1169ERGO    R515972  17.443   3.174   7.678 -0.1307  0.0872 -0.0310
 1169ERGO    C115973  17.645   3.118   7.997 -0.2043 -0.1303 -0.0211
 1169ERGO    C215974  17.634   3.003   8.275  0.1296 -0.0634 -0.0684
 1170ERGO   ROH15975   8.339  11.466   6.726  0.0750  0.0642  0.0025
 1170ERGO    R115976   8.429  11.480   6.995  0.1830 -0.0233 -0.0285
 1170ERGO    R215977   8.256  11.521   7.207  0.3084  0.2750  0.0191
 1170ERGO    R315978   8.372  11.294   7.302 -0.0019  0.1121  0.0223
 1170ERGO    R415979   8.283  11.436   7.541  0.3241  0.3234  0.0303
 1170ERGO    R515980   8.484  11.363   7.502  0.1987 -0.0044 -0.0440
 1170ERGO    C115981   8.406  11.174   7.825  0.0420  0.1988  0.0398
 1170ERGO    C215982   8.493  11.129   8.072  0.2502 -0.0228  0.3437
 1171ERGO   ROH15983   0.648  15.988   6.862 -0.1747  0.0025 -0.0166
 1171ERGO    R115984   0.510  16.132   7.063 -0.1294  0.0292 -0.0036
 1171ERGO    R215985   0.264  16.051   7.161 -0.1365  0.0742  0.0217
 1171ERGO    R315986   0.391  16.066   7.401 -0.1084  0.0514  0.0076
 1171ERGO    R415987   0.115  16.148   7.457 -0.1430 -0.1233  0.0834
 1171ERGO    R515988   0.296  16.259   7.506 -0.1981 -0.0429  0.0979
 1171ERGO    C115989   0.147  16.218   7.855 -0.1203 -0.2598  0.1061
 1171ERGO    C215990  -0.001  16.118   8.081 -0.0074 -0.0300  0.1301
 1172ERGO   ROH15991   9.541   1.618  10.058  0.0855  0.1621 -0.0821
 1172ERGO    R115992   9.444   1.776   9.844 -0.0871  0.0698 -0.0735
 1172ERGO    R215993   9.604   1.855   9.633 -0.1781  0.2359 -0.0771
 1172ERGO    R315994   9.408   1.741   9.484 -0.0716  0.0425 -0.0737
 1172ERGO    R415995   9.584   1.870   9.288 -0.2767  0.3589 -0.0668
 1172ERGO    R515996   9.368   1.897   9.307 -0.3158  0.0742  0.0009
 1172ERGO    C115997   9.387   1.772   8.947 -0.2342  0.2491 -0.0577
 1172ERGO    C215998   9.320   1.835   8.524 -0.1176  0.1571  0.1234
 1173ERGO   ROH15999  12.008  12.259   6.530 -0.0782  0.1699 -0.0049
 1173ERGO    R116000  12.052  12.359   6.791  0.1101  0.0804 -0.0006
 1173ERGO    R216001  12.299  12.448   6.877  0.1443  0.1854 -0.1928
 1173ERGO    R316002  12.160  12.673   6.940  0.0695  0.0779  0.0318
 1173ERGO    R416003  12.384  12.667   7.130  0.2249  0.1110 -0.1555
 1173ERGO    R516004  12.172  12.684   7.179  0.2571 -0.0305  0.0271
 1173ERGO    C116005  12.303  13.006   7.337  0.2017 -0.0333  0.0771
 1173ERGO    C216006  12.404  13.251   7.426  0.1055 -0.0051  0.3483
 1174ERGO   ROH16007  10.129  10.081   6.673  0.0418  0.0674 -0.1607
 1174ERGO    R116008  10.154  10.239   6.907  0.0337 -0.0305 -0.0939
 1174ERGO    R216009  10.377  10.393   6.960  0.0503 -0.0858 -0.0014
 1174ERGO    R316010  10.194  10.592   6.985  0.0768 -0.0673  0.0530
 1174ERGO    R416011  10.439  10.702   7.102  0.1934  0.0107 -0.2648
 1174ERGO    R516012  10.243  10.692   7.197  0.2886  0.0736 -0.0608
 1174ERGO    C116013  10.303  11.069   7.208  0.3015  0.0842 -0.3670
 1174ERGO    C216014  10.496  11.381   7.247 -0.1667 -0.0166 -0.1493
 1175ERGO   ROH16015   6.925   1.309  10.103  0.2102  0.0177 -0.2376
 1175ERGO    R116016   6.868   1.389   9.838  0.1215 -0.0507 -0.2386
 1175ERGO    R216017   7.063   1.484   9.666  0.0482 -0.0295 -0.3009
 1175ERGO    R316018   6.970   1.287   9.504  0.0659 -0.0843 -0.2474
 1175ERGO    R416019   7.042   1.506   9.322  0.1104 -0.1388 -0.3133
 1175ERGO    R516020   6.849   1.404   9.332  0.0978 -0.1298 -0.3085
 1175ERGO    C116021   6.942   1.334   8.969  0.1632 -0.2538 -0.2703
 1175ERGO    C216022   7.145   1.472   8.676  0.0762  0.2277  0.2831
 1176ERGO   ROH16023   6.137   2.027  10.152  0.2849 -0.0193 -0.0120
 1176ERGO    R116024   6.263   2.026   9.899  0.0288 -0.1110 -0.1435
 1176ERGO    R216025   6.125   1.976   9.665 -0.2835  0.1362 -0.0301
 1176ERGO    R316026   6.232   2.213   9.588 -0.0494  0.0242 -0.0527
 1176ERGO    R416027   6.159   2.080   9.337 -0.2424  0.1157 -0.0309
 1176ERGO    R516028   6.354   2.161   9.389 -0.1501 -0.0938 -0.0772
 1176ERGO    C116029   6.279   2.363   9.074  0.0014 -0.0014 -0.0528
 1176ERGO    C216030   6.171   2.641   8.842  0.1086 -0.2307  0.3569
 1177ERGO   ROH16031  12.442   3.788   7.169 -0.0865  0.3591  0.0817
 1177ERGO    R116032  12.452   3.829   7.449 -0.1440  0.1941  0.1086
 1177ERGO    R216033  12.320   3.666   7.628  0.0162 -0.0575 -0.0009
 1177ERGO    R316034  12.567   3.643   7.740  0.0362  0.1288 -0.0016
 1177ERGO    R416035  12.381   3.571   7.955  0.0955 -0.3755 -0.1041
 1177ERGO    R516036  12.538   3.721   7.964 -0.0979 -0.1759  0.0947
 1177ERGO    C116037  12.648   3.493   8.250  0.1606 -0.3858 -0.1650
 1177ERGO    C216038  12.720   3.356   8.543 -0.0830  0.0551 -0.2403
 1178ERGO   ROH16039   2.035   5.962   7.230  0.2165 -0.0954 -0.0339
 1178ERGO    R116040   2.037   5.852   7.491  0.1808  0.0585  0.0319
 1178ERGO    R216041   2.085   6.004   7.716  0.0971  0.2017 -0.0468
 1178ERGO    R316042   1.848   5.899   7.799  0.1008  0.2001 -0.0375
 1178ERGO    R416043   1.972   6.007   8.043  0.1095  0.2050 -0.0422
 1178ERGO    R516044   1.898   5.804   8.013  0.1103  0.2029 -0.0374
 1178ERGO    C116045   1.684   5.911   8.311  0.1201  0.2055 -0.0308
 1178ERGO    C216046   1.587   5.929   8.606 -0.1091 -0.2542 -0.0831
 1179ERGO   ROH16047   4.047   2.773   7.336  0.0093  0.2751  0.0769
 1179ERGO    R116048   4.110   2.886   7.588  0.0884  0.1728  0.1034
 1179ERGO    R216049   3.968   2.825   7.817 -0.0033  0.2757  0.0723
 1179ERGO    R316050   4.214   2.763   7.914 -0.0761  0.0151  0.0989
 1179ERGO    R416051   4.094   2.935   8.120  0.1615  0.3295 -0.0145
 1179ERGO    R516052   4.288   2.963   8.023  0.1990  0.0017 -0.0514
 1179ERGO    C116053   4.399   2.940   8.387  0.1890  0.1162 -0.0401
 1179ERGO    C216054   4.527   3.026   8.643  0.0611 -0.0464  0.0350
 1180ERGO   ROH16055   0.583  13.952  10.521  0.0257  0.0962  0.0070
 1180ERGO    R116056   0.727  14.025  10.289  0.0228 -0.0226 -0.0329
 1180ERGO    R216057   0.774  13.848  10.082 -0.0719 -0.0986  0.0085
 1180ERGO    R316058   0.660  14.044   9.932 -0.0181 -0.0961 -0.0292
 1180ERGO    R416059   0.787  13.865   9.737 -0.0443 -0.1534  0.0069
 1180ERGO    R516060   0.816  14.080   9.753  0.0021 -0.1576 -0.0239
 1180ERGO    C116061   0.688  14.058   9.395  0.0223 -0.1830 -0.0293
 1180ERGO    C216062   0.743  13.958   9.135  0.1410  0.2262  0.1462
 1181ERGO   ROH16063  10.055  10.465   8.826 -0.1718 -0.0579  0.0010
 1181ERGO    R116064  10.202  10.235   8.752 -0.2350 -0.0839 -0.0429
 1181ERGO    R216065  10.329  10.211   8.508 -0.1142 -0.0072  0.0147
 1181ERGO    R316066  10.546  10.158   8.663 -0.2187 -0.1904  0.1037
 1181ERGO    R416067  10.594  10.011   8.414 -0.0065  0.1808 -0.0896
 1181ERGO    R516068  10.598   9.929   8.616 -0.1429 -0.1184 -0.1986
 1181ERGO    C116069  10.953   9.845   8.504 -0.0419  0.1184 -0.0668
 1181ERGO    C216070  11.162   9.717   8.144  0.1359 -0.1292  0.0458
 1182ERGO   ROH16071   1.017  14.201  10.626 -0.0372  0.1745 -0.1123
 1182ERGO    R116072   1.186  14.233  10.401  0.0146  0.0925 -0.0859
 1182ERGO    R216073   1.207  14.042  10.202  0.0064  0.0499 -0.0484
 1182ERGO    R316074   1.144  14.250  10.040  0.0873  0.0370 -0.0965
 1182ERGO    R416075   1.234  14.039   9.858  0.0121 -0.0322 -0.0473
 1182ERGO    R516076   1.309  14.243   9.867  0.0864 -0.0601 -0.0913
 1182ERGO    C116077   1.190  14.232   9.505  0.0913 -0.0921 -0.0918
 1182ERGO    C216078   1.198  14.063   9.323 -0.3781  0.1484  0.1222
 1183ERGO   ROH16079  14.738   5.262  10.364  0.0629  0.0092 -0.0813
 1183ERGO    R116080  14.768   5.293  10.084  0.0171 -0.0125 -0.0895
 1183ERGO    R216081  14.566   5.234   9.905 -0.0028 -0.0597 -0.0569
 1183ERGO    R316082  14.609   5.488   9.822 -0.0519 -0.0604 -0.0825
 1183ERGO    R416083  14.536   5.343   9.579  0.1901 -0.1432 -0.1030
 1183ERGO    R516084  14.714   5.465   9.608  0.1145 -0.0612  0.0005
 1183ERGO    C116085  14.560   5.646   9.310  0.2563 -0.1926 -0.1538
 1183ERGO    C216086  14.515   5.706   8.900  0.2136 -0.0659  0.3017
 1184ERGO   ROH16087  12.257  15.647   6.955  0.1825  0.3627 -0.1177
 1184ERGO    R116088  12.298  15.547   7.216  0.0368  0.4710 -0.0515
 1184ERGO    R216089  12.449  15.321   7.267 -0.4564  0.1492  0.0732
 1184ERGO    R316090  12.583  15.488   7.435 -0.0139 -0.0106 -0.1065
 1184ERGO    R416091  12.638  15.218   7.538 -0.5612 -0.0587  0.0692
 1184ERGO    R516092  12.558  15.387   7.651 -0.1456  0.2070 -0.0206
 1184ERGO    C116093  12.874  15.315   7.853 -0.2067 -0.3297 -0.1018
 1184ERGO    C216094  13.090  15.050   8.042 -0.1430  0.0266 -0.0516
 1185ERGO   ROH16095   9.707   6.639  10.696 -0.1465 -0.1962  0.0564
 1185ERGO    R116096   9.673   6.844  10.504 -0.1432 -0.0987  0.1596
 1185ERGO    R216097   9.850   6.884  10.296 -0.0736  0.0836  0.2515
 1185ERGO    R316098   9.626   6.865  10.144 -0.0069  0.0889  0.1509
 1185ERGO    R416099   9.845   6.873   9.950  0.0825  0.0383  0.2499
 1185ERGO    R516100   9.670   7.003   9.954  0.0954  0.0584  0.1526
 1185ERGO    C116101   9.631   6.849   9.607  0.2360  0.0170  0.1545
 1185ERGO    C216102   9.593   6.826   9.221  0.1351 -0.0826 -0.0692
 1186ERGO   ROH16103   9.418  17.074   6.284 -0.1144  0.1433  0.0351
 1186ERGO    R116104   9.504  17.182   6.532 -0.1086  0.2427 -0.0103
 1186ERGO    R216105   9.379  17.397   6.652 -0.3687  0.0277  0.1079
 1186ERGO    R316106   9.362  17.228   6.864  0.0510 -0.0340  0.1006
 1186ERGO    R416107   9.373  17.495   6.983 -0.1917 -0.0273  0.1287
 1186ERGO    R516108   9.503  17.327   7.030  0.0806  0.1299 -0.0154
 1186ERGO    C116109   9.353  17.394   7.375  0.3052 -0.1174  0.1340
 1186ERGO    C216110   9.281  17.509   7.765 -0.2662  0.0255 -0.0099
 1187ERGO   ROH16111  12.751  13.962   6.632 -0.2105 -0.0583  0.0713
 1187ERGO    R116112  12.875  13.955   6.886 -0.1760 -0.0459  0.0544
 1187ERGO    R216113  12.846  14.156   7.072 -0.1635 -0.0450  0.0534
 1187ERGO    R316114  12.767  13.952   7.233 -0.1285 -0.0463  0.0696
 1187ERGO    R416115  12.855  14.163   7.418 -0.2162  0.0059  0.0544
 1187ERGO    R516116  12.924  13.956   7.415 -0.1554  0.0243  0.0927
 1187ERGO    C116117  12.786  13.975   7.770 -0.2141  0.0345  0.0702
 1187ERGO    C216118  12.707  14.105   8.083  0.2609  0.1430 -0.1614
 1188ERGO   ROH16119  13.175  15.821  10.264  0.0726  0.1410  0.0305
 1188ERGO    R116120  13.070  15.718  10.023 -0.0336  0.2079  0.0469
 1188ERGO    R216121  12.925  15.872   9.844  0.0938  0.3207  0.0356
 1188ERGO    R316122  13.110  15.783   9.667  0.0085  0.1341  0.0387
 1188ERGO    R416123  12.872  15.833   9.505  0.0492  0.3235  0.0426
 1188ERGO    R516124  12.987  15.648   9.513 -0.1143  0.2244  0.0601
 1188ERGO    C116125  13.016  15.726   9.141 -0.0567  0.1501  0.0496
 1188ERGO    C216126  13.079  15.767   8.791  0.3084 -0.0615  0.2051
 1189ERGO   ROH16127   8.492   2.945  10.248  0.1403 -0.2594  0.0571
 1189ERGO    R116128   8.492   3.097  10.010 -0.0617 -0.1616  0.1171
 1189ERGO    R216129   8.681   3.063   9.811 -0.0507  0.1238  0.0712
 1189ERGO    R316130   8.462   3.030   9.653 -0.0420 -0.0529  0.0952
 1189ERGO    R416131   8.683   3.072   9.466 -0.0726 -0.0391  0.0667
 1189ERGO    R516132   8.496   3.183   9.472 -0.1227 -0.1242  0.0214
 1189ERGO    C116133   8.479   3.045   9.116 -0.0771 -0.2998  0.0868
 1189ERGO    C216134   8.468   2.925   8.875  0.1801  0.2583 -0.0796
 1190ERGO   ROH16135   5.309   0.539  10.529 -0.1382 -0.0324 -0.0247
 1190ERGO    R116136   5.204   0.425  10.293 -0.1089  0.0252 -0.0666
 1190ERGO    R216137   4.992   0.537  10.155  0.0179  0.1541 -0.1633
 1190ERGO    R316138   5.165   0.525   9.945  0.1038  0.0397 -0.0867
 1190ERGO    R416139   4.911   0.612   9.828  0.2067  0.1690 -0.2079
 1190ERGO    R516140   5.032   0.442   9.764  0.1404  0.0975 -0.1378
 1190ERGO    C116141   5.025   0.644   9.440  0.3973  0.0703 -0.1618
 1190ERGO    C216142   4.949   0.697   9.135  0.1548 -0.2102 -0.0824
 1191ERGO   ROH16143  10.259   0.183   6.214 -0.1454  0.0577  0.2020
 1191ERGO    R116144  10.293   0.022   6.444 -0.2164  0.0540  0.2095
 1191ERGO    R216145  10.525   0.025   6.594 -0.1996 -0.0737  0.1827
 1191ERGO    R316146  10.354   0.079   6.799 -0.1445  0.0423  0.1998
 1191ERGO    R416147  10.594  -0.027   6.929 -0.1658 -0.0386  0.1815
 1191ERGO    R516148  10.390  -0.099   6.955 -0.1958  0.0549  0.2287
 1191ERGO    C116149  10.474  -0.007   7.316 -0.0944  0.0905  0.1971
 1191ERGO    C216150  10.399   0.029   7.686  0.1944  0.0973 -0.0410
 1192ERGO   ROH16151  14.596  10.917   6.961 -0.0809 -0.1679  0.0053
 1192ERGO    R116152  14.496  11.033   7.199  0.1878 -0.0844  0.0817
 1192ERGO    R216153  14.259  10.951   7.316  0.0383  0.3242  0.0772
 1192ERGO    R316154  14.416  10.918   7.535  0.0177 -0.1005  0.0371
 1192ERGO    R416155  14.140  10.898   7.636 -0.0199  0.3780  0.0648
 1192ERGO    R516156  14.296  11.031   7.710  0.2584  0.0414  0.1163
 1192ERGO    C116157  14.218  10.836   8.029 -0.0731  0.0106  0.0200
 1192ERGO    C216158  13.966  10.941   8.332 -0.2314  0.1727 -0.1687
 1193ERGO   ROH16159   8.533  16.801   6.375 -0.0233  0.1518 -0.0280
 1193ERGO    R116160   8.543  16.719   6.646 -0.1152 -0.0594 -0.0859
 1193ERGO    R216161   8.581  16.896   6.854  0.2711 -0.2683  0.0367
 1193ERGO    R316162   8.353  16.784   6.949  0.0718  0.0936 -0.0010
 1193ERGO    R416163   8.500  16.864   7.189  0.2117 -0.2456  0.0238
 1193ERGO    R516164   8.421  16.666   7.146 -0.1338 -0.0949 -0.0428
 1193ERGO    C116165   8.238  16.740   7.472 -0.0100  0.1077 -0.0191
 1193ERGO    C216166   8.018  16.711   7.778  0.1254 -0.1140  0.1040
 1194ERGO   ROH16167  16.026  12.051   8.531  0.0872 -0.0436  0.0722
 1194ERGO    R116168  16.145  12.299   8.465  0.0572 -0.0131  0.1318
 1194ERGO    R216169  16.363  12.400   8.600  0.1144 -0.0710  0.0843
 1194ERGO    R316170  16.470  12.415   8.350  0.0084  0.0396  0.0450
 1194ERGO    R416171  16.637  12.593   8.514  0.0723 -0.0254  0.0525
 1194ERGO    R516172  16.536  12.645   8.328 -0.0087  0.0519  0.1169
 1194ERGO    C116173  16.897  12.719   8.230 -0.0519  0.1051 -0.0029
 1194ERGO    C216174  17.211  12.915   8.305  0.0674  0.1613  0.2301
 1195ERGO   ROH16175   6.871   4.911  10.424  0.0925  0.0075 -0.1452
 1195ERGO    R116176   6.722   4.974  10.192 -0.0309 -0.1653 -0.1154
 1195ERGO    R216177   6.803   5.165  10.010 -0.3540  0.0324 -0.0658
 1195ERGO    R316178   6.774   4.962   9.833 -0.0298  0.0304 -0.1221
 1195ERGO    R416179   6.719   5.204   9.677 -0.3778 -0.0140 -0.0648
 1195ERGO    R516180   6.591   5.029   9.694 -0.1176 -0.2126 -0.1237
 1195ERGO    C116181   6.643   5.035   9.317 -0.0874 -0.0430 -0.1171
 1195ERGO    C216182   6.632   5.037   9.001  0.0285  0.0658 -0.0237
 1196ERGO   ROH16183   3.985  12.911   6.726 -0.0720 -0.0809  0.0707
 1196ERGO    R116184   4.061  12.902   6.998  0.1924  0.1327  0.0094
 1196ERGO    R216185   4.146  13.126   7.137 -0.1565  0.3556 -0.1088
 1196ERGO    R316186   3.949  13.053   7.310  0.1347 -0.0404  0.0710
 1196ERGO    R416187   4.122  13.232   7.465 -0.2091  0.4918 -0.1570
 1196ERGO    R516188   4.060  13.031   7.521  0.3349  0.3647  0.0110
 1196ERGO    C116189   3.924  13.226   7.818  0.0336  0.1994 -0.0161
 1196ERGO    C216190   3.678  13.316   8.127  0.0887 -0.2194  0.0068
 1197ERGO   ROH16191  15.876   1.790  10.558 -0.0964  0.2194  0.1237
 1197ERGO    R116192  15.751   1.841  10.310  0.0296  0.0142  0.0154
 1197ERGO    R216193  15.822   2.054  10.148 -0.0558  0.0253 -0.0072
 1197ERGO    R316194  15.854   1.860   9.961  0.2601 -0.0131  0.0801
 1197ERGO    R416195  15.876   2.110   9.811 -0.1549 -0.0369 -0.0337
 1197ERGO    R516196  15.742   1.944   9.767  0.1126 -0.2817  0.0426
 1197ERGO    C116197  15.936   1.960   9.440  0.0837 -0.1092  0.0328
 1197ERGO    C216198  15.940   1.819   9.142  0.0120  0.0677  0.1703
 1198ERGO   ROH16199   1.694   8.387   8.979  0.2665 -0.2160 -0.1931
 1198ERGO    R116200   1.412   8.414   8.965  0.2733 -0.0401 -0.0276
 1198ERGO    R216201   1.257   8.263   8.793  0.0949  0.1721 -0.0551
 1198ERGO    R316202   1.123   8.201   9.021  0.1767  0.0887 -0.0290
 1198ERGO    R416203   0.914   8.222   8.816  0.1020  0.1691  0.0527
 1198ERGO    R516204   0.920   8.327   9.008  0.1728  0.0981  0.0912
 1198ERGO    C116205   0.589   8.140   9.044  0.1829  0.0889  0.1400
 1198ERGO    C216206   0.241   8.026   9.124 -0.3758 -0.4567  0.0070
 1199ERGO   ROH16207  11.724   3.934  10.700  0.1094 -0.1971 -0.0690
 1199ERGO    R116208  11.712   3.911  10.418  0.2237 -0.1215 -0.0820
 1199ERGO    R216209  11.524   4.045  10.266  0.0171 -0.3935 -0.0855
 1199ERGO    R316210  11.743   4.135  10.133 -0.0962  0.0433  0.0102
 1199ERGO    R416211  11.531   4.132   9.931 -0.0144 -0.2878 -0.0584
 1199ERGO    R516212  11.727   4.036   9.915  0.1638  0.0722 -0.0201
 1199ERGO    C116213  11.742   4.267   9.612 -0.1391  0.1837  0.0471
 1199ERGO    C216214  11.635   4.280   9.303 -0.3611  0.3026  0.0469
 1200ERGO   ROH16215   5.884   0.481  10.189  0.0374  0.0487  0.0247
 1200ERGO    R116216   5.896   0.375   9.927 -0.0829 -0.0584  0.0622
 1200ERGO    R216217   5.693   0.411   9.743 -0.0566  0.0793  0.0631
 1200ERGO    R316218   5.894   0.508   9.588  0.0329 -0.1793  0.0127
 1200ERGO    R416219   5.673   0.461   9.402 -0.1194  0.1948  0.0828
 1200ERGO    R516220   5.876   0.384   9.383 -0.2324 -0.1066 -0.0139
 1200ERGO    C116221   5.850   0.580   9.057 -0.0719  0.0193  0.0469
 1200ERGO    C216222   5.856   0.516   8.693  0.1514 -0.0320 -0.2866
 1201ERGO   ROH16223  14.847   9.183   7.217 -0.1072  0.1116  0.0055
 1201ERGO    R116224  14.674   9.058   7.403 -0.1098  0.1401  0.0245
 1201ERGO    R216225  14.761   8.864   7.580 -0.1836 -0.0963 -0.1820
 1201ERGO    R316226  14.653   9.030   7.765  0.1152 -0.1197  0.0188
 1201ERGO    R416227  14.594   8.760   7.864 -0.1924 -0.1254 -0.1993
 1201ERGO    R516228  14.450   8.920   7.832  0.0034  0.0900  0.0114
 1201ERGO    C116229  14.395   8.856   8.203  0.0830 -0.1642 -0.0209
 1201ERGO    C216230  14.362   9.000   8.509 -0.0568  0.0754 -0.1101
 1202ERGO   ROH16231  17.254   9.468   6.716 -0.0146 -0.2289  0.1193
 1202ERGO    R116232  17.248   9.657   6.926 -0.0376 -0.1898  0.0828
 1202ERGO    R216233  17.056   9.653   7.123  0.0460 -0.2612  0.1587
 1202ERGO    R316234  17.271   9.649   7.289  0.1145 -0.1011  0.0771
 1202ERGO    R416235  17.046   9.727   7.461  0.1196 -0.2338  0.1557
 1202ERGO    R516236  17.235   9.834   7.438  0.0435 -0.1070  0.0720
 1202ERGO    C116237  17.242   9.766   7.813  0.2267 -0.0676  0.0772
 1202ERGO    C216238  17.130   9.708   8.145  0.0482  0.1442  0.2239
 1203ERGO   ROH16239   3.474  16.916  10.628 -0.1215 -0.1122  0.1248
 1203ERGO    R116240   3.367  17.082  10.425 -0.1604 -0.2327  0.0464
 1203ERGO    R216241   3.489  17.318  10.347 -0.3943 -0.0696  0.1795
 1203ERGO    R316242   3.474  17.205  10.100 -0.0313 -0.0644  0.1488
 1203ERGO    R416243   3.521  17.490  10.049 -0.3518  0.0160  0.2323
 1203ERGO    R516244   3.360  17.368   9.967 -0.1303 -0.1884  0.0714
 1203ERGO    C116245   3.526  17.485   9.644  0.0139  0.0708  0.2341
 1203ERGO    C216246   3.495  17.652   9.433 -0.1746 -0.2565 -0.0463
 1204ERGO   ROH16247   9.390   2.767  10.070 -0.1016  0.2065  0.2368
 1204ERGO    R116248   9.484   2.913   9.846 -0.2177  0.2409  0.2090
 1204ERGO    R216249   9.611   2.793   9.632  0.0353  0.3185  0.3069
 1204ERGO    R316250   9.418   2.920   9.488 -0.0936 -0.0108  0.1811
 1204ERGO    R416251   9.585   2.788   9.287  0.1095  0.0737  0.3036
 1204ERGO    R516252   9.532   2.998   9.293 -0.1544  0.0091  0.1581
 1204ERGO    C116253   9.390   2.904   8.952  0.0318 -0.3780  0.1836
 1204ERGO    C216254   9.315   3.003   8.654 -0.0055  0.2915  0.3318
 1205ERGO   ROH16255   8.655   0.901   9.984 -0.1917  0.0284  0.0790
 1205ERGO    R116256   8.738   1.065   9.768 -0.1204 -0.0037  0.0806
 1205ERGO    R216257   8.898   0.972   9.562  0.0252 -0.0133  0.1885
 1205ERGO    R316258   8.697   1.069   9.407  0.0774 -0.1157  0.0573
 1205ERGO    R416259   8.913   1.008   9.219  0.2178 -0.0052  0.1975
 1205ERGO    R516260   8.808   1.198   9.239  0.1127 -0.0631  0.1276
 1205ERGO    C116261   8.733   1.120   8.873  0.3789 -0.0966  0.0795
 1205ERGO    C216262   8.869   1.154   8.594  0.2080  0.0853 -0.3829
 1206ERGO   ROH16263   9.582   3.654   6.499  0.0229 -0.1740 -0.2348
 1206ERGO    R116264   9.575   3.500   6.736 -0.0776 -0.1597 -0.2271
 1206ERGO    R216265   9.662   3.596   6.979  0.1867 -0.2714 -0.2670
 1206ERGO    R316266   9.414   3.522   7.062  0.1137  0.0848 -0.1481
 1206ERGO    R416267   9.580   3.515   7.305  0.2359 -0.2548 -0.2506
 1206ERGO    R516268   9.456   3.353   7.227 -0.0601 -0.0348 -0.2320
 1206ERGO    C116269   9.299   3.398   7.572  0.1961  0.0893 -0.1294
 1206ERGO    C216270   9.252   3.379   7.915 -0.1419 -0.2070 -0.1066
 1207ERGO   ROH16271  15.388   9.270   7.052  0.1275  0.0261 -0.0540
 1207ERGO    R116272  15.556   9.357   7.263  0.0830 -0.0996  0.0343
 1207ERGO    R216273  15.462   9.507   7.475  0.0880 -0.0094 -0.0303
 1207ERGO    R316274  15.575   9.308   7.623 -0.1571 -0.0924  0.0509
 1207ERGO    R416275  15.584   9.546   7.796  0.1219 -0.0228 -0.0417
 1207ERGO    R516276  15.752   9.417   7.742 -0.0261 -0.2532  0.0129
 1207ERGO    C116277  15.761   9.383   8.122 -0.0885 -0.1086  0.0280
 1207ERGO    C216278  15.712   9.662   8.335  0.1149  0.3504 -0.2942
 1208ERGO   ROH16279   1.798  15.786  10.348  0.2224 -0.1021  0.0849
 1208ERGO    R116280   1.760  15.878  10.083  0.0763 -0.0779  0.1141
 1208ERGO    R216281   1.934  16.053   9.960 -0.0632  0.0341  0.0803
 1208ERGO    R316282   1.942  15.861   9.768 -0.0303  0.0724  0.0421
 1208ERGO    R416283   1.899  16.112   9.621  0.1023  0.1205  0.0763
 1208ERGO    R516284   1.777  15.931   9.608  0.0570  0.1538 -0.0163
 1208ERGO    C116285   1.886  15.966   9.244  0.2296  0.2067  0.0382
 1208ERGO    C216286   1.904  16.020   8.906  0.0027 -0.1216  0.1821
 1209ERGO   ROH16287  15.703  16.546   6.789 -0.0009 -0.0789  0.1126
 1209ERGO    R116288  15.744  16.724   7.005  0.0120  0.0056  0.0416
 1209ERGO    R216289  15.638  16.680   7.256 -0.0461  0.1467  0.0459
 1209ERGO    R316290  15.897  16.710   7.334 -0.0504  0.1054  0.0747
 1209ERGO    R416291  15.739  16.791   7.567 -0.0592  0.1719  0.0408
 1209ERGO    R516292  15.896  16.907   7.470 -0.0246  0.1239  0.0447
 1209ERGO    C116293  16.041  16.885   7.822 -0.0708  0.1478  0.0648
 1209ERGO    C216294  16.172  17.003   8.174 -0.0808 -0.1520  0.0462
 1210ERGO   ROH16295   9.808   3.019  10.209 -0.0816  0.0120 -0.0348
 1210ERGO    R116296   9.835   3.211  10.002  0.1159 -0.0830 -0.0986
 1210ERGO    R216297   9.907   3.143   9.744 -0.0894 -0.2627 -0.1079
 1210ERGO    R316298   9.679   3.276   9.680  0.0769  0.0576 -0.0530
 1210ERGO    R416299   9.843   3.290   9.438 -0.0335 -0.3564 -0.1656
 1210ERGO    R516300   9.753   3.458   9.543  0.2893 -0.1403 -0.2126
 1210ERGO    C116301   9.593   3.502   9.200  0.1552 -0.1103 -0.1474
 1210ERGO    C216302   9.489   3.404   8.859  0.2402  0.2844 -0.0054
 1211ERGO   ROH16303   2.775   5.471   7.125  0.1039 -0.1534  0.0783
 1211ERGO    R116304   2.744   5.424   7.403 -0.1452 -0.0457  0.0704
 1211ERGO    R216305   2.861   5.585   7.595 -0.0426 -0.1670  0.1003
 1211ERGO    R316306   2.606   5.603   7.688 -0.0812  0.2177 -0.0580
 1211ERGO    R416307   2.773   5.622   7.927 -0.1762 -0.4810  0.1048
 1211ERGO    R516308   2.609   5.483   7.895 -0.4575 -0.1115 -0.2216
 1211ERGO    C116309   2.483   5.661   8.208 -0.2902 -0.3027 -0.0412
 1211ERGO    C216310   2.228   5.753   8.476 -0.0572  0.0515 -0.0560
 1212ERGO   ROH16311  12.084  14.911  10.234  0.2531 -0.1619 -0.0363
 1212ERGO    R116312  12.107  14.844   9.960  0.1304 -0.1156 -0.0585
 1212ERGO    R216313  11.900  14.731   9.816  0.0555 -0.0604  0.0071
 1212ERGO    R316314  11.945  14.941   9.649  0.0150 -0.0370  0.0254
 1212ERGO    R416315  11.835  14.730   9.477 -0.0556 -0.0040  0.0277
 1212ERGO    R516316  12.021  14.839   9.446 -0.0575 -0.0112 -0.0158
 1212ERGO    C116317  11.839  14.927   9.122 -0.1582  0.0510  0.0570
 1212ERGO    C216318  11.768  15.047   8.820  0.1687 -0.2206 -0.1094
 1213ERGO   ROH16319  15.758  15.565  10.163  0.2189 -0.1256  0.0246
 1213ERGO    R116320  15.784  15.393   9.940  0.2869 -0.0924  0.0072
 1213ERGO    R216321  15.622  15.414   9.716  0.2249 -0.1855  0.0470
 1213ERGO    R316322  15.860  15.429   9.586  0.1856 -0.0171 -0.0090
 1213ERGO    R416323  15.660  15.402   9.373  0.1386 -0.1000  0.0340
 1213ERGO    R516324  15.837  15.277   9.402  0.2263 -0.0020 -0.0315
 1213ERGO    C116325  15.906  15.409   9.051  0.0515  0.1076 -0.0264
 1213ERGO    C216326  16.032  15.376   8.808 -0.0928  0.0510  0.1768
 1214ERGO   ROH16327  15.106   2.317   6.647  0.1250 -0.2877 -0.0240
 1214ERGO    R116328  15.047   2.384   6.916  0.1523 -0.2134 -0.0373
 1214ERGO    R216329  14.793   2.456   6.999  0.1889 -0.0714 -0.0570
 1214ERGO    R316330  14.831   2.255   7.179  0.0805 -0.0599 -0.0191
 1214ERGO    R416331  14.646   2.440   7.311  0.0568 -0.0114 -0.1145
 1214ERGO    R516332  14.834   2.365   7.391  0.0130 -0.0364 -0.0283
 1214ERGO    C116333  14.595   2.242   7.662 -0.1218  0.0342 -0.1124
 1214ERGO    C216334  14.592   2.177   7.962  0.2921 -0.4976  0.3222
 1215ERGO   ROH16335  15.559  11.711   6.906  0.0785  0.1899  0.0930
 1215ERGO    R116336  15.653  11.760   7.169  0.0779  0.1833  0.0952
 1215ERGO    R216337  15.534  11.944   7.337  0.0123  0.1063  0.1387
 1215ERGO    R316338  15.520  11.732   7.506  0.1130  0.0683  0.0987
 1215ERGO    R416339  15.424  11.959   7.665 -0.1625 -0.0433  0.0883
 1215ERGO    R516340  15.584  11.822   7.719 -0.0706  0.0884  0.1441
 1215ERGO    C116341  15.348  11.769   8.014 -0.1697 -0.1661  0.0213
 1215ERGO    C216342  15.199  11.808   8.258 -0.0667 -0.1120  0.1126
 1216ERGO   ROH16343  14.507  16.409  10.160 -0.0154 -0.2643  0.1747
 1216ERGO    R116344  14.388  16.427   9.904 -0.0027 -0.0080  0.1844
 1216ERGO    R216345  14.479  16.601   9.710  0.1813 -0.0074  0.2706
 1216ERGO    R316346  14.494  16.375   9.559 -0.0658  0.0503  0.1556
 1216ERGO    R416347  14.545  16.595   9.370  0.4935  0.0864  0.3264
 1216ERGO    R516348  14.395  16.438   9.350  0.2348  0.3498  0.0925
 1216ERGO    C116349  14.597  16.379   9.031  0.4434  0.1952  0.2509
 1216ERGO    C216350  14.613  16.307   8.726  0.1430 -0.1889  0.1989
 1217ERGO   ROH16351   2.088  17.485   6.958  0.0938  0.0243  0.0737
 1217ERGO    R116352   1.962  17.316   7.146  0.2340 -0.2005 -0.0317
 1217ERGO    R216353   2.094  17.216   7.367  0.1919  0.1677  0.1663
 1217ERGO    R316354   1.885  17.326   7.502 -0.2384 -0.2505 -0.1254
 1217ERGO    R416355   2.007  17.138   7.692  0.0950  0.2188  0.1528
 1217ERGO    R516356   1.797  17.145   7.632  0.1135 -0.3831 -0.0571
 1217ERGO    C116357   1.761  17.196   8.008 -0.3653 -0.1440 -0.1288
 1217ERGO    C216358   1.728  17.109   8.307  0.3160 -0.0616 -0.2697
 1218ERGO   ROH16359   8.642   4.434   6.768 -0.0798 -0.0541 -0.0101
 1218ERGO    R116360   8.673   4.405   7.048 -0.1874 -0.1356 -0.0059
 1218ERGO    R216361   8.637   4.614   7.224  0.0525 -0.1084  0.0138
 1218ERGO    R316362   8.462   4.443   7.342 -0.2118  0.1084 -0.0530
 1218ERGO    R416363   8.489   4.667   7.531  0.3948 -0.1474  0.1897
 1218ERGO    R516364   8.518   4.455   7.576 -0.0025 -0.2681 -0.0764
 1218ERGO    C116365   8.239   4.537   7.822  0.3459  0.0334  0.2295
 1218ERGO    C216366   7.981   4.461   8.086 -0.0453 -0.0439 -0.0603
 1219ERGO   ROH16367  16.879  15.187  10.344  0.0280 -0.1746  0.0140
 1219ERGO    R116368  17.000  15.014  10.156  0.1047 -0.0613 -0.0417
 1219ERGO    R216369  16.866  14.921   9.933  0.0928 -0.1760  0.0138
 1219ERGO    R316370  17.080  15.025   9.801 -0.0554  0.0209 -0.0768
 1219ERGO    R416371  16.934  14.873   9.597  0.1256 -0.3268  0.0411
 1219ERGO    R516372  17.145  14.852   9.647  0.1627 -0.0067  0.0410
 1219ERGO    C116373  17.174  14.943   9.278  0.0053 -0.2298 -0.0283
 1219ERGO    C216374  17.049  14.956   8.908  0.1400  0.1250 -0.1293
 1220ERGO   ROH16375   8.498   2.015  10.105  0.0108  0.3452  0.0016
 1220ERGO    R116376   8.434   1.928   9.843  0.0815  0.1151  0.0584
 1220ERGO    R216377   8.304   2.089   9.660  0.0025 -0.0939 -0.0724
 1220ERGO    R316378   8.518   2.030   9.504  0.0497 -0.0861 -0.0113
 1220ERGO    R416379   8.304   2.097   9.315  0.0940 -0.1052 -0.0726
 1220ERGO    R516380   8.424   1.915   9.316  0.1063 -0.0989 -0.0332
 1220ERGO    C116381   8.505   2.046   8.967  0.1917 -0.1045 -0.0154
 1220ERGO    C216382   8.491   1.907   8.675  0.0087  0.0665  0.1319
 1221ERGO   ROH16383   3.464   1.993   6.974 -0.3703  0.1125 -0.0441
 1221ERGO    R116384   3.519   2.021   7.250 -0.2056  0.0910 -0.0735
 1221ERGO    R216385   3.427   2.234   7.400 -0.2481  0.0012  0.0328
 1221ERGO    R316386   3.326   2.037   7.558 -0.0154 -0.0998  0.0586
 1221ERGO    R416387   3.357   2.267   7.737 -0.3308 -0.0227  0.0179
 1221ERGO    R516388   3.437   2.067   7.768 -0.0769  0.0833  0.0659
 1221ERGO    C116389   3.222   2.101   8.081 -0.1605 -0.1315  0.0333
 1221ERGO    C216390   3.029   1.972   8.314  0.1284  0.1942  0.2331
 1222ERGO   ROH16391   9.201  15.297   6.409  0.0959  0.1949 -0.1788
 1222ERGO    R116392   8.994  15.296   6.602 -0.0540  0.1253 -0.3368
 1222ERGO    R216393   9.042  15.333   6.872 -0.1886 -0.5067 -0.2071
 1222ERGO    R316394   8.857  15.530   6.844  0.1482 -0.1399  0.0450
 1222ERGO    R416395   8.820  15.433   7.117 -0.1425 -0.5662 -0.1403
 1222ERGO    R516396   8.666  15.451   6.964 -0.0446 -0.0396 -0.1907
 1222ERGO    C116397   8.517  15.677   7.233  0.2005 -0.2566  0.1352
 1222ERGO    C216398   8.379  15.729   7.463 -0.0563 -0.2070 -0.2339
 1223ERGO   ROH16399  13.047   5.492   6.737  0.1313  0.1027  0.0639
 1223ERGO    R116400  13.085   5.605   6.994 -0.0761  0.1594  0.0709
 1223ERGO    R216401  12.876   5.655   7.167 -0.1773 -0.1709  0.0451
 1223ERGO    R316402  13.026   5.506   7.338  0.0377  0.0574  0.0628
 1223ERGO    R416403  12.827   5.639   7.509 -0.1281 -0.1600  0.0531
 1223ERGO    R516404  13.044   5.642   7.535 -0.1221  0.1289  0.0328
 1223ERGO    C116405  12.939   5.490   7.869  0.1023  0.0606  0.0744
 1223ERGO    C216406  12.841   5.586   8.233  0.1988  0.0238 -0.0187
 1224ERGO   ROH16407   6.387   1.397   6.446  0.1255 -0.1148  0.0487
 1224ERGO    R116408   6.356   1.372   6.727  0.1731 -0.0498  0.0603
 1224ERGO    R216409   6.548   1.255   6.888  0.2754  0.1352  0.0787
 1224ERGO    R316410   6.531   1.490   7.024  0.1226  0.1678  0.0049
 1224ERGO    R416411   6.583   1.287   7.230  0.1300  0.2531  0.0835
 1224ERGO    R516412   6.420   1.432   7.228  0.0696  0.1819 -0.0212
 1224ERGO    C116413   6.588   1.526   7.557 -0.0982  0.3523  0.0171
 1224ERGO    C216414   6.692   1.658   7.857 -0.1163  0.3832  0.1908
 1225ERGO   ROH16415   4.139   4.047   7.057  0.0034 -0.3196  0.0442
 1225ERGO    R116416   3.976   4.227   7.203  0.1022 -0.1758 -0.0213
 1225ERGO    R216417   3.735   4.152   7.315  0.0251  0.0178 -0.0570
 1225ERGO    R316418   3.847   4.250   7.543  0.0484 -0.0213 -0.0511
 1225ERGO    R416419   3.561   4.309   7.570  0.0625  0.0652 -0.0602
 1225ERGO    R516420   3.725   4.451   7.587  0.1070  0.0160 -0.0519
 1225ERGO    C116421   3.566   4.492   7.931  0.1063  0.0562 -0.0566
 1225ERGO    C216422   3.336   4.567   8.185 -0.0090  0.2240 -0.0777
 1226ERGO   ROH16423  13.353   2.587   6.644 -0.2220 -0.3544 -0.0590
 1226ERGO    R116424  13.405   2.448   6.885 -0.1439 -0.1400  0.0504
 1226ERGO    R216425  13.369   2.563   7.134 -0.3265 -0.0045 -0.0364
 1226ERGO    R316426  13.213   2.345   7.177 -0.1182 -0.1364  0.0685
 1226ERGO    R416427  13.303   2.425   7.444 -0.2094  0.0890  0.0315
 1226ERGO    R516428  13.322   2.227   7.355 -0.0130  0.0600  0.1357
 1226ERGO    C116429  13.117   2.140   7.665  0.0543  0.0197  0.1696
 1226ERGO    C216430  13.074   2.213   7.982  0.0571  0.4189 -0.0710
 1227ERGO   ROH16431   9.198   1.309   6.216  0.0035 -0.0920 -0.0530
 1227ERGO    R116432   9.137   1.308   6.493  0.0468  0.0205 -0.0414
 1227ERGO    R216433   8.885   1.367   6.590  0.0721  0.1303 -0.0172
 1227ERGO    R316434   8.912   1.126   6.713  0.0260  0.1611  0.0502
 1227ERGO    R416435   8.690   1.256   6.852  0.1415  0.2767  0.0967
 1227ERGO    R516436   8.868   1.172   6.944  0.1372  0.2408  0.0489
 1227ERGO    C116437   8.601   0.965   7.121  0.1387  0.3907  0.2264
 1227ERGO    C216438   8.491   1.022   7.444  0.2344 -0.3739  0.0827
 1228ERGO   ROH16439   7.790  17.436   6.340  0.1020  0.2323  0.1172
 1228ERGO    R116440   7.593  17.467   6.541 -0.0188  0.3191 -0.0120
 1228ERGO    R216441   7.619  17.357   6.793 -0.3110  0.1624 -0.0434
 1228ERGO    R316442   7.576  17.613   6.874 -0.1208  0.1659  0.0500
 1228ERGO    R416443   7.498  17.448   7.103 -0.2760  0.1409 -0.0240
 1228ERGO    R516444   7.377  17.601   7.006 -0.1449  0.2727  0.0209
 1228ERGO    C116445   7.387  17.742   7.360 -0.0772  0.1318  0.0751
 1228ERGO    C216446   7.269  17.868   7.700  0.0047 -0.0607 -0.1224
 1229ERGO   ROH16447   6.899   4.089   7.119 -0.1776 -0.1409 -0.0742
 1229ERGO    R116448   6.849   3.884   7.308 -0.0493 -0.1512 -0.0508
 1229ERGO    R216449   7.048   3.778   7.467  0.0012  0.0600  0.0311
 1229ERGO    R316450   6.878   3.845   7.669 -0.1234 -0.0550 -0.0339
 1229ERGO    R416451   7.014   3.602   7.763  0.0998  0.1077  0.0711
 1229ERGO    R516452   6.799   3.635   7.752  0.0678 -0.1148  0.0029
 1229ERGO    C116453   6.835   3.563   8.125  0.0402  0.0275  0.0334
 1229ERGO    C216454   7.085   3.519   8.332  0.0798  0.1002  0.2436
 1230ERGO   ROH16455   0.625  11.972   6.728  0.0444  0.0415 -0.1501
 1230ERGO    R116456   0.478  12.033   6.961  0.0043 -0.0060 -0.1629
 1230ERGO    R216457   0.476  11.870   7.184 -0.0363 -0.0532 -0.1973
 1230ERGO    R316458   0.552  12.097   7.312 -0.0558 -0.0805 -0.1366
 1230ERGO    R416459   0.521  11.898   7.525 -0.1246 -0.1135 -0.1799
 1230ERGO    R516460   0.427  12.095   7.516 -0.1092 -0.1070 -0.1704
 1230ERGO    C116461   0.619  12.129   7.844 -0.1942 -0.1741 -0.1129
 1230ERGO    C216462   0.739  12.355   8.111  0.2587 -0.0702  0.0264
 1231ERGO   ROH16463   8.009  14.164   9.805 -0.0376  0.2937  0.0621
 1231ERGO    R116464   8.083  14.074   9.547 -0.0461  0.1484  0.1091
 1231ERGO    R216465   7.919  13.916   9.391 -0.0474  0.0479  0.2061
 1231ERGO    R316466   7.959  14.112   9.207 -0.0669 -0.0534  0.0936
 1231ERGO    R416467   7.890  13.875   9.049 -0.1550 -0.1185  0.2343
 1231ERGO    R516468   8.067  14.001   9.024 -0.1418 -0.1631  0.1178
 1231ERGO    C116469   7.912  14.035   8.677 -0.2360 -0.3105  0.1452
 1231ERGO    C216470   7.991  14.030   8.317  0.1435 -0.0970  0.2458
 1232ERGO   ROH16471   3.977  16.825  10.591  0.3638  0.0585 -0.0074
 1232ERGO    R116472   3.869  16.715  10.354  0.2305 -0.0816  0.1139
 1232ERGO    R216473   3.740  16.868  10.164 -0.0287 -0.2144  0.1647
 1232ERGO    R316474   3.921  16.755   9.996 -0.0906 -0.1527  0.0585
 1232ERGO    R416475   3.691  16.817   9.825 -0.0717  0.0530  0.1303
 1232ERGO    R516476   3.789  16.624   9.845 -0.1430  0.0098 -0.0282
 1232ERGO    C116477   3.833  16.682   9.471 -0.1549  0.2665  0.0106
 1232ERGO    C216478   3.874  16.825   9.156  0.1955 -0.1398 -0.0217
 1233ERGO   ROH16479   0.460  16.468  10.391  0.0480 -0.1065  0.0956
 1233ERGO    R116480   0.610  16.438  10.152  0.0565 -0.1125  0.1013
 1233ERGO    R216481   0.525  16.279   9.943  0.0313 -0.0649  0.0742
 1233ERGO    R316482   0.560  16.507   9.798  0.0965 -0.0543  0.1071
 1233ERGO    R416483   0.539  16.294   9.598  0.0025 -0.0156  0.0753
 1233ERGO    R516484   0.700  16.440   9.616  0.0552 -0.0745  0.0831
 1233ERGO    C116485   0.581  16.516   9.261  0.0471  0.0228  0.1069
 1233ERGO    C216486   0.527  16.478   8.922  0.2329  0.0227 -0.0131
 1234ERGO   ROH16487  14.784  16.180   9.858  0.1106 -0.2295  0.0445
 1234ERGO    R116488  14.873  16.056   9.620  0.2309 -0.1186  0.0318
 1234ERGO    R216489  14.740  16.083   9.379  0.1313 -0.3207  0.0640
 1234ERGO    R316490  14.984  16.165   9.291 -0.0001  0.0216 -0.0020
 1234ERGO    R416491  14.857  16.042   9.057  0.1220 -0.1882  0.0422
 1234ERGO    R516492  15.053  15.992   9.139  0.2156  0.1008  0.0029
 1234ERGO    C116493  15.154  16.095   8.786 -0.0067  0.2102 -0.0325
 1234ERGO    C216494  15.084  16.170   8.438 -0.1068  0.2366 -0.2682
 1235ERGO   ROH16495   3.449   7.469  11.017 -0.1026  0.2035 -0.0318
 1235ERGO    R116496   3.490   7.327  10.776  0.1073  0.2956 -0.0530
 1235ERGO    R216497   3.284   7.202  10.640  0.3006 -0.0786 -0.0171
 1235ERGO    R316498   3.373   7.352  10.432 -0.0208  0.1127 -0.0234
 1235ERGO    R416499   3.262   7.111  10.308  0.1681  0.0404 -0.0419
 1235ERGO    R516500   3.462   7.193  10.277  0.0533  0.2818 -0.1546
 1235ERGO    C116501   3.333   7.200   9.918 -0.2107  0.2892 -0.0623
 1235ERGO    C216502   3.330   7.280   9.661  0.2389 -0.0236  0.1078
 1236ERGO   ROH16503   1.310  13.976   6.671 -0.3479 -0.2184  0.0959
 1236ERGO    R116504   1.272  13.984   6.952 -0.1820 -0.3255  0.1234
 1236ERGO    R216505   1.408  13.816   7.124  0.1941 -0.1520  0.0145
 1236ERGO    R316506   1.478  14.050   7.244 -0.0900 -0.0562 -0.0001
 1236ERGO    R416507   1.485  13.850   7.460  0.2623 -0.0550 -0.0118
 1236ERGO    R516508   1.376  14.039   7.461 -0.0006 -0.2077  0.0330
 1236ERGO    C116509   1.597  14.089   7.767  0.0353  0.0914 -0.0407
 1236ERGO    C216510   1.639  14.042   8.110  0.0862 -0.1668  0.0750
 1237ERGO   ROH16511  10.284  16.609   9.487 -0.3854 -0.1573  0.1739
 1237ERGO    R116512  10.135  16.615   9.246 -0.2812 -0.1392  0.1095
 1237ERGO    R216513  10.237  16.714   9.010 -0.2584  0.0901  0.2153
 1237ERGO    R316514  10.163  16.471   8.913 -0.0095  0.0871  0.0318
 1237ERGO    R416515  10.291  16.606   8.686 -0.1064  0.3759  0.1416
 1237ERGO    R516516  10.093  16.516   8.688 -0.0206  0.1814  0.0531
 1237ERGO    C116517  10.254  16.315   8.407  0.2156  0.5393 -0.0736
 1237ERGO    C216518  10.171  16.304   8.109  0.0812  0.0152 -0.1109
 1238ERGO   ROH16519   8.683  17.529   9.840 -0.2341 -0.1561  0.0032
 1238ERGO    R116520   8.524  17.568   9.610 -0.1363 -0.0989 -0.0565
 1238ERGO    R216521   8.619  17.693   9.382 -0.0547  0.0092  0.0310
 1238ERGO    R316522   8.535  17.465   9.261  0.0471  0.0363 -0.0909
 1238ERGO    R416523   8.536  17.666   9.048 -0.0034  0.1324  0.0082
 1238ERGO    R516524   8.369  17.538   9.105  0.0409  0.0437 -0.0759
 1238ERGO    C116525   8.408  17.437   8.739  0.1221  0.2296 -0.1193
 1238ERGO    C216526   8.529  17.279   8.502 -0.0715 -0.2292  0.0797
 1239ERGO   ROH16527   4.441  14.705   6.225  0.2177  0.0077 -0.0105
 1239ERGO    R116528   4.402  14.706   6.506  0.2579  0.0274 -0.0041
 1239ERGO    R216529   4.613  14.704   6.685  0.2858  0.1658 -0.0325
 1239ERGO    R316530   4.488  14.924   6.784  0.1823  0.1135 -0.0478
 1239ERGO    R416531   4.690  14.858   6.985  0.0158  0.0495  0.0994
 1239ERGO    R516532   4.477  14.886   7.020 -0.0169  0.0158 -0.0717
 1239ERGO    C116533   4.619  15.154   7.251 -0.2385 -0.0674  0.1617
 1239ERGO    C216534   4.826  15.216   7.430 -0.2759  0.1563 -0.4155
 1240ERGO   ROH16535   5.459   3.651  10.650  0.2315 -0.0330 -0.0150
 1240ERGO    R116536   5.303   3.764  10.442  0.1806 -0.0370  0.0219
 1240ERGO    R216537   5.410   3.931  10.251  0.1493 -0.1091 -0.0528
 1240ERGO    R316538   5.300   3.753  10.078  0.0326 -0.1132  0.0237
 1240ERGO    R416539   5.262   4.014   9.949  0.1721 -0.1306 -0.0708
 1240ERGO    R516540   5.107   3.866   9.991  0.0873 -0.0305 -0.0004
 1240ERGO    C116541   5.072   3.894   9.612  0.0758 -0.1471 -0.0093
 1240ERGO    C216542   5.016   4.073   9.268  0.1416  0.4931 -0.3204
 1241ERGO   ROH16543   0.835   3.362   6.800  0.0782  0.1189  0.0044
 1241ERGO    R116544   0.878   3.529   7.025  0.0942  0.1417 -0.0147
 1241ERGO    R216545   0.670   3.640   7.170  0.1018  0.0827  0.0455
 1241ERGO    R316546   0.796   3.520   7.379  0.2037  0.1286  0.0104
 1241ERGO    R416547   0.635   3.733   7.501  0.2270  0.1253  0.0464
 1241ERGO    R516548   0.849   3.700   7.528  0.2421  0.1562 -0.0375
 1241ERGO    C116549   0.733   3.675   7.890  0.3956  0.1932  0.0141
 1241ERGO    C216550   0.823   3.744   8.265 -0.2323 -0.1901  0.1659
 1242ERGO   ROH16551   4.858  16.335   6.595  0.0380  0.2214 -0.0192
 1242ERGO    R116552   4.844  16.385   6.873  0.0273  0.0998  0.0032
 1242ERGO    R216553   4.685  16.237   7.044 -0.0079  0.0479 -0.0726
 1242ERGO    R316554   4.918  16.203   7.179 -0.0218 -0.0490 -0.0730
 1242ERGO    R416555   4.712  16.092   7.356 -0.0604 -0.0066 -0.0934
 1242ERGO    R516556   4.860  16.243   7.408 -0.0118 -0.0634 -0.0687
 1242ERGO    C116557   4.947  15.975   7.665 -0.1039 -0.1291 -0.1058
 1242ERGO    C216558   4.746  15.802   7.851  0.0988  0.3187 -0.1766
 1243ERGO   ROH16559  10.639   3.700  10.459 -0.0508  0.0165 -0.0654
 1243ERGO    R116560  10.733   3.713  10.193  0.0283  0.1406 -0.0323
 1243ERGO    R216561  10.602   3.591   9.983  0.2991 -0.0973 -0.0699
 1243ERGO    R316562  10.610   3.841   9.875 -0.0651 -0.0892 -0.0907
 1243ERGO    R416563  10.658   3.660   9.648  0.3844 -0.0414 -0.0444
 1243ERGO    R516564  10.783   3.828   9.709  0.0627  0.1867  0.0148
 1243ERGO    C116565  10.698   3.934   9.353  0.0922 -0.0012 -0.0490
 1243ERGO    C216566  10.560   3.861   9.054  0.0182  0.2600 -0.2952
 1244ERGO   ROH16567  10.617  14.371  10.103  0.2371 -0.0702  0.2549
 1244ERGO    R116568  10.526  14.320   9.840  0.1624 -0.1462  0.2957
 1244ERGO    R216569  10.583  14.487   9.627 -0.0103 -0.1367  0.2572
 1244ERGO    R316570  10.677  14.258   9.515  0.0698 -0.0976  0.2424
 1244ERGO    R416571  10.571  14.412   9.290  0.0364 -0.1070  0.2485
 1244ERGO    R516572  10.519  14.207   9.342  0.0961 -0.1297  0.2259
 1244ERGO    C116573  10.652  14.153   8.988  0.1387 -0.0530  0.2295
 1244ERGO    C216574  10.625  14.008   8.768  0.2414  0.3114 -0.3183
 1245ERGO   ROH16575  12.557   6.864   6.812 -0.0172 -0.0744  0.1947
 1245ERGO    R116576  12.635   6.947   7.071  0.0279 -0.2053  0.2203
 1245ERGO    R216577  12.488   7.125   7.222  0.2194 -0.0607  0.2193
 1245ERGO    R316578  12.499   6.927   7.407 -0.0497 -0.0851  0.1949
 1245ERGO    R416579  12.502   7.175   7.563  0.5899 -0.0886  0.2125
 1245ERGO    R516580  12.646   7.012   7.576  0.2608 -0.3900  0.0880
 1245ERGO    C116581  12.521   7.019   7.936  0.5532 -0.1278  0.1855
 1245ERGO    C216582  12.553   6.938   8.117 -0.1737  0.1376 -0.2780
 1246ERGO   ROH16583  10.526   1.262   9.927  0.0189  0.1300  0.1255
 1246ERGO    R116584  10.490   1.233   9.648  0.2202 -0.0721  0.1185
 1246ERGO    R216585  10.341   1.411   9.498  0.0145 -0.3853 -0.0525
 1246ERGO    R316586  10.569   1.426   9.349  0.0769 -0.0949  0.0636
 1246ERGO    R416587  10.352   1.475   9.158  0.1038 -0.3098 -0.0367
 1246ERGO    R516588  10.510   1.326   9.140  0.2916 -0.1293  0.0129
 1246ERGO    C116589  10.572   1.527   8.821  0.2144  0.0068  0.0815
 1246ERGO    C216590  10.504   1.560   8.426 -0.1200  0.0480  0.1221
 1247ERGO   ROH16591   2.850  16.271  10.379  0.1233 -0.0461 -0.0588
 1247ERGO    R116592   2.914  16.392  10.131  0.1359 -0.0981 -0.0807
 1247ERGO    R216593   2.876  16.264   9.889 -0.0480 -0.0704 -0.0664
 1247ERGO    R316594   2.734  16.488   9.830  0.1094  0.0442 -0.0210
 1247ERGO    R416595   2.762  16.348   9.574 -0.1475 -0.0237 -0.0187
 1247ERGO    R516596   2.816  16.555   9.615  0.0531 -0.0594 -0.0772
 1247ERGO    C116597   2.562  16.607   9.335 -0.0576  0.1108  0.0516
 1247ERGO    C216598   2.528  16.689   9.025 -0.3728  0.2600  0.0421
 1248ERGO   ROH16599   7.483   8.023   6.784  0.1340  0.1432  0.0865
 1248ERGO    R116600   7.445   7.894   7.033  0.2136  0.1247  0.0887
 1248ERGO    R216601   7.586   7.964   7.260  0.0384  0.3447  0.1298
 1248ERGO    R316602   7.338   7.991   7.367 -0.0403  0.0278  0.0392
 1248ERGO    R416603   7.520   8.010   7.596 -0.1282  0.3608  0.0961
 1248ERGO    R516604   7.351   7.874   7.576  0.0634  0.1078  0.0821
 1248ERGO    C116605   7.249   8.062   7.892 -0.2991  0.0726 -0.0084
 1248ERGO    C216606   7.279   8.204   8.176 -0.1140  0.1208  0.1802
 1249ERGO   ROH16607  13.478  12.900   6.615 -0.0419 -0.0202 -0.0508
 1249ERGO    R116608  13.658  12.815   6.817 -0.1228 -0.1173 -0.0189
 1249ERGO    R216609  13.859  12.977   6.915  0.0732 -0.2928 -0.1245
 1249ERGO    R316610  13.745  12.919   7.154  0.0229 -0.0305 -0.0826
 1249ERGO    R416611  13.982  13.077   7.222  0.1155 -0.1219 -0.1959
 1249ERGO    R516612  13.930  12.881   7.301 -0.0096 -0.0272 -0.0409
 1249ERGO    C116613  13.947  13.081   7.625  0.0930  0.2239 -0.1981
 1249ERGO    C216614  13.777  13.384   7.833  0.0270  0.1839  0.1416
 1250ERGO   ROH16615   9.233   8.127   6.715  0.0817 -0.1398  0.2123
 1250ERGO    R116616   9.267   7.988   6.960 -0.0219 -0.2394  0.1704
 1250ERGO    R216617   9.276   8.117   7.204  0.2556 -0.3066  0.1967
 1250ERGO    R316618   9.077   7.943   7.267  0.0345 -0.0334  0.2343
 1250ERGO    R416619   9.237   7.964   7.512  0.1332 -0.2912  0.1888
 1250ERGO    R516620   9.182   7.781   7.408 -0.1536 -0.1974  0.1839
 1250ERGO    C116621   9.027   7.712   7.750 -0.1456 -0.0258  0.2196
 1250ERGO    C216622   8.950   7.427   7.836  0.0619 -0.1458  0.1652
 1251ERGO   ROH16623   7.900  15.493   9.724 -0.1225  0.2201 -0.0511
 1251ERGO    R116624   7.892  15.377   9.465 -0.1111  0.2195 -0.0510
 1251ERGO    R216625   7.661  15.365   9.315 -0.1236  0.1398 -0.0245
 1251ERGO    R316626   7.814  15.490   9.128 -0.1884  0.1949 -0.0417
 1251ERGO    R416627   7.608  15.349   8.974 -0.1023  0.0450 -0.0237
 1251ERGO    R516628   7.824  15.334   8.946 -0.0911  0.1655 -0.0125
 1251ERGO    C116629   7.722  15.457   8.600 -0.1507  0.0417 -0.0395
 1251ERGO    C216630   7.590  15.418   8.380  0.0361  0.1887 -0.0511
 1252ERGO   ROH16631  13.068   9.779   6.943 -0.0784  0.4494  0.1402
 1252ERGO    R116632  12.989   9.764   7.214 -0.0206  0.1706  0.1444
 1252ERGO    R216633  12.875   9.537   7.323  0.0015  0.0578 -0.0635
 1252ERGO    R316634  13.077   9.562   7.504  0.0395 -0.1308 -0.0782
 1252ERGO    R416635  12.836   9.521   7.666 -0.0505  0.4099 -0.0506
 1252ERGO    R516636  12.980   9.685   7.685  0.2301  0.1907 -0.1834
 1252ERGO    C116637  13.003   9.536   8.036 -0.0452  0.4379 -0.0568
 1252ERGO    C216638  12.860   9.503   8.446  0.1401 -0.0636  0.1309
 1253ERGO   ROH16639  11.625   5.466   6.926 -0.0086  0.3425  0.0158
 1253ERGO    R116640  11.505   5.566   7.162 -0.3870 -0.0191 -0.0089
 1253ERGO    R216641  11.334   5.415   7.318 -0.0170 -0.5480 -0.0724
 1253ERGO    R316642  11.507   5.483   7.516 -0.2525 -0.0562 -0.0205
 1253ERGO    R416643  11.293   5.337   7.652 -0.1020 -0.2484 -0.0116
 1253ERGO    R516644  11.367   5.536   7.702 -0.4540 -0.0755 -0.1709
 1253ERGO    C116645  11.432   5.355   8.032 -0.3728  0.3876  0.0727
 1253ERGO    C216646  11.517   5.376   8.309 -0.2392 -0.2193 -0.3511
 1254ERGO   ROH16647  15.455  16.659  10.219 -0.1048  0.1408  0.0945
 1254ERGO    R116648  15.390  16.789   9.977 -0.0901  0.0802  0.0573
 1254ERGO    R216649  15.578  16.918   9.821 -0.0864  0.0769  0.0562
 1254ERGO    R316650  15.481  16.756   9.626 -0.0344  0.0197  0.0777
 1254ERGO    R416651  15.644  16.953   9.483  0.0188 -0.0358  0.0645
 1254ERGO    R516652  15.436  16.904   9.443  0.0298 -0.0376  0.0164
 1254ERGO    C116653  15.590  16.822   9.104  0.1290 -0.1550  0.0897
 1254ERGO    C216654  15.529  16.978   8.843  0.1621 -0.2041  0.0086
 1255ERGO   ROH16655   8.410  13.915   9.922 -0.2231 -0.0897 -0.0097
 1255ERGO    R116656   8.494  13.802   9.677 -0.1584 -0.0792  0.0064
 1255ERGO    R216657   8.339  13.623   9.534 -0.1278 -0.0672 -0.0503
 1255ERGO    R316658   8.376  13.801   9.332 -0.0640 -0.0531 -0.0253
 1255ERGO    R416659   8.289  13.555   9.199  0.0532 -0.0588 -0.0793
 1255ERGO    R516660   8.468  13.670   9.154  0.0494 -0.0230  0.0144
 1255ERGO    C116661   8.294  13.682   8.815  0.2186 -0.0408 -0.0727
 1255ERGO    C216662   8.298  13.712   8.498  0.2240 -0.0097  0.1338
 1256ERGO   ROH16663  10.111  13.091  10.180  0.0227 -0.0563  0.0288
 1256ERGO    R116664  10.000  12.967   9.951 -0.0114  0.0837 -0.0318
 1256ERGO    R216665   9.915  13.111   9.731  0.0181  0.2155  0.0369
 1256ERGO    R316666  10.082  12.944   9.597 -0.0213  0.2416 -0.0439
 1256ERGO    R416667   9.886  13.030   9.396 -0.1898  0.1209  0.0766
 1256ERGO    R516668   9.939  12.825   9.447 -0.0836  0.1553  0.0879
 1256ERGO    C116669  10.026  12.826   9.076 -0.3478  0.0903  0.0238
 1256ERGO    C216670  10.032  12.701   8.648 -0.1866  0.0841 -0.0833
 1257ERGO   ROH16671   7.891   0.538   9.935 -0.0435  0.0242  0.0665
 1257ERGO    R116672   7.769   0.568   9.682  0.0336 -0.0132  0.0239
 1257ERGO    R216673   7.771   0.807   9.543 -0.0338  0.0026  0.0464
 1257ERGO    R316674   7.876   0.654   9.345  0.1162  0.0716  0.0715
 1257ERGO    R416675   7.715   0.854   9.205  0.0121 -0.0405  0.0330
 1257ERGO    R516676   7.701   0.638   9.182  0.1644 -0.0496  0.0315
 1257ERGO    C116677   7.780   0.737   8.823  0.1797 -0.0008  0.0487
 1257ERGO    C216678   7.869   0.673   8.479  0.1633  0.0296 -0.1280
 1258ERGO   ROH16679  16.803  15.639  10.403 -0.0636 -0.0636  0.1522
 1258ERGO    R116680  16.689  15.770  10.180  0.0375  0.0179  0.1474
 1258ERGO    R216681  16.841  15.900   9.989  0.1353 -0.0575  0.1720
 1258ERGO    R316682  16.704  15.739   9.818  0.0602  0.0311  0.1478
 1258ERGO    R416683  16.862  15.914   9.645  0.3149 -0.1680  0.1767
 1258ERGO    R516684  16.647  15.882   9.635  0.2868  0.0397  0.0819
 1258ERGO    C116685  16.746  15.772   9.283  0.3486 -0.1492  0.1569
 1258ERGO    C216686  16.786  15.799   8.937  0.0741  0.0226 -0.2603
 1259ERGO   ROH16687  13.163   2.145   6.687 -0.1457  0.2442 -0.0513
 1259ERGO    R116688  12.968   2.097   6.886 -0.1507 -0.0189 -0.1160
 1259ERGO    R216689  12.922   1.846   6.993  0.1734 -0.0780 -0.1106
 1259ERGO    R316690  12.964   1.975   7.229 -0.0954  0.0074 -0.1055
 1259ERGO    R416691  12.820   1.731   7.302  0.2466 -0.2102 -0.1346
 1259ERGO    R516692  12.764   1.934   7.355 -0.0801 -0.2846 -0.1666
 1259ERGO    C116693  12.800   1.784   7.704  0.0369 -0.2071 -0.1437
 1259ERGO    C216694  12.887   1.725   8.119  0.0714  0.1978  0.1240
 1260ERGO   ROH16695  12.496   3.450  10.494  0.0199 -0.1533 -0.0322
 1260ERGO    R116696  12.507   3.383  10.219 -0.0376 -0.1493 -0.0375
 1260ERGO    R216697  12.301   3.441  10.043 -0.0990 -0.1843  0.0080
 1260ERGO    R316698  12.499   3.564   9.903 -0.1529 -0.1439 -0.0287
 1260ERGO    R416699  12.309   3.475   9.699 -0.0981 -0.2790 -0.0000
 1260ERGO    R516700  12.522   3.433   9.704 -0.0896 -0.1841  0.0138
 1260ERGO    C116701  12.498   3.610   9.367 -0.1480 -0.2961 -0.0393
 1260ERGO    C216702  12.403   3.673   9.031 -0.3169 -0.1221  0.2636
 1261ERGO   ROH16703   2.117  14.998  10.528  0.0638 -0.0749  0.1528
 1261ERGO    R116704   2.180  15.107  10.275  0.1852 -0.1527  0.1487
 1261ERGO    R216705   2.319  14.965  10.082  0.0118 -0.3247  0.1460
 1261ERGO    R316706   2.104  15.028   9.927  0.0773 -0.0709  0.1533
 1261ERGO    R416707   2.323  14.987   9.737  0.0606 -0.1563  0.1563
 1261ERGO    R516708   2.195  15.163   9.752  0.2038 -0.0573  0.2289
 1261ERGO    C116709   2.124  15.059   9.391  0.1505  0.1800  0.1691
 1261ERGO    C216710   2.193  15.071   9.089 -0.0446  0.2793  0.0166
 1262ERGO   ROH16711   0.087   4.479   7.276 -0.0846 -0.2698  0.0031
 1262ERGO    R116712  -0.030   4.475   7.534 -0.1488 -0.2343 -0.0247
 1262ERGO    R216713  -0.136   4.246   7.645 -0.0474 -0.2534  0.0394
 1262ERGO    R316714   0.033   4.305   7.850 -0.1319 -0.0749  0.0580
 1262ERGO    R416715  -0.156   4.110   7.962 -0.0569 -0.1225  0.0950
 1262ERGO    R516716  -0.108   4.307   8.044 -0.1814 -0.0625  0.0204
 1262ERGO    C116717  -0.009   4.086   8.339 -0.1417  0.1212  0.1449
 1262ERGO    C216718  -0.129   3.906   8.580  0.0385 -0.1106 -0.0664
 1263ERGO   ROH16719   8.661   9.956   6.958  0.2843  0.1809 -0.0321
 1263ERGO    R116720   8.717  10.091   7.201  0.2993 -0.0072  0.0703
 1263ERGO    R216721   8.522  10.150   7.387  0.2195  0.2895 -0.1028
 1263ERGO    R316722   8.689  10.018   7.556 -0.1856 -0.0850  0.0228
 1263ERGO    R416723   8.564  10.226   7.721  0.4306  0.4751 -0.1694
 1263ERGO    R516724   8.778  10.190   7.697  0.3421 -0.2117 -0.1319
 1263ERGO    C116725   8.745  10.147   8.075  0.1733  0.2315 -0.0903
 1263ERGO    C216726   8.738  10.175   8.436 -0.2343  0.2761 -0.1293
 1264ERGO   ROH16727  11.952   4.538   7.175  0.0125 -0.2191  0.0429
 1264ERGO    R116728  11.813   4.528   7.422  0.0392 -0.2593  0.0549
 1264ERGO    R216729  11.864   4.335   7.613  0.2340 -0.1409  0.1183
 1264ERGO    R316730  11.900   4.551   7.775  0.0409 -0.0489  0.0432
 1264ERGO    R416731  11.785   4.346   7.950  0.3269 -0.1372  0.1414
 1264ERGO    R516732  11.710   4.548   7.921  0.0844 -0.2252  0.1037
 1264ERGO    C116733  11.773   4.554   8.297  0.1996 -0.0486  0.0843
 1264ERGO    C216734  11.782   4.845   8.608  0.1329  0.0206 -0.0797
 1265ERGO   ROH16735   9.001   6.340   7.191  0.0484  0.0180 -0.1082
 1265ERGO    R116736   8.932   6.230   7.443  0.0752  0.1151 -0.0582
 1265ERGO    R216737   8.945   5.960   7.496 -0.2017  0.1007 -0.0493
 1265ERGO    R316738   9.100   6.041   7.705  0.0205 -0.0596 -0.1475
 1265ERGO    R416739   9.023   5.767   7.772 -0.3071  0.0492 -0.0551
 1265ERGO    R516740   8.997   5.943   7.897 -0.0081  0.1122 -0.0730
 1265ERGO    C116741   9.214   5.731   8.128 -0.1599 -0.1314 -0.1506
 1265ERGO    C216742   9.493   5.735   8.294 -0.0016 -0.0906 -0.2150
 1266ERGO   ROH16743   4.363   7.505   7.346  0.0635 -0.1940 -0.0651
 1266ERGO    R116744   4.463   7.590   7.597 -0.0046 -0.1478 -0.0529
 1266ERGO    R216745   4.304   7.606   7.823 -0.0699 -0.0949 -0.0992
 1266ERGO    R316746   4.497   7.448   7.930 -0.1076 -0.0833 -0.0149
 1266ERGO    R416747   4.368   7.573   8.161  0.0752  0.2465 -0.0900
 1266ERGO    R516748   4.581   7.573   8.116  0.0526  0.0779 -0.1940
 1266ERGO    C116749   4.586   7.406   8.458  0.1243  0.4562 -0.0056
 1266ERGO    C216750   4.649   7.176   8.700  0.0450 -0.0385 -0.1438
 1267ERGO   ROH16751   3.096  11.427   7.938 -0.0660 -0.0635 -0.0611
 1267ERGO    R116752   3.049  11.377   8.213 -0.0240 -0.1400 -0.0680
 1267ERGO    R216753   2.801  11.409   8.329  0.0094 -0.1145 -0.0100
 1267ERGO    R316754   2.841  11.152   8.408 -0.0416 -0.1503 -0.0971
 1267ERGO    R416755   2.605  11.240   8.558 -0.0110 -0.1393 -0.0450
 1267ERGO    R516756   2.786  11.153   8.641 -0.0201 -0.2093 -0.0893
 1267ERGO    C116757   2.528  10.901   8.766 -0.0707 -0.1872 -0.1471
 1267ERGO    C216758   2.515  10.517   8.889  0.3844  0.1836 -0.2133
 1268ERGO   ROH16759   3.409  15.464   8.649 -0.2842  0.2451  0.0589
 1268ERGO    R116760   3.470  15.235   8.494 -0.2124  0.2707  0.0484
 1268ERGO    R216761   3.516  14.987   8.608 -0.1120  0.2847  0.0387
 1268ERGO    R316762   3.320  14.908   8.436 -0.0971  0.2164  0.0528
 1268ERGO    R416763   3.402  14.662   8.574  0.1835  0.1953 -0.1399
 1268ERGO    R516764   3.392  14.693   8.359  0.0816  0.3340 -0.1177
 1268ERGO    C116765   3.152  14.399   8.394  0.3695  0.0791 -0.2306
 1268ERGO    C216766   2.961  14.241   8.541 -0.1660 -0.0457 -0.0590
 1269ERGO   ROH16767   3.031   0.268   7.108  0.3762 -0.0947 -0.0104
 1269ERGO    R116768   2.917   0.358   7.351  0.2901  0.0245 -0.0936
 1269ERGO    R216769   2.771   0.192   7.517 -0.0056  0.1731 -0.1959
 1269ERGO    R316770   2.949   0.276   7.704 -0.0505 -0.0107 -0.0676
 1269ERGO    R416771   2.754   0.117   7.854 -0.2339  0.0625 -0.2295
 1269ERGO    R516772   2.816   0.322   7.898 -0.1238  0.0062 -0.1232
 1269ERGO    C116773   2.912   0.153   8.226 -0.4088 -0.1743 -0.1288
 1269ERGO    C216774   2.896  -0.097   8.585  0.2085  0.1215 -0.3989
 1270ERGO   ROH16775  17.140  14.036  10.536 -0.0734  0.2055 -0.1910
 1270ERGO    R116776  17.228  14.121  10.281  0.0619  0.0763 -0.1886
 1270ERGO    R216777  17.453  14.016  10.158  0.0889 -0.0364 -0.0485
 1270ERGO    R316778  17.280  13.968   9.954  0.1632 -0.0734 -0.1027
 1270ERGO    R416779  17.524  14.066   9.824  0.1040  0.1923 -0.0128
 1270ERGO    R516780  17.322  14.144   9.798  0.0452  0.0406 -0.0059
 1270ERGO    C116781  17.403  14.049   9.438  0.1827  0.2906 -0.0431
 1270ERGO    C216782  17.410  14.134   9.214 -0.2557 -0.0207  0.0801
 1271ERGO   ROH16783   0.571  14.497   6.630  0.0271  0.2334 -0.0289
 1271ERGO    R116784   0.418  14.468   6.867  0.0179  0.0693 -0.0524
 1271ERGO    R216785   0.513  14.335   7.090  0.0983  0.1052 -0.0593
 1271ERGO    R316786   0.450  14.568   7.216 -0.1050  0.0368 -0.0328
 1271ERGO    R416787   0.525  14.385   7.432  0.0245  0.0774 -0.0532
 1271ERGO    R516788   0.340  14.500   7.417 -0.0653 -0.0751 -0.0530
 1271ERGO    C116789   0.472  14.633   7.749 -0.2093 -0.0030 -0.0248
 1271ERGO    C216790   0.624  14.584   8.079 -0.2133 -0.0727 -0.0989
 1272ERGO   ROH16791  15.411  10.684   6.822  0.0707  0.2243 -0.0142
 1272ERGO    R116792  15.469  10.598   7.086 -0.0338  0.0859 -0.0334
 1272ERGO    R216793  15.659  10.722   7.245  0.0501 -0.1103  0.0344
 1272ERGO    R316794  15.452  10.741   7.420  0.0275 -0.0046  0.0105
 1272ERGO    R416795  15.690  10.797   7.581  0.0395 -0.1272  0.0376
 1272ERGO    R516796  15.537  10.649   7.623 -0.0472 -0.0528  0.0210
 1272ERGO    C116797  15.513  10.859   7.940  0.0121 -0.0379  0.0170
 1272ERGO    C216798  15.411  10.865   8.113 -0.1859 -0.2671 -0.2588
 1273ERGO   ROH16799  13.265   4.478   7.156  0.0584 -0.0915 -0.1194
 1273ERGO    R116800  13.320   4.478   7.433 -0.0187 -0.0234 -0.1044
 1273ERGO    R216801  13.122   4.500   7.625 -0.1006 -0.2690 -0.1643
 1273ERGO    R316802  13.233   4.270   7.720  0.1570 -0.1339 -0.1277
 1273ERGO    R416803  13.165   4.425   7.959 -0.1281 -0.2099 -0.1466
 1273ERGO    R516804  13.360   4.341   7.911  0.0040  0.0329 -0.0797
 1273ERGO    C116805  13.294   4.166   8.244  0.0977 -0.0487 -0.1020
 1273ERGO    C216806  13.170   4.165   8.640 -0.1414  0.3504 -0.0241
 1274ERGO   ROH16807   0.627  17.219   6.651  0.0224  0.1288  0.0758
 1274ERGO    R116808   0.444  17.244   6.865  0.0705 -0.0792  0.1425
 1274ERGO    R216809   0.490  17.133   7.114  0.3446  0.0747  0.1617
 1274ERGO    R316810   0.445  17.388   7.199 -0.0108  0.0403  0.0926
 1274ERGO    R416811   0.458  17.227   7.445  0.3722  0.1385  0.1468
 1274ERGO    R516812   0.297  17.362   7.385  0.1233 -0.1315  0.1806
 1274ERGO    C116813   0.396  17.521   7.718  0.0546  0.1433  0.0731
 1274ERGO    C216814   0.484  17.497   8.069  0.0757  0.1930  0.3199
 1275ERGO   ROH16815  16.656  16.739   6.505  0.0594 -0.2885 -0.0352
 1275ERGO    R116816  16.675  16.539   6.704  0.0959 -0.1836  0.0661
 1275ERGO    R216817  16.904  16.501   6.856  0.0429  0.0417  0.1954
 1275ERGO    R316818  16.731  16.528   7.064 -0.0766  0.0157  0.1023
 1275ERGO    R416819  16.969  16.405   7.181 -0.1972 -0.1669  0.1865
 1275ERGO    R516820  16.765  16.332   7.196 -0.2501 -0.0785  0.0191
 1275ERGO    C116821  16.845  16.376   7.566 -0.4491 -0.3126  0.0938
 1275ERGO    C216822  16.711  16.457   7.872  0.1558  0.2150 -0.0581
 1276ERGO   ROH16823  13.809   2.522  10.195  0.0458 -0.0095  0.0158
 1276ERGO    R116824  13.810   2.639   9.937 -0.0801 -0.0767 -0.0164
 1276ERGO    R216825  14.041   2.725   9.814 -0.1760  0.2061 -0.0083
 1276ERGO    R316826  13.956   2.564   9.613  0.0680  0.0310  0.0247
 1276ERGO    R416827  14.091   2.786   9.478 -0.3139  0.2397 -0.0232
 1276ERGO    R516828  13.888   2.715   9.440 -0.2042 -0.1039  0.0089
 1276ERGO    C116829  14.040   2.670   9.093 -0.1653  0.0948 -0.0007
 1276ERGO    C216830  14.171   2.669   8.875 -0.0499 -0.1476  0.0705
 1277ERGO   ROH16831  11.620  12.087   8.885 -0.0213  0.0409 -0.1811
 1277ERGO    R116832  11.671  12.027   9.157  0.1640  0.1769 -0.1847
 1277ERGO    R216833  11.861  12.162   9.306 -0.0290  0.5426 -0.2637
 1277ERGO    R316834  11.652  12.203   9.475 -0.0590  0.2014 -0.2088
 1277ERGO    R416835  11.885  12.165   9.650 -0.0065  0.2371 -0.2588
 1277ERGO    R516836  11.696  12.057   9.659  0.0841  0.0593 -0.3479
 1277ERGO    C116837  11.702  12.207  10.010 -0.0217 -0.2609 -0.2043
 1277ERGO    C216838  11.671  12.244  10.288 -0.0121  0.2120  0.1604
 1278ERGO   ROH16839   1.004   0.235  10.556  0.2220 -0.0858 -0.0194
 1278ERGO    R116840   0.849   0.223  10.319  0.2252 -0.1396 -0.0187
 1278ERGO    R216841   0.804   0.444  10.159  0.0486 -0.1288  0.0458
 1278ERGO    R316842   0.904   0.283   9.964  0.1697  0.0041 -0.0038
 1278ERGO    R416843   0.755   0.491   9.821 -0.0790 -0.1195  0.0649
 1278ERGO    R516844   0.730   0.276   9.799  0.1363 -0.1447  0.0353
 1278ERGO    C116845   0.820   0.368   9.440 -0.0395  0.0106  0.0294
 1278ERGO    C216846   0.780   0.368   9.048  0.1026 -0.0738 -0.0422
 1279ERGO   ROH16847   5.632  16.974   6.810 -0.2416  0.0196 -0.0669
 1279ERGO    R116848   5.656  16.936   7.090 -0.1337 -0.0319 -0.0827
 1279ERGO    R216849   5.894  16.866   7.210 -0.0499  0.0990 -0.1711
 1279ERGO    R316850   5.846  17.087   7.361 -0.1541  0.0308 -0.1027
 1279ERGO    R416851   6.074  16.957   7.491  0.0851  0.2374 -0.3000
 1279ERGO    R516852   5.887  17.016   7.586  0.0964  0.0362 -0.1427
 1279ERGO    C116853   6.133  17.217   7.796  0.0658  0.2538 -0.3110
 1279ERGO    C216854   6.481  17.265   7.892 -0.2288  0.1602 -0.1058
 1280ERGO   ROH16855   0.958   5.970   7.052 -0.1214 -0.3257  0.0628
 1280ERGO    R116856   0.944   5.927   7.332  0.0545 -0.1904  0.0945
 1280ERGO    R216857   1.092   6.074   7.513 -0.0060  0.0592 -0.0532
 1280ERGO    R316858   0.849   6.120   7.625 -0.0028 -0.1264  0.0341
 1280ERGO    R416859   1.040   6.170   7.841  0.0467  0.1429 -0.0692
 1280ERGO    R516860   0.869   6.036   7.848  0.1753 -0.0183  0.0605
 1280ERGO    C116861   0.782   6.270   8.137  0.0804  0.0173  0.0035
 1280ERGO    C216862   0.714   6.367   8.400  0.3895 -0.0248 -0.0294
 1281ERGO   ROH16863   7.379  16.145   9.817  0.3381 -0.0605 -0.1061
 1281ERGO    R116864   7.318  16.258   9.565  0.1201  0.0868  0.0090
 1281ERGO    R216865   7.513  16.327   9.381 -0.0338  0.1994 -0.1212
 1281ERGO    R316866   7.367  16.168   9.215 -0.1717  0.2898 -0.0869
 1281ERGO    R416867   7.531  16.331   9.036 -0.0476  0.1161 -0.1224
 1281ERGO    R516868   7.315  16.308   9.029 -0.0636  0.2945 -0.1102
 1281ERGO    C116869   7.405  16.184   8.680 -0.1851  0.1522 -0.0909
 1281ERGO    C216870   7.397  16.288   8.363 -0.2767  0.1978 -0.2862
 1282ERGO   ROH16871  10.058   5.976   7.256  0.0552  0.0714  0.1755
 1282ERGO    R116872  10.057   6.098   7.512 -0.1791 -0.0005  0.2109
 1282ERGO    R216873   9.882   6.021   7.712 -0.1855 -0.2407  0.1181
 1282ERGO    R316874  10.111   5.991   7.855 -0.2112 -0.0421  0.2028
 1282ERGO    R416875   9.900   5.882   8.027 -0.1992 -0.0884  0.1865
 1282ERGO    R516876  10.045   6.035   8.081 -0.3058  0.0212  0.1628
 1282ERGO    C116877  10.125   5.773   8.346 -0.2312  0.1868  0.3058
 1282ERGO    C216878  10.140   5.689   8.591 -0.1341  0.0375 -0.2205
 1283ERGO   ROH16879   1.666  11.834   6.940  0.0263  0.1585 -0.0445
 1283ERGO    R116880   1.647  11.978   7.183  0.0847  0.0622  0.0176
 1283ERGO    R216881   1.537  11.869   7.412 -0.0060  0.0252 -0.0433
 1283ERGO    R316882   1.774  11.941   7.522  0.0258 -0.1648  0.0169
 1283ERGO    R416883   1.577  11.992   7.732 -0.0139  0.1603 -0.0939
 1283ERGO    R516884   1.723  12.134   7.654  0.1711 -0.0348 -0.1118
 1283ERGO    C116885   1.823  12.133   8.022  0.0113  0.0606 -0.0668
 1283ERGO    C216886   1.981  12.430   8.196 -0.0280  0.1725 -0.1834
 1284ERGO   ROH16887  12.259   0.963  10.155  0.0803  0.0921  0.0583
 1284ERGO    R116888  12.401   0.917   9.914 -0.0126  0.0907  0.0051
 1284ERGO    R216889  12.322   0.729   9.728 -0.0911  0.1044  0.0351
 1284ERGO    R316890  12.331   0.941   9.558 -0.1398  0.1032  0.0282
 1284ERGO    R416891  12.420   0.711   9.397 -0.1385  0.0948  0.0202
 1284ERGO    R516892  12.526   0.900   9.423 -0.1501  0.1129  0.0003
 1284ERGO    C116893  12.485   0.900   9.044 -0.2118  0.0882  0.0051
 1284ERGO    C216894  12.664   0.855   8.751  0.0576 -0.3347  0.2169
 1285ERGO   ROH16895  10.404  13.386  10.294  0.0886 -0.0556  0.0310
 1285ERGO    R116896  10.485  13.378  10.023  0.0678 -0.0226  0.0237
 1285ERGO    R216897  10.512  13.141   9.883  0.0615 -0.0069 -0.0068
 1285ERGO    R316898  10.343  13.264   9.708  0.0448  0.0114  0.0222
 1285ERGO    R416899  10.511  13.089   9.541  0.1734  0.1972 -0.0395
 1285ERGO    R516900  10.479  13.303   9.514  0.0724  0.1958  0.0793
 1285ERGO    C116901  10.353  13.174   9.178  0.2228  0.3332 -0.0314
 1285ERGO    C216902  10.475  12.952   8.918  0.2000 -0.2369 -0.1689
 1286W        W16903   2.502  11.576   3.742 -0.1812  0.2400 -0.1532
 1287W        W16904  14.466   8.836  12.545  0.0636  0.2111  0.2930
 1288W        W16905   9.003   8.833  15.084 -0.2397 -0.0705  0.1058
 1289W        W16906   3.197   7.199   0.389  0.0196 -0.1184  0.1171
 1290W        W16907   1.115   5.844   4.915  0.0337 -0.2410 -0.0102
 1291W        W16908  10.367   1.606  16.708 -0.3021 -0.1737 -0.0474
 1292W        W16909   9.802  15.010  14.331  0.0642  0.0094 -0.0984
 1293W        W16910  13.874  14.777   2.558 -0.0133  0.0724  0.0771
 1294W        W16911   9.532  10.962  13.949  0.3563  0.1383  0.0165
 1295W        W16912   0.900   0.472   4.081  0.1149 -0.1440  0.2265
 1296W        W16913  16.080   0.628  16.665 -0.0763 -0.1887  0.0832
 1297W        W16914   3.291   2.301   5.340 -0.4750 -0.2497 -0.1306
 1298W        W16915   4.148  14.770   4.027 -0.1887 -0.0853 -0.0060
 1299W        W16916   7.084   0.058  12.846 -0.1679 -0.1287 -0.2425
 1300W        W16917  12.719   6.454  12.062  0.5250  0.2515  0.0172
 1301W        W16918  16.103   7.900   1.184 -0.1133 -0.0129  0.0715
 1302W        W16919  10.450  15.464   0.387 -0.2331 -0.1428 -0.1171
 1303W        W16920  15.232   8.844   0.735  0.0102  0.1030 -0.0788
 1304W        W16921   3.051  12.240  14.012 -0.3085 -0.2952 -0.0526
 1305W        W16922   6.811  16.505  12.124  0.1928 -0.1840 -0.0624
 1306W        W16923   8.152   7.176   0.085 -0.2640  0.0176  0.0423
 1307W        W16924   7.364  16.062  16.993  0.2319 -0.1994  0.0750
 1308W        W16925  10.401  12.829  12.591  0.0486  0.0629  0.2070
 1309W        W16926   7.585   3.657  14.428  0.1397  0.0187  0.2830
 1310W        W16927   2.013   1.332  13.603  0.3408  0.0149  0.0397
 1311W        W16928   7.500  15.060  12.939 -0.2641 -0.3724 -0.3519
 1312W        W16929   2.437  15.543  15.666 -0.3025 -0.0570  0.3097
 1313W        W16930   0.100   9.442   5.477 -0.1353 -0.0898 -0.0155
 1314W        W16931   0.467   6.743   0.041  0.1918  0.1458  0.3529
 1315W        W16932   0.207  13.494  14.084 -0.1532  0.1627 -0.1242
 1316W        W16933   8.137   5.401   3.992  0.3854 -0.0652  0.2591
 1317W        W16934   8.024   5.706  15.978 -0.0065 -0.1821  0.0431
 1318W        W16935  13.434  17.274   1.622 -0.3868  0.0750  0.1652
 1319W        W16936   6.071   4.451   4.182  0.2265  0.1179  0.0803
 1320W        W16937  12.427  11.559   0.116 -0.3783  0.0179 -0.1404
 1321W        W16938  14.735   4.144   4.676  0.1235  0.2406 -0.0711
 1322W        W16939  14.708  10.089   3.123 -0.0174  0.1404 -0.2516
 1323W        W16940   6.165  17.534   4.557 -0.0612  0.0258 -0.0753
 1324W        W16941  10.367   2.048  14.483 -0.1624  0.2934  0.3424
 1325W        W16942  14.404   3.125   1.627  0.0013  0.1383 -0.1181
 1326W        W16943   7.083   8.019   1.555  0.1796  0.1174 -0.3061
 1327W        W16944   4.722  11.324   2.279  0.1807  0.2392  0.2679
 1328W        W16945  14.626  13.648   3.328 -0.0968 -0.0213  0.0100
 1329W        W16946   1.424   7.397  12.658  0.1561  0.2552  0.0300
 1330W        W16947   5.649  14.533   4.357  0.1501 -0.1700 -0.1296
 1331W        W16948  16.927   1.184   5.589  0.2286 -0.1087 -0.2726
 1332W        W16949   6.064  13.497   2.662 -0.1751 -0.0471  0.3826
 1333W        W16950   6.999   6.876   3.181  0.3292  0.2246  0.1688
 1334W        W16951   4.977   3.900   3.055 -0.2092  0.2490 -0.0866
 1335W        W16952   2.642   6.106  15.938  0.1711  0.1521  0.1072
 1336W        W16953   5.497  11.003   5.627  0.1047 -0.0778  0.1405
 1337W        W16954  15.739   8.513  16.953  0.2414  0.0591  0.1462
 1338W        W16955  16.515  10.889   3.832  0.4388  0.0052 -0.0801
 1339W        W16956   3.339  12.750  11.868 -0.1518 -0.1079 -0.3436
 1340W        W16957  17.368  10.688  12.706 -0.1716 -0.2972 -0.0552
 1341W        W16958  10.540  10.576  15.004  0.2286 -0.1255  0.1968
 1342W        W16959  11.057   4.281  13.191  0.1605  0.1678 -0.1976
 1343W        W16960  14.849   1.675   3.448 -0.0078  0.1039  0.1441
 1344W        W16961   0.022  17.108  11.698 -0.0218  0.0023  0.2002
 1345W        W16962   4.566   4.183  16.153  0.0271 -0.1530 -0.4440
 1346W        W16963  14.991  10.149  13.687 -0.5474 -0.0215  0.3183
 1347W        W16964  10.441  14.190  13.690 -0.1534 -0.2543  0.0447
 1348W        W16965   0.844  10.312  15.152 -0.1701 -0.1624  0.3142
 1349W        W16966  15.865  12.975  11.370  0.1071  0.0136  0.1447
 1350W        W16967   1.658   0.901   6.689  0.3253 -0.0084 -0.1020
 1351W        W16968  13.553  15.456  14.092  0.3711 -0.3123 -0.0498
 1352W        W16969   4.549   5.298   5.630  0.2590 -0.0297  0.3476
 1353W        W16970  12.137  12.730   5.152 -0.3257  0.0426 -0.1826
 1354W        W16971   0.475  15.051   3.449 -0.0685  0.0092 -0.3526
 1355W        W16972   1.799  11.253   3.111  0.1783  0.1211 -0.3176
 1356W        W16973  12.796   7.967  14.102  0.0771 -0.2820  0.3952
 1357W        W16974   1.286  10.907  17.148 -0.0226 -0.1455  0.3448
 1358W        W16975   7.416  12.183   6.070  0.1128  0.0817 -0.0144
 1359W        W16976  15.867  17.198  15.919 -0.2181 -0.3838  0.1015
 1360W        W16977   1.857  12.382   0.824 -0.0524 -0.0777  0.0068
 1361W        W16978  10.239  16.571   0.561 -0.1655 -0.1599 -0.0305
 1362W        W16979  13.547  15.501  16.161  0.1067  0.1930 -0.2955
 1363W        W16980  13.943  13.507  13.595  0.2650 -0.2314  0.1718
 1364W        W16981   3.962   8.644   0.590  0.2571 -0.1430 -0.0665
 1365W        W16982   5.681   1.208   5.294 -0.1043  0.1424  0.0767
 1366W        W16983  11.960   5.299   1.834 -0.0008  0.1384 -0.2218
 1367W        W16984   7.203   4.328  14.983  0.1745 -0.0169 -0.0734
 1368W        W16985  11.785   4.848   1.628 -0.2037 -0.0018 -0.1232
 1369W        W16986   2.163   6.128  13.077  0.0294 -0.2161 -0.2146
 1370W        W16987  16.065   3.272  12.001  0.2439  0.3108  0.1578
 1371W        W16988   7.070   0.394  15.143  0.1641 -0.0559  0.2008
 1372W        W16989  13.455   3.835   1.702 -0.3092  0.1349  0.1618
 1373W        W16990   1.937   3.843  13.831 -0.0517  0.0024  0.0353
 1374W        W16991   2.214   6.747   5.705 -0.1008 -0.0803 -0.0719
 1375W        W16992  13.796  17.036  16.753  0.0770  0.1914  0.1845
 1376W        W16993   8.697  14.641  12.767  0.2858 -0.1177  0.3650
 1377W        W16994   9.980   3.813   3.351 -0.5017 -0.2856 -0.1865
 1378W        W16995   7.108  15.635  15.164 -0.0369 -0.0860 -0.1988
 1379W        W16996   5.440   1.490  16.490  0.0545 -0.0353 -0.0830
 1380W        W16997   3.709  14.757   3.748 -0.0990  0.2383 -0.3001
 1381W        W16998  15.133   1.304  15.449  0.1243 -0.1060  0.3859
 1382W        W16999   7.683  17.589  12.027  0.0863  0.1444 -0.1080
 1383W        W17000  10.351  11.115  12.388  0.0578  0.2044  0.1065
 1384W        W17001   1.026  10.065   4.630 -0.1185 -0.1136 -0.1218
 1385W        W17002   5.483  11.620   4.314  0.3535 -0.0667 -0.2918
 1386W        W17003   4.072  15.782   1.630 -0.2039 -0.1030  0.2274
 1387W        W17004   7.327  14.470  12.698 -0.0675  0.2966  0.2249
 1388W        W17005  11.453   9.015   1.799  0.0045 -0.0272  0.2675
 1389W        W17006  10.876  17.539   5.593 -0.2044 -0.1548  0.0280
 1390W        W17007  14.667   0.091  15.504 -0.3333 -0.3121  0.3217
 1391W        W17008   7.850  15.699   4.174  0.1297 -0.1638  0.1979
 1392W        W17009   6.543   9.910   2.933 -0.0079 -0.0132  0.0886
 1393W        W17010   7.473   1.342  15.971  0.4105  0.1236  0.1524
 1394W        W17011  16.270   7.474   3.474  0.0542 -0.1709  0.1043
 1395W        W17012   2.642   8.887   0.316 -0.2202 -0.0390  0.0905
 1396W        W17013   7.410  17.475  10.790  0.1167 -0.0479 -0.2739
 1397W        W17014  15.579  14.256  16.667 -0.2726 -0.0799  0.0419
 1398W        W17015   7.082   7.286  15.597 -0.3535 -0.0639  0.3571
 1399W        W17016   2.177  13.393  12.532  0.0106 -0.1755  0.3962
 1400W        W17017   3.508   1.500  15.256 -0.0309 -0.2395 -0.0354
 1401W        W17018  13.958   5.337   4.482 -0.1887  0.0019  0.2128
 1402W        W17019   9.245  10.703   5.418 -0.1393 -0.1037 -0.0639
 1403W        W17020   2.753  13.382   4.032  0.2071 -0.0039 -0.1798
 1404W        W17021   5.068  12.498   5.083  0.1836 -0.0186  0.0203
 1405W        W17022  15.624   3.611   1.792 -0.1212 -0.2359  0.1404
 1406W        W17023  14.585  13.624  12.487 -0.1337 -0.1645 -0.0576
 1407W        W17024   2.831   1.014   5.055 -0.2407  0.2993 -0.0565
 1408W        W17025   8.512  10.097   0.531  0.3913  0.0122 -0.2019
 1409W        W17026  11.694   9.786  15.254 -0.0766 -0.1599 -0.0903
 1410W        W17027   7.628   0.737  15.424 -0.0062  0.0808  0.0315
 1411W        W17028  11.569   0.386  11.584 -0.0283 -0.0686  0.3785
 1412W        W17029  11.024   2.533   1.304  0.1322  0.0650  0.1670
 1413W        W17030   2.085   3.716   2.315  0.0613  0.1153 -0.2296
 1414W        W17031   4.445   5.903  12.319 -0.1292  0.1937  0.2828
 1415W        W17032  10.483  17.321   5.255  0.1531 -0.1057 -0.0863
 1416W        W17033  10.904   8.582  16.266  0.0610  0.6105  0.0591
 1417W        W17034   5.461   8.930   1.428 -0.1878 -0.0124  0.0849
 1418W        W17035  10.739   5.149   0.041  0.0130 -0.1390 -0.1217
 1419W        W17036   6.225   4.169   4.885  0.1703  0.3642 -0.0896
 1420W        W17037   0.192   6.125   0.976 -0.0524 -0.2231 -0.0785
 1421W        W17038  14.200  11.753   0.197  0.0536  0.0031 -0.1127
 1422W        W17039   1.391  15.267  12.597 -0.1717 -0.2357  0.0352
 1423W        W17040  14.092   2.367  14.701  0.0509 -0.0766 -0.4995
 1424W        W17041   4.640   9.509   1.590 -0.2583  0.1870 -0.1587
 1425W        W17042  15.551  10.394   6.392  0.1151  0.1118 -0.0004
 1426W        W17043   5.513  11.477   1.406  0.3530 -0.0012 -0.0540
 1427W        W17044   5.304   2.859  15.155 -0.0718  0.1465  0.0101
 1428W        W17045   0.732   2.642   2.701  0.2236  0.4009 -0.0070
 1429W        W17046  12.399  15.640   5.391  0.2100  0.1897  0.1204
 1430W        W17047  14.747  12.151   1.013 -0.1109  0.1550  0.2135
 1431W        W17048  17.324  12.625  15.092  0.1669 -0.0150  0.1343
 1432W        W17049  10.497   6.311   1.563 -0.0259 -0.1812 -0.1946
 1433W        W17050   6.744   9.708   5.921  0.1291  0.0354 -0.0378
 1434W        W17051   1.389  14.797   5.397  0.1812 -0.1750  0.0023
 1435W        W17052   4.181   2.547   1.469  0.1240  0.0715  0.1085
 1436W        W17053   6.384  17.184   0.116  0.1290  0.1898 -0.3779
 1437W        W17054   0.257  11.340   1.850  0.1213  0.1069 -0.1567
 1438W        W17055  12.871   1.739  11.698  0.0163  0.1472  0.0326
 1439W        W17056  11.501   1.382  13.410 -0.1754  0.2904  0.3144
 1440W        W17057   7.672   9.231   3.406  0.2275  0.3623 -0.1530
 1441W        W17058  17.599  14.418   2.465 -0.1837 -0.0446  0.0521
 1442W        W17059  16.935   9.797   3.949  0.0460  0.0079  0.0442
 1443W        W17060   0.951  12.044   0.446 -0.1591 -0.0649  0.2508
 1444W        W17061   3.673   9.312   1.996 -0.0520 -0.0217 -0.1816
 1445W        W17062   6.168  15.953   2.634 -0.2224  0.1996 -0.1635
 1446W        W17063  10.475   2.962  14.868 -0.2698 -0.1391  0.0014
 1447W        W17064  14.250   2.555   5.443  0.2417 -0.3067  0.0384
 1448W        W17065   7.114   5.085   3.247 -0.4849 -0.0952 -0.0300
 1449W        W17066   6.361   3.792   0.934  0.1810 -0.0370 -0.0610
 1450W        W17067  15.853   0.398  17.054  0.2057  0.2644 -0.1109
 1451W        W17068  17.294   8.947  12.165  0.2701  0.2628  0.1275
 1452W        W17069  10.705  11.261   6.258 -0.0295 -0.0461  0.0651
 1453W        W17070   4.992   2.598   1.869  0.0669  0.2577  0.0495
 1454W        W17071   1.873   5.388  16.969 -0.0546 -0.1172  0.1732
 1455W        W17072  12.074   0.200  16.635  0.1939 -0.1501  0.0187
 1456W        W17073  16.373   2.896  14.075 -0.0594  0.1525 -0.1882
 1457W        W17074   9.977   3.563  13.391 -0.1331  0.0425  0.0190
 1458W        W17075   0.088  14.320   5.331  0.1571 -0.0776  0.1420
 1459W        W17076  10.555  13.647   1.024  0.0122  0.0077  0.0321
 1460W        W17077  10.380   6.473  15.138  0.4305  0.0411 -0.2275
 1461W        W17078  16.264  15.892   4.302  0.1262 -0.0299 -0.3484
 1462W        W17079   2.211  10.767  14.848 -0.0033 -0.0290  0.1114
 1463W        W17080   4.067   1.787   3.469 -0.1748  0.1053 -0.2797
 1464W        W17081  16.683  10.082  15.547  0.2791 -0.1169  0.0924
 1465W        W17082   5.520   9.137   5.594 -0.3504  0.0431  0.1432
 1466W        W17083  16.904   7.425  12.425 -0.1654  0.2446 -0.1045
 1467W        W17084  13.326  14.065  12.390  0.1589  0.0374  0.1070
 1468W        W17085   5.153  14.342   3.422 -0.1443  0.1766  0.0423
 1469W        W17086   8.977   4.890  14.875  0.0132 -0.2100 -0.0893
 1470W        W17087   2.293  17.078  12.900 -0.0545 -0.0384 -0.1868
 1471W        W17088  10.118   5.104   4.519 -0.0470 -0.0131 -0.0132
 1472W        W17089  14.905  10.888   4.020  0.0246 -0.1081  0.0864
 1473W        W17090   5.466   3.571  13.271 -0.2357 -0.4019  0.0846
 1474W        W17091   5.926  12.716  13.620  0.0232 -0.1156  0.0476
 1475W        W17092   0.408  16.011  15.262 -0.1866  0.2487 -0.1613
 1476W        W17093  17.151  14.278   5.305 -0.0751  0.0198 -0.1539
 1477W        W17094  10.673  16.593  12.183  0.1332  0.0263 -0.0079
 1478W        W17095   1.387   1.695  14.575  0.2198  0.0616 -0.2409
 1479W        W17096  16.093   1.208   6.261 -0.1268  0.1038  0.1160
 1480W        W17097   8.840   0.286   1.664 -0.1487  0.1928 -0.2264
 1481W        W17098  16.221   7.910  11.120  0.1767  0.0344 -0.1502
 1482W        W17099   7.078   8.066   3.567  0.1939 -0.1606 -0.4204
 1483W        W17100  14.080  10.660   3.115  0.2309 -0.2354  0.1014
 1484W        W17101   6.668   0.275   4.424  0.0540 -0.1487  0.0898
 1485W        W17102  11.324   5.582   6.174 -0.1365  0.1201  0.0807
 1486W        W17103  11.876  11.557   1.700  0.0330 -0.3685 -0.2433
 1487W        W17104  17.143   7.846   4.541  0.1875  0.2186 -0.1780
 1488W        W17105  10.130   4.180   4.322  0.1040 -0.0514  0.2995
 1489W        W17106  13.800   5.633  16.440 -0.1006  0.0334  0.0158
 1490W        W17107  15.278   4.119   2.177 -0.0834  0.0522  0.4251
 1491W        W17108  17.029  15.906   2.184  0.0310  0.3364  0.1150
 1492W        W17109  10.693   8.034  12.430 -0.1401  0.0587 -0.3517
 1493W        W17110  13.754   1.191   4.290  0.3442 -0.1421 -0.3230
 1494W        W17111  17.489  10.163   4.907  0.0531  0.0344 -0.0231
 1495W        W17112   4.189   2.978   6.064  0.0277 -0.0771 -0.2426
 1496W        W17113   3.948  15.638   1.115  0.1199 -0.0896 -0.2264
 1497W        W17114  14.542   4.562  13.293  0.0423 -0.2135  0.0896
 1498W        W17115   1.502   0.368   5.831  0.0076 -0.1684 -0.0916
 1499W        W17116   8.945  11.740   0.136  0.0457  0.0659 -0.0272
 1500W        W17117   9.225  15.076  15.818 -0.1170 -0.1572 -0.1251
 1501W        W17118   7.615  16.421  10.209  0.1420 -0.0910 -0.0931
 1502W        W17119  15.638   4.456   4.651 -0.2153 -0.2169 -0.1918
 1503W        W17120   8.650   7.217   4.719 -0.1288  0.1028 -0.0465
 1504W        W17121   3.825   0.277  15.157  0.3498  0.0568  0.1505
 1505W        W17122  11.922   4.080  13.085  0.2502 -0.3096 -0.2070
 1506W        W17123  10.421   0.441   3.647 -0.3363 -0.3268  0.0595
 1507W        W17124  13.562   3.544   3.069  0.1439 -0.1684 -0.0936
 1508W        W17125  13.205   0.731  15.552  0.1928 -0.0379  0.0071
 1509W        W17126   6.614  13.065  14.205  0.1295  0.0747 -0.0703
 1510W        W17127  10.262  14.947  12.545 -0.2297  0.2297  0.0840
 1511W        W17128  14.148  16.767  16.559 -0.1940 -0.1127 -0.3917
 1512W        W17129  15.993  12.262   4.199 -0.0312  0.1613  0.0592
 1513W        W17130   6.017  15.849   0.337 -0.4645  0.1133  0.1728
 1514W        W17131   3.999   3.375  14.525 -0.0150  0.0641 -0.1355
 1515W        W17132  16.601  13.111   2.467  0.1425  0.0805  0.0057
 1516W        W17133   3.134   1.792  15.036  0.0225  0.1893 -0.0997
 1517W        W17134   4.108  14.316  11.830  0.0270  0.0959 -0.0900
 1518W        W17135  11.366   5.748  15.611  0.1942 -0.1064 -0.0356
 1519W        W17136  14.066  15.335   2.162 -0.0982 -0.0035 -0.1119
 1520W        W17137  14.412   2.382  12.049  0.1625  0.3135 -0.3817
 1521W        W17138  10.171   6.901   2.265  0.0326  0.0082 -0.2098
 1522W        W17139  12.459  14.999   2.819  0.0569  0.0729  0.1276
 1523W        W17140   1.527   5.622  16.700 -0.0041  0.3949  0.0659
 1524W        W17141   9.380   9.654  15.205  0.1983 -0.1812 -0.1899
 1525W        W17142   7.448  12.347   2.561  0.0928 -0.0730 -0.0984
 1526W        W17143   0.969   3.001   3.002  0.1037 -0.0080 -0.0380
 1527W        W17144  13.322   2.075  12.457  0.3425 -0.0832  0.2492
 1528W        W17145   5.239  10.094  15.476 -0.2059 -0.0600  0.1537
 1529W        W17146  17.209  10.259  14.003  0.3784  0.1438 -0.1779
 1530W        W17147  16.935   6.586   5.482 -0.0968 -0.2336 -0.0442
 1531W        W17148   2.434  17.127  13.989 -0.3427  0.1184 -0.2782
 1532W        W17149   6.612  17.111  16.937 -0.0842  0.0339 -0.1948
 1533W        W17150  12.583  16.409  11.480  0.1052 -0.2936  0.1746
 1534W        W17151  16.601   2.382  13.383  0.1008  0.3195  0.5097
 1535W        W17152   0.580  14.207   1.098  0.2099  0.2269 -0.0891
 1536W        W17153   6.485   5.410   4.173  0.1714  0.1574  0.2197
 1537W        W17154   0.671   5.280  13.130  0.0583  0.0624  0.3632
 1538W        W17155   3.801  10.358   3.614 -0.0304 -0.1995 -0.0824
 1539W        W17156   9.393   5.079   5.728 -0.2196  0.1136 -0.1238
 1540W        W17157   9.903  10.947   1.166  0.2627 -0.1785 -0.3954
 1541W        W17158  12.762  17.382   4.091 -0.3283 -0.0325 -0.1756
 1542W        W17159   9.705  11.868   2.064  0.0339 -0.0212  0.4119
 1543W        W17160   7.825   0.807   1.211  0.0638  0.1150 -0.1808
 1544W        W17161   3.316  15.998   4.948 -0.0755  0.0806 -0.4232
 1545W        W17162  12.461   9.341  12.393 -0.1845  0.3941  0.4035
 1546W        W17163   8.893  10.975   5.078 -0.1604  0.0023 -0.1303
 1547W        W17164  15.729  17.516  13.517  0.2415  0.1217 -0.1721
 1548W        W17165  15.800   0.786  12.798  0.1967 -0.1399  0.1262
 1549W        W17166   1.629   2.688  14.837 -0.4145 -0.3264  0.0994
 1550W        W17167   6.380  12.631   4.686 -0.0412 -0.2471  0.0115
 1551W        W17168  17.311  12.103   5.503 -0.1031  0.0239  0.1670
 1552W        W17169  15.193  15.914   2.408  0.0844 -0.2398 -0.1669
 1553W        W17170   6.782  10.382   2.791  0.0981  0.1609  0.0960
 1554W        W17171   1.108   8.003  13.928  0.2540  0.5404  0.1344
 1555W        W17172   4.849  10.542   0.896 -0.3133  0.0911 -0.2512
 1556W        W17173   2.963   0.764   1.647 -0.1754 -0.0568  0.1195
 1557W        W17174   0.031  14.513  16.156  0.2427  0.1150 -0.5128
 1558W        W17175   2.342  12.767  14.279 -0.2325 -0.3390 -0.0389
 1559W        W17176  13.477  17.313  13.172  0.0508 -0.0185 -0.1311
 1560W        W17177   2.084   1.803   5.711 -0.0534  0.2145 -0.1098
 1561W        W17178   1.084   9.449  15.916  0.1909 -0.1809  0.1415
 1562W        W17179  13.351  17.241  16.556  0.0686  0.5125 -0.3156
 1563W        W17180   3.892  14.801   2.214 -0.1187  0.0945  0.0997
 1564W        W17181  12.819  14.782  16.069  0.0018 -0.1126 -0.3928
 1565W        W17182   8.983   0.290  15.628  0.0245  0.0116  0.0873
 1566W        W17183   3.761   3.606   4.962 -0.0573 -0.1485 -0.0694
 1567W        W17184   5.704   3.285   4.763 -0.3835  0.0633 -0.0770
 1568W        W17185   3.971   4.418   0.841  0.0126 -0.1183  0.2978
 1569W        W17186   2.398  15.368  12.965 -0.1482 -0.4275 -0.1786
 1570W        W17187   5.325   6.869   3.820  0.0761 -0.0734  0.0252
 1571W        W17188  17.284  11.237   5.459  0.0266  0.1396 -0.1366
 1572W        W17189  17.017  15.370   0.962 -0.1106  0.2353  0.2624
 1573W        W17190  14.706  13.607  13.452  0.0926  0.3716  0.0037
 1574W        W17191   1.092   3.470   2.638 -0.1819  0.1127 -0.1481
 1575W        W17192   7.866   1.822   0.890  0.0380  0.2176 -0.0292
 1576W        W17193  13.963  11.854   4.655 -0.0569 -0.0189  0.0964
 1577W        W17194   7.499   7.329  14.101  0.2355 -0.3485  0.0567
 1578W        W17195  12.887  14.712  14.521  0.0424  0.0568  0.0894
 1579W        W17196  16.747   7.946  14.384 -0.3470 -0.2081 -0.0786
 1580W        W17197   0.318   8.423   0.914 -0.1785 -0.1146  0.0967
 1581W        W17198  12.432  14.331  13.405  0.0315  0.3166 -0.0550
 1582W        W17199  12.252   5.530   3.680  0.0074  0.0277  0.0252
 1583W        W17200   7.913  17.352  13.349 -0.0518 -0.0114  0.2756
 1584W        W17201   0.899   9.037   0.471  0.1468 -0.1736 -0.0481
 1585W        W17202  14.414  13.120  11.868 -0.3574  0.2168 -0.0067
 1586W        W17203   6.159  14.314   3.625  0.1206 -0.1837 -0.0231
 1587W        W17204   6.707  15.882  10.452 -0.4157  0.1267 -0.3572
 1588W        W17205   7.405  16.202   3.601 -0.0122 -0.1693 -0.0018
 1589W        W17206   9.600   2.439  12.781  0.0557  0.2343  0.1742
 1590W        W17207   3.696  12.204  12.520  0.0985 -0.1486  0.0599
 1591W        W17208  17.109   3.343   2.515 -0.2842  0.0160  0.2298
 1592W        W17209  16.212   3.715  12.302 -0.0781 -0.2080 -0.0461
 1593W        W17210   0.315  14.040  14.671 -0.2878  0.3801 -0.0829
 1594W        W17211   2.572  11.413  15.173  0.0219  0.2909 -0.3863
 1595W        W17212  14.184  16.363   2.258  0.0812  0.0782  0.2835
 1596W        W17213  10.397   9.590  13.162 -0.1550 -0.1902  0.1038
 1597W        W17214   6.105   5.950  16.638  0.2323  0.1191 -0.0196
 1598W        W17215   2.523  11.858  15.440  0.1082  0.1405  0.0234
 1599W        W17216  17.479  12.158   1.154  0.0623 -0.1656  0.1174
 1600W        W17217  14.973  14.597  17.268 -0.0208 -0.3041  0.0211
 1601W        W17218   8.743  17.508  17.165  0.1276 -0.1885  0.0286
 1602W        W17219  10.127  11.574   2.403 -0.0320  0.0329  0.0166
 1603W        W17220   8.800  16.833  13.090  0.0075 -0.0308 -0.1486
 1604W        W17221   1.054  17.512  12.567  0.2689  0.0110 -0.1846
 1605W        W17222   9.530   3.581   6.027  0.1325  0.0016  0.0963
 1606W        W17223   3.036  15.536  16.879  0.0625 -0.1270  0.2984
 1607W        W17224   3.779   4.644  13.510  0.1157 -0.1750  0.2456
 1608W        W17225   2.508   2.700  12.714  0.2479 -0.1314  0.1262
 1609W        W17226   5.890   3.784  14.538 -0.1117  0.0621  0.0175
 1610W        W17227  16.112  11.811  16.929 -0.1829 -0.1536  0.1728
 1611W        W17228   3.321   8.791  15.236 -0.2023  0.0943 -0.3762
 1612W        W17229   7.900  13.951   3.100 -0.2579  0.2319 -0.1676
 1613W        W17230  10.974   0.515  13.608 -0.1181 -0.1216 -0.0477
 1614W        W17231   1.599   4.598   2.304 -0.1786  0.0598  0.0954
 1615W        W17232  14.296  15.131   3.485 -0.0245  0.0481  0.1427
 1616W        W17233   0.151   4.916  14.853  0.0807 -0.0903 -0.0335
 1617W        W17234   8.869  14.670   1.841 -0.0147  0.1135 -0.1411
 1618W        W17235  11.620   5.556   3.623 -0.0822  0.3700  0.0893
 1619W        W17236  12.761  13.122  14.404 -0.0228 -0.1351 -0.0935
 1620W        W17237   8.728   7.700  11.013 -0.0601  0.1308  0.1610
 1621W        W17238  16.091   3.571  13.667  0.1206  0.1071 -0.4206
 1622W        W17239  17.025  11.093  13.699 -0.1293  0.0005 -0.1292
 1623W        W17240  17.280   8.869   0.593 -0.1348  0.1047  0.0282
 1624W        W17241  14.394   3.249   3.327 -0.4317  0.2654 -0.0654
 1625W        W17242   7.934  12.577   1.732 -0.0808 -0.0382 -0.1023
 1626W        W17243   6.370  10.268  14.740 -0.1056 -0.2962 -0.0856
 1627W        W17244  14.176  14.895  13.888  0.1331 -0.0792  0.2322
 1628W        W17245  13.356   5.045  16.501  0.1574 -0.3089 -0.0953
 1629W        W17246  15.467  14.887   0.062 -0.4254  0.0899  0.1298
 1630W        W17247  16.149  10.919   5.867  0.1458 -0.6270 -0.3592
 1631W        W17248  13.757   3.592  16.755 -0.0341 -0.3233  0.1386
 1632W        W17249   2.097  10.635   2.190 -0.3141  0.0397  0.1784
 1633W        W17250   8.649   2.968  17.024 -0.0675  0.1147 -0.0788
 1634W        W17251  12.500  13.093   0.518  0.1648 -0.0132 -0.1009
 1635W        W17252   7.476   3.362   2.979 -0.2467  0.2614  0.0423
 1636W        W17253   2.994   3.129   5.864  0.0671  0.2195  0.2057
 1637W        W17254   0.531   9.055  13.353  0.0740 -0.1474 -0.1954
 1638W        W17255  17.571  16.970  15.630 -0.0707 -0.0518 -0.0932
 1639W        W17256   0.096   5.682  13.627 -0.2850 -0.2267 -0.1708
 1640W        W17257   5.669   8.726   0.995  0.1948  0.1320  0.0909
 1641W        W17258  15.328  14.874  14.598 -0.3325  0.0765 -0.0528
 1642W        W17259   3.810   0.487  12.247 -0.0877  0.0029 -0.2380
 1643W        W17260   8.893   7.251   6.027  0.0941 -0.0768  0.1688
 1644W        W17261  15.958  10.103   2.504  0.0088 -0.0495  0.0238
 1645W        W17262  16.474   0.093  15.915  0.3506 -0.0615 -0.0655
 1646W        W17263   8.591  13.568   0.182  0.0125  0.0632 -0.1201
 1647W        W17264   8.645  12.240  16.093 -0.5371  0.0242 -0.0682
 1648W        W17265  12.210  12.030  12.329  0.0248  0.1271 -0.0241
 1649W        W17266   3.081   5.797  14.242  0.0668 -0.1228  0.0864
 1650W        W17267  15.074   5.201   2.258 -0.1721  0.2681  0.2536
 1651W        W17268   9.468   7.334  14.235 -0.1259 -0.0521  0.0564
 1652W        W17269  12.425  16.246   1.906  0.1027  0.2965 -0.2841
 1653W        W17270   3.820  14.845  11.971 -0.0331  0.1272 -0.0157
 1654W        W17271   5.330   8.571   1.752  0.0206  0.3334  0.2647
 1655W        W17272   4.801   1.726  17.253  0.2516 -0.0625  0.1292
 1656W        W17273  13.883  17.420   2.484  0.3116 -0.2046  0.0632
 1657W        W17274  10.498   0.415  11.796  0.3215  0.2342 -0.1103
 1658W        W17275   5.765   0.728  14.466 -0.2556 -0.1517 -0.2631
 1659W        W17276   5.386  11.781   0.265 -0.3782 -0.0265  0.0405
 1660W        W17277   1.813   7.524  13.062 -0.1374 -0.0141 -0.3273
 1661W        W17278  12.479   5.810  16.531  0.1155 -0.0678 -0.0120
 1662W        W17279  11.863   3.676   5.490 -0.2322  0.1503  0.1305
 1663W        W17280   6.703   8.285   1.323  0.3510  0.1895  0.1428
 1664W        W17281  15.815  12.433  14.066  0.0775  0.2693  0.2174
 1665W        W17282   0.814   1.171  12.264  0.0665 -0.1653  0.1062
 1666W        W17283   0.179   0.895   0.812 -0.1899 -0.1830 -0.0210
 1667W        W17284   4.052   7.788  15.119 -0.3063 -0.3479 -0.1652
 1668W        W17285   0.315   5.719   4.517  0.1067 -0.0012 -0.4309
 1669W        W17286  11.093   7.512   5.741  0.1849 -0.2106 -0.0587
 1670W        W17287  10.133   7.846  13.704 -0.2249  0.5028  0.0931
 1671W        W17288  17.390   9.273  13.760 -0.1992 -0.0194  0.0361
 1672W        W17289  17.321  15.676  17.206  0.1369 -0.0353  0.2447
 1673W        W17290   7.882  11.831   0.324  0.1430  0.2291  0.1757
 1674W        W17291   6.731  17.175  15.242 -0.0229 -0.0787 -0.0144
 1675W        W17292   0.591   0.690   3.267  0.0333 -0.1610 -0.0026
 1676W        W17293  15.889  15.568   4.099  0.1407 -0.1915  0.0170
 1677W        W17294  14.336   1.665  16.317  0.1004  0.2348  0.0486
 1678W        W17295   6.441  13.295   4.017  0.3301 -0.2826 -0.1142
 1679W        W17296   4.863  15.737   4.261 -0.1564 -0.3184  0.1957
 1680W        W17297   5.970   3.644  16.605 -0.2123 -0.1667  0.0853
 1681W        W17298  15.377   6.097  16.095  0.0112  0.0937 -0.1381
 1682W        W17299  11.223  16.103  11.164 -0.1770 -0.0685  0.1526
 1683W        W17300  10.437   5.178   2.180  0.0609 -0.1895 -0.3677
 1684W        W17301   1.100  14.403   0.467 -0.0502 -0.0946 -0.1215
 1685W        W17302   4.798  11.543  12.207 -0.2279 -0.2405 -0.0748
 1686W        W17303   1.128   0.512   2.208 -0.2832  0.0520 -0.0243
 1687W        W17304   4.961   6.852   0.075 -0.0699 -0.0527  0.0330
 1688W        W17305  14.382   9.820   1.167 -0.0000  0.1496 -0.0894
 1689W        W17306   9.374   0.567  11.816 -0.0963  0.0704 -0.0372
 1690W        W17307   1.140   3.565   4.831  0.0707 -0.0250 -0.0010
 1691W        W17308   5.216  13.540   5.067  0.0874 -0.1624 -0.2546
 1692W        W17309  17.489   6.503  13.104 -0.0515  0.1272 -0.1726
 1693W        W17310  11.604   6.770   5.602  0.0639  0.1868  0.1146
 1694W        W17311   4.606  15.945   1.599 -0.1008 -0.1635  0.0072
 1695W        W17312   5.204  13.660   3.266 -0.0110  0.0006  0.0115
 1696W        W17313  12.315   2.641   0.531 -0.1519 -0.0696 -0.1582
 1697W        W17314   0.185   9.809   0.593 -0.0121  0.1153  0.0026
 1698W        W17315   2.111   6.468   2.157  0.2138 -0.1548  0.0464
 1699W        W17316  16.902  16.227  15.956 -0.0647  0.0618  0.1837
 1700W        W17317   0.350   7.408   5.754 -0.3373  0.0002  0.0116
 1701W        W17318   3.999  17.186   0.963  0.0721  0.1199  0.1517
 1702W        W17319   0.131   6.988   5.801 -0.1301  0.1734  0.0753
 1703W        W17320  15.437   3.274   5.626  0.2786 -0.2692  0.2301
 1704W        W17321   5.456  16.140   0.138  0.1452  0.0665  0.3677
 1705W        W17322   8.868   4.453  12.336 -0.0310  0.0782 -0.1198
 1706W        W17323   4.213  15.876  13.882  0.0321 -0.1482  0.0572
 1707W        W17324   6.510   4.644   0.080  0.0883 -0.1258 -0.0875
 1708W        W17325  17.132  17.155   2.328  0.1540 -0.1212  0.2366
 1709W        W17326   6.337   3.055  16.429  0.1159 -0.1307  0.0339
 1710W        W17327   3.589  14.471  14.915  0.1940 -0.0091 -0.0451
 1711W        W17328  13.550  14.779   2.886  0.1215 -0.1242 -0.1405
 1712W        W17329   7.145  14.493   0.884 -0.0678  0.0428  0.1080
 1713W        W17330   2.406   9.629   4.228  0.3118  0.1735 -0.0551
 1714W        W17331   8.307   9.898   3.015  0.0400  0.1937 -0.2249
 1715W        W17332   9.144  16.606  14.391 -0.2454  0.0833  0.0050
 1716W        W17333   4.585  11.521  11.606  0.0409 -0.0607 -0.3511
 1717W        W17334  14.150  16.682   1.879  0.1096 -0.0771  0.3339
 1718W        W17335  16.661   1.115   1.388  0.2105 -0.2388 -0.1396
 1719W        W17336   9.334  15.816  14.117 -0.0595  0.1164  0.1009
 1720W        W17337  14.973   7.548  12.647 -0.0905 -0.1826 -0.1674
 1721W        W17338   2.825   0.882   2.555 -0.0205  0.1243 -0.0144
 1722W        W17339   3.689   5.747   4.657  0.2626  0.1944  0.0006
 1723W        W17340   7.341  14.449   1.361 -0.0883 -0.0816 -0.0684
 1724W        W17341   9.409   9.531   0.109  0.0100 -0.1090 -0.0606
 1725W        W17342   4.440  13.457   0.603 -0.1389  0.2221 -0.0792
 1726W        W17343   5.366   5.533   4.654 -0.0623 -0.2233  0.0957
 1727W        W17344   0.184  15.197  12.182 -0.3226 -0.0174  0.1835
 1728W        W17345  13.944  10.536  14.561 -0.1097  0.1556  0.2979
 1729W        W17346  17.416   3.847   0.905  0.2667  0.4339  0.1639
 1730W        W17347  10.768   4.060   5.616 -0.2689 -0.0032  0.2480
 1731W        W17348   8.416  15.366   3.197 -0.1924 -0.1656 -0.0176
 1732W        W17349   5.712  10.841  14.524 -0.1402  0.1238 -0.1908
 1733W        W17350   7.253  12.312  11.880 -0.1238 -0.0368 -0.0105
 1734W        W17351   9.408   1.759  12.126 -0.1834 -0.0739  0.0910
 1735W        W17352   3.156   4.872   2.876 -0.0722 -0.0254 -0.0275
 1736W        W17353   7.359   3.258   4.620 -0.1062  0.1733 -0.2284
 1737W        W17354  15.061   6.017   4.368  0.0391 -0.2067 -0.0056
 1738W        W17355   3.000  10.514  17.226  0.2265  0.3006 -0.0229
 1739W        W17356  17.559  13.794  11.909 -0.2513 -0.2576  0.3115
 1740W        W17357  15.230   1.833  14.480 -0.0119  0.0279  0.2367
 1741W        W17358   0.919   5.648  13.331 -0.2389 -0.3141  0.0062
 1742W        W17359   6.438  14.620   3.864  0.3509  0.0199  0.1369
 1743W        W17360   5.222   9.483   0.060 -0.0669 -0.0339 -0.2024
 1744W        W17361   0.394  15.937   3.711 -0.2413 -0.0266 -0.0259
 1745W        W17362   9.141  12.392  16.204  0.0579 -0.0876  0.2115
 1746W        W17363   9.134  17.014  13.437  0.1202 -0.3502 -0.3234
 1747W        W17364   1.347   9.077  15.454 -0.1291  0.0743 -0.0696
 1748W        W17365   3.071   7.726  13.789 -0.3898  0.2361 -0.2611
 1749W        W17366  16.701   3.411   2.736  0.2401  0.4198 -0.2541
 1750W        W17367  17.176   9.370  16.768  0.0512  0.1703 -0.1666
 1751W        W17368   8.373  17.124  16.633  0.1458  0.0021 -0.0069
 1752W        W17369  14.332  14.784  16.118 -0.3583  0.0347 -0.2493
 1753W        W17370   1.285   8.082  14.446 -0.0377 -0.0396 -0.1302
 1754W        W17371   3.309  14.283   5.396  0.1490  0.0156  0.1271
 1755W        W17372  16.141   5.460  14.074 -0.2647  0.2235 -0.0150
 1756W        W17373  12.975   3.142  15.380 -0.1625  0.1536 -0.3878
 1757W        W17374  15.626   5.650   1.810 -0.0925  0.0557 -0.2606
 1758W        W17375  11.492  11.161   2.783  0.1148  0.1045 -0.1203
 1759W        W17376   6.434   9.686   3.834  0.1803 -0.1277 -0.1505
 1760W        W17377  16.314  10.705  14.334 -0.1442  0.1857 -0.0291
 1761W        W17378  16.067   5.192  17.130 -0.0749  0.2742 -0.1344
 1762W        W17379  13.035  11.451   1.047 -0.0697 -0.0555 -0.0119
 1763W        W17380  10.048   9.273   3.645  0.1541  0.2075  0.0514
 1764W        W17381   7.599   5.338   1.559 -0.0422  0.2756 -0.1694
 1765W        W17382  11.933   2.765  13.781  0.1936  0.0462  0.5062
 1766W        W17383  11.345   6.137  16.241 -0.0583 -0.0326 -0.0810
 1767W        W17384   4.149   3.838   2.616 -0.2100 -0.0211  0.1430
 1768W        W17385  15.891  11.554  12.194  0.0909  0.5630 -0.0400
 1769W        W17386   6.655  16.007  12.404 -0.1127  0.0916 -0.2069
 1770W        W17387   8.478   7.941   1.608  0.0948  0.2854  0.0962
 1771W        W17388   8.335  12.708   5.119  0.2678 -0.1550  0.0096
 1772W        W17389  17.188   2.329   0.593  0.1847 -0.1133  0.2039
 1773W        W17390   5.222   4.483   4.642 -0.1855  0.1853  0.0616
 1774W        W17391   4.963   2.288  14.751  0.0375 -0.0048  0.1358
 1775W        W17392   9.367   6.569  15.722  0.2197 -0.2762 -0.0856
 1776W        W17393  16.026  13.221  11.757  0.0080  0.2210 -0.1620
 1777W        W17394   9.721   6.484   5.078  0.1749  0.1014  0.0361
 1778W        W17395  12.592   2.902  14.609 -0.1184 -0.2018  0.0487
 1779W        W17396  11.041   6.425   5.665 -0.1438 -0.1385  0.1062
 1780W        W17397  12.892   6.462  13.483  0.0268 -0.2317  0.0669
 1781W        W17398  16.210   8.111  12.721 -0.0643  0.1796 -0.2002
 1782W        W17399   9.456  13.603   5.112  0.0553  0.0621 -0.1158
 1783W        W17400   6.950   6.414  14.907 -0.1766 -0.2810 -0.1392
 1784W        W17401  12.254  11.095   4.084 -0.1064  0.1904  0.1877
 1785W        W17402   9.928   9.817  13.371  0.2098  0.1211  0.1577
 1786W        W17403   6.377   7.957   5.531 -0.3357  0.0574 -0.0668
 1787W        W17404   6.617   3.680  12.604  0.0692 -0.1417  0.0074
 1788W        W17405  13.990   2.080   2.482 -0.0921 -0.0017 -0.0932
 1789W        W17406   2.513   0.964   3.569 -0.0648  0.0456  0.2083
 1790W        W17407   5.054  12.411   5.730  0.1860  0.0768  0.1831
 1791W        W17408  14.168  15.625   1.732 -0.0411  0.1037 -0.0533
 1792W        W17409  13.573  16.625   5.310 -0.0911 -0.3294  0.2367
 1793W        W17410   1.766   8.913  13.307  0.2895 -0.0422 -0.1081
 1794W        W17411  14.582   9.035  16.746  0.0804  0.0574  0.1713
 1795W        W17412  13.625  10.020  15.275 -0.3198 -0.0698  0.0410
 1796W        W17413   8.786  12.367  11.282  0.3292 -0.0133  0.0108
 1797W        W17414  15.761   8.293   1.987  0.1029 -0.0353  0.4166
 1798W        W17415   8.921   4.982   4.446  0.3141 -0.1326  0.4203
 1799W        W17416  10.031  14.779   3.557 -0.0052  0.1116 -0.1965
 1800W        W17417   6.488   6.855   3.327  0.0397 -0.2594  0.1298
 1801W        W17418  14.045   9.271   0.125 -0.2269 -0.0344  0.4864
 1802W        W17419   1.812  15.311   0.345  0.1093 -0.0481 -0.2406
 1803W        W17420   0.076   9.236   3.658  0.0244  0.0028 -0.1879
 1804W        W17421  15.842  16.052  16.001  0.1985 -0.0711 -0.1480
 1805W        W17422   2.755   4.179  14.010  0.1493  0.1387  0.0701
 1806W        W17423   4.715  16.139   2.872 -0.3421  0.0323 -0.1197
 1807W        W17424   5.578   6.868   6.054  0.0195  0.0848 -0.0313
 1808W        W17425  14.171  10.143   3.007 -0.0354  0.0856  0.2349
 1809W        W17426  10.629   4.765   0.478  0.1080  0.1070  0.2595
 1810W        W17427   9.474   9.727   4.088  0.4579  0.1162 -0.1241
 1811W        W17428  13.448   9.003   4.142 -0.2849  0.0941 -0.3667
 1812W        W17429   1.328   8.690   3.602 -0.0896 -0.0741  0.2087
 1813W        W17430  15.122   0.826   3.726 -0.3896 -0.0986 -0.0263
 1814W        W17431   6.727   2.092  14.386  0.0637 -0.1318  0.0813
 1815W        W17432  13.170   0.349   1.606  0.1781  0.2080  0.0278
 1816W        W17433   9.842  13.661  11.394 -0.1200  0.2153  0.2099
 1817W        W17434  11.212   2.655  11.276 -0.2988  0.0499  0.0142
 1818W        W17435   5.895  16.963  15.586  0.0343 -0.2821  0.0873
 1819W        W17436  16.364   8.450  15.877  0.1910  0.1281  0.2603
 1820W        W17437   4.355   1.555  15.327  0.1017 -0.1863 -0.4406
 1821W        W17438  14.536   7.434  12.448 -0.1825  0.0673  0.1338
 1822W        W17439  15.261  16.367   4.277 -0.0628 -0.2079 -0.0801
 1823W        W17440   8.888  15.447  14.917  0.0103  0.2143  0.2276
 1824W        W17441  14.448  12.864   3.725 -0.1235 -0.2161 -0.0178
 1825W        W17442   7.524   5.753   6.802  0.1205  0.1118 -0.1033
 1826W        W17443   8.845   3.639  16.571 -0.0907 -0.0523  0.1530
 1827W        W17444  11.889   7.193   3.504 -0.0606 -0.0374  0.2105
 1828W        W17445   7.168  13.955  16.492 -0.0926 -0.2001  0.0493
 1829W        W17446   7.455  13.729   2.259 -0.1795 -0.0182 -0.4470
 1830W        W17447  12.959   2.992   1.483  0.2899 -0.1039  0.1679
 1831W        W17448  14.167   5.206  15.501 -0.4861 -0.4825 -0.2467
 1832W        W17449   9.197  17.302  13.023 -0.0997 -0.0534  0.1385
 1833W        W17450   8.982   6.779  11.878 -0.0861  0.0763  0.0392
 1834W        W17451   1.574   1.920   0.058  0.2870 -0.0006 -0.0551
 1835W        W17452  15.852   3.944  17.057  0.0639  0.0946 -0.1089
 1836W        W17453  10.673   9.623   1.659 -0.0748 -0.0650  0.2479
 1837W        W17454  10.376  16.880   1.586  0.0319 -0.0604  0.0279
 1838W        W17455  12.276  11.777   0.952  0.1098  0.0477  0.1611
 1839W        W17456   2.832   5.883  15.465 -0.0643 -0.1960 -0.2426
 1840W        W17457  12.688  16.569   4.055 -0.3591  0.4027 -0.0446
 1841W        W17458  16.474   4.330  14.753  0.2628  0.0458  0.0299
 1842W        W17459   7.913   9.868   0.601 -0.1867 -0.2225 -0.0309
 1843W        W17460  12.287   9.960   3.799  0.2669  0.1777  0.0939
 1844W        W17461   6.238  13.213   0.572 -0.2902  0.0384 -0.0751
 1845W        W17462  11.964   0.522   2.216 -0.2905 -0.0140  0.1083
 1846W        W17463  11.313  10.567   5.191 -0.1332 -0.2825 -0.0726
 1847W        W17464   6.627  16.049  14.366  0.0631 -0.3402 -0.1277
 1848W        W17465  12.940   3.643  13.701 -0.1355  0.1331  0.2231
 1849W        W17466  10.652  14.943  11.473 -0.2084  0.2973  0.0409
 1850W        W17467   7.846  16.798  11.305 -0.3435 -0.1594  0.3763
 1851W        W17468   6.132  14.521   3.061  0.2442  0.4347  0.1627
 1852W        W17469  17.058   9.882   1.950  0.1631  0.0292 -0.3204
 1853W        W17470  12.499   4.062  17.147 -0.1708  0.0556 -0.0439
 1854W        W17471   1.780   4.519   4.299 -0.2028  0.2167 -0.1225
 1855W        W17472   9.990  10.778  14.916  0.0809 -0.0802 -0.3608
 1856W        W17473   8.975   2.216  11.770  0.0100  0.0610 -0.1122
 1857W        W17474   4.737   4.292   4.780  0.3110 -0.1501  0.1167
 1858W        W17475  14.267  12.717   0.857  0.3319  0.2686 -0.0137
 1859W        W17476   7.466   7.695  15.247  0.1813  0.1799  0.2097
 1860W        W17477  11.962  15.090  15.289  0.1836 -0.0454 -0.0924
 1861W        W17478  16.037   8.103  17.131  0.0789  0.0027  0.0639
 1862W        W17479   3.610   4.192  17.152  0.2059 -0.1578  0.0964
 1863W        W17480   6.165  13.885   2.342  0.4742  0.1052 -0.1803
 1864W        W17481  13.877  13.726  17.003  0.1948  0.1376 -0.0610
 1865W        W17482   3.598   6.977  13.909 -0.1681 -0.1305 -0.0647
 1866W        W17483  15.231  16.009   3.637  0.0254 -0.0778  0.0167
 1867W        W17484   7.157   8.047  16.151 -0.0111 -0.3550 -0.0822
 1868W        W17485   3.001  11.889  16.568  0.0325 -0.1950 -0.0884
 1869W        W17486   9.151  16.185   1.060  0.1247  0.4903  0.4149
 1870W        W17487  11.160  12.506  12.588 -0.1523 -0.1072  0.1875
 1871W        W17488  11.898  14.697   5.128 -0.2273 -0.1306 -0.0745
 1872W        W17489  15.235   8.426  17.241  0.1805 -0.0696 -0.2323
 1873W        W17490   0.632   2.217   4.779 -0.1117 -0.1355  0.2422
 1874W        W17491   0.248   0.796   2.806 -0.0258 -0.1609  0.1129
 1875W        W17492  11.847   7.263   6.459  0.0371 -0.0916 -0.4286
 1876W        W17493  15.570   5.464  16.900 -0.0897 -0.3366  0.2586
 1877W        W17494  10.780   5.055   4.752  0.2360  0.1970  0.1191
 1878W        W17495  15.249   8.141   1.451 -0.1036 -0.1241  0.2036
 1879W        W17496   5.306   8.341  12.153  0.1857 -0.0101 -0.0081
 1880W        W17497   1.878  10.571  15.478 -0.1104 -0.0868 -0.1406
 1881W        W17498   1.171  16.113   3.939  0.0719  0.1442  0.3444
 1882W        W17499  16.208  15.063   0.665  0.1790  0.1932  0.1512
 1883W        W17500  11.085  13.513  17.145 -0.0782  0.2682  0.0677
 1884W        W17501  16.097  15.835  12.293 -0.0829  0.0251 -0.1040
 1885W        W17502   5.650   7.640   0.247 -0.3188  0.2750  0.1002
 1886W        W17503  17.446  15.900   2.930 -0.1578  0.1665 -0.0630
 1887W        W17504   5.177  15.432   6.473 -0.0667 -0.1185 -0.3030
 1888W        W17505  10.527   6.789  16.780 -0.2010 -0.2851  0.0126
 1889W        W17506  12.846   0.201  14.440  0.0201  0.0361 -0.1506
 1890W        W17507   3.573  14.955   3.253 -0.1100  0.1189 -0.1879
 1891W        W17508   2.133   2.662   5.572 -0.3705  0.3662 -0.1048
 1892W        W17509   8.100  15.703  11.929 -0.0618 -0.0770 -0.4007
 1893W        W17510  10.664   2.244   3.621 -0.0158  0.2676 -0.2473
 1894W        W17511  11.464   0.769  12.000  0.2056 -0.1125  0.0626
 1895W        W17512  14.620  14.230   0.937  0.2741  0.0882 -0.2795
 1896W        W17513   7.916   4.546   3.676 -0.0306  0.2719  0.0556
 1897W        W17514  14.348  17.145  11.781  0.0118  0.4117  0.2711
 1898W        W17515   4.119  17.207   5.394  0.0817 -0.1937  0.0612
 1899W        W17516   5.683   9.593  13.184 -0.0189  0.1267 -0.1426
 1900W        W17517   9.138   2.768  17.031 -0.1903 -0.1161  0.1337
 1901W        W17518  14.283  12.994  15.582 -0.0939  0.1408  0.2768
 1902W        W17519  12.400  12.391  12.581  0.0164 -0.1891 -0.1793
 1903W        W17520   2.281   6.217   4.284 -0.4258 -0.1111 -0.1732
 1904W        W17521  10.605  15.325   4.090 -0.0580  0.1613  0.1702
 1905W        W17522   7.997   6.265   0.376  0.0904 -0.1089 -0.0210
 1906W        W17523   5.029   6.349  12.856  0.4843  0.2431 -0.3767
 1907W        W17524  14.655   0.040   1.734 -0.0632 -0.1419 -0.2812
 1908W        W17525  16.864   7.619   5.678  0.1247  0.1299 -0.0070
 1909W        W17526  10.387  14.237  16.870 -0.0156 -0.1040 -0.0743
 1910W        W17527   5.386   5.553  14.049 -0.0364  0.1706 -0.0370
 1911W        W17528   2.880   5.636  15.959  0.0131  0.3274 -0.3165
 1912W        W17529   0.636  16.816  12.989 -0.2853 -0.1007 -0.0705
 1913W        W17530   3.338   8.872   3.211 -0.3706 -0.0434 -0.2247
 1914W        W17531   6.591  14.479  14.196 -0.2784  0.0446  0.3914
 1915W        W17532   5.110  13.226   3.125 -0.0495 -0.1793 -0.0029
 1916W        W17533   6.580  10.885  14.526  0.0838 -0.1966  0.0058
 1917W        W17534   5.689   4.682  12.297  0.0359 -0.1322  0.2857
 1918W        W17535  13.303   7.399   3.713  0.1193  0.2532  0.1602
 1919W        W17536   1.170  13.367  15.813  0.0234 -0.1382  0.1354
 1920W        W17537  15.215   5.915   3.163 -0.2256 -0.3991 -0.0149
 1921W        W17538  17.523   6.729   0.121  0.1089  0.1051 -0.3311
 1922W        W17539   9.019  15.685  16.499  0.0722  0.0373  0.1814
 1923W        W17540  13.248   9.708   2.045 -0.1238  0.2025  0.0904
 1924W        W17541  11.194   4.310   3.763  0.1224  0.2867 -0.1553
 1925W        W17542   4.287  16.835   1.685  0.2195  0.0607  0.0298
 1926W        W17543   4.866  14.631   3.743 -0.0033 -0.1533 -0.1232
 1927W        W17544  12.063   7.686   6.646 -0.0659  0.0340 -0.0014
 1928W        W17545   1.443  15.941   4.787 -0.2017  0.1308  0.0941
 1929W        W17546   1.260  10.601   0.966  0.0715  0.0306  0.2341
 1930W        W17547   9.297   4.482  14.921  0.4379 -0.2209 -0.2437
 1931W        W17548   2.507  10.128   0.441  0.1654  0.0996 -0.2636
 1932W        W17549   4.736  16.574   0.780  0.0845 -0.2387  0.1739
 1933W        W17550   8.464   2.457  16.381 -0.0490 -0.1533 -0.1203
 1934W        W17551  10.199  17.592   4.430  0.0506  0.4507 -0.1581
 1935W        W17552   8.875   7.580   2.580  0.2224 -0.4024  0.0902
 1936W        W17553   4.878  16.143  15.140  0.0303  0.1799  0.2177
 1937W        W17554  16.323   3.030  16.288  0.3893 -0.1117 -0.0114
 1938W        W17555   5.944   3.431  11.553  0.1113  0.0871 -0.2329
 1939W        W17556  13.043  15.642  11.509 -0.0228  0.1585  0.0554
 1940W        W17557  11.784   9.520  13.483  0.2648  0.3409  0.0688
 1941W        W17558  16.879  13.517   2.511 -0.1401  0.0489 -0.0580
 1942W        W17559   2.587   7.215   5.800 -0.0041 -0.0926  0.0432
 1943W        W17560   7.346  16.475  16.625  0.0847  0.0242 -0.0588
 1944W        W17561  13.240  12.919  15.027  0.3466  0.1152  0.1467
 1945W        W17562  12.870   2.609  16.219  0.2005 -0.0026 -0.0839
 1946W        W17563   3.327  10.530   1.866  0.2136  0.0882  0.1517
 1947W        W17564   3.549  16.244  16.151  0.1590  0.0871  0.1757
 1948W        W17565  11.253  11.391  15.936 -0.0578  0.1301 -0.0089
 1949W        W17566   2.388   3.540  17.055  0.2454  0.2541 -0.1271
 1950W        W17567  12.659  15.380   1.514 -0.2453  0.1608  0.1258
 1951W        W17568  17.172  10.849  15.691  0.0372 -0.0007  0.1535
 1952W        W17569   0.990   1.493  11.838  0.2583  0.1232 -0.2725
 1953W        W17570   3.464   7.811   3.038 -0.0444  0.0285  0.0729
 1954W        W17571   1.914   5.254   5.762  0.0259  0.0439  0.2193
 1955W        W17572  11.733   6.988   1.855  0.2587 -0.1039 -0.2201
 1956W        W17573  10.893   3.972  13.561 -0.0988 -0.1220  0.1522
 1957W        W17574  17.568   3.710  11.673 -0.3715  0.0867 -0.1760
 1958W        W17575  17.325  12.164   3.893  0.2739  0.0756  0.1074
 1959W        W17576  13.797   6.560  12.552 -0.1376 -0.0238  0.2467
 1960W        W17577  12.133   3.054   4.669 -0.3261  0.1649 -0.0253
 1961W        W17578   7.437   5.721   5.675 -0.0547 -0.0245 -0.0715
 1962W        W17579   1.105  12.009   2.848 -0.0414 -0.1076 -0.0434
 1963W        W17580   1.758   0.922   3.918  0.1273  0.1046 -0.0271
 1964W        W17581   4.059   7.804   5.744  0.0434  0.1043 -0.2599
 1965W        W17582   9.384   7.486   2.545 -0.2584 -0.0166  0.2966
 1966W        W17583   8.069   7.678  13.386  0.1431  0.0592  0.1485
 1967W        W17584  12.655  12.492  17.281 -0.2884 -0.1281  0.0563
 1968W        W17585  14.800  16.513  13.669  0.1633 -0.0557  0.0740
 1969W        W17586  16.524  14.159  17.099 -0.1465 -0.2324 -0.1813
 1970W        W17587   3.838   4.368   2.539 -0.1242 -0.0552  0.0279
 1971W        W17588  14.493  11.149  16.855 -0.0187  0.0257  0.2823
 1972W        W17589   4.605   7.672  15.101 -0.0406  0.0151 -0.0629
 1973W        W17590   9.828  10.878  13.514  0.0971 -0.0083 -0.0810
 1974W        W17591  11.010   9.657   4.446  0.0137 -0.0103  0.1528
 1975W        W17592   9.633  11.800   0.909 -0.1582  0.0780 -0.2091
 1976W        W17593   1.970   2.792   2.631 -0.0285  0.1455 -0.2038
 1977W        W17594  16.623   2.523  11.651 -0.1709 -0.1932  0.1144
 1978W        W17595  13.123  10.521  12.246  0.0948 -0.2624 -0.0842
 1979W        W17596   0.814  14.071  14.414  0.4220 -0.1667  0.0778
 1980W        W17597   0.728  13.374  11.917 -0.1200 -0.1719 -0.1524
 1981W        W17598  12.500  13.472  16.444 -0.2044 -0.0762  0.0220
 1982W        W17599   3.847  10.159   0.975 -0.1188 -0.0353 -0.0565
 1983W        W17600   9.917  11.676  14.828 -0.3790  0.0933  0.0666
 1984W        W17601   8.271   6.305   1.818 -0.0784 -0.3586  0.2031
 1985W        W17602  10.553  17.228   1.205  0.0047  0.0098 -0.1769
 1986W        W17603   7.416  14.337  15.312 -0.0825  0.0862  0.3213
 1987W        W17604  11.416   2.824   3.937 -0.0418 -0.2979  0.1350
 1988W        W17605   5.207   6.584   5.755 -0.0901  0.0077 -0.0404
 1989W        W17606   3.453   9.993  12.567 -0.2748 -0.0634  0.1489
 1990W        W17607  15.228   3.263  14.923 -0.0564  0.2060  0.0183
 1991W        W17608   4.165   0.381  14.165  0.2295  0.0194  0.0994
 1992W        W17609  17.469   9.411  14.664  0.2248  0.1109 -0.3295
 1993W        W17610   4.013   4.043   5.074  0.1039  0.0069  0.0486
 1994W        W17611   2.415   1.001  14.967 -0.5354 -0.2538 -0.1741
 1995W        W17612   9.627   9.993  13.763  0.1400 -0.1983  0.1942
 1996W        W17613   2.957  12.500   2.951 -0.1753  0.2287 -0.0993
 1997W        W17614  12.901   5.559   2.069  0.0602  0.2355 -0.1185
 1998W        W17615  13.845   9.691  14.877  0.1738  0.1449  0.1772
 1999W        W17616   7.739  10.854  12.379 -0.2261  0.1707 -0.2591
 2000W        W17617   1.536  11.008  13.717  0.1078  0.2667  0.0637
 2001W        W17618  11.003   8.311   1.727  0.0040 -0.1936  0.0858
 2002W        W17619   3.364   9.686  15.768 -0.2573  0.0175  0.0563
 2003W        W17620  17.182   1.023   1.625 -0.0354 -0.2853 -0.1130
 2004W        W17621  16.605  14.265  13.433  0.1261 -0.2222  0.1414
 2005W        W17622  15.512   3.322   5.100 -0.4469  0.1186 -0.2313
 2006W        W17623  16.987   8.305  13.613 -0.1714  0.0398  0.0737
 2007W        W17624   1.421   1.928   4.736 -0.0093  0.4538 -0.2734
 2008W        W17625  15.986  15.517   1.035 -0.1352 -0.1667  0.1238
 2009W        W17626  11.450  11.534  12.738 -0.2359  0.0708 -0.0922
 2010W        W17627   6.241  16.778   3.962  0.0375 -0.0136  0.1113
 2011W        W17628   5.242   5.369   1.667 -0.1090  0.3381  0.1138
 2012W        W17629   3.006   6.162   5.023 -0.0605 -0.3143  0.2579
 2013W        W17630   8.151  12.346   5.429  0.3369 -0.0996 -0.2270
 2014W        W17631  12.766   3.035  11.165  0.0066 -0.0475 -0.2096
 2015W        W17632   3.718  11.915  14.021  0.5338 -0.1685  0.1640
 2016W        W17633  15.470  13.701  11.808  0.1778 -0.0179 -0.1315
 2017W        W17634   7.885  15.295   3.269  0.0014 -0.0774  0.1831
 2018W        W17635   2.685  10.308   5.032  0.2745  0.1548  0.0337
 2019W        W17636   0.032  13.748  16.608  0.2982  0.0898 -0.3157
 2020W        W17637   5.766   7.809  10.929  0.0705 -0.3224  0.2689
 2021W        W17638  12.886   3.334   5.261  0.0683  0.2070 -0.1438
 2022W        W17639   3.299  13.394   4.770 -0.0771  0.1815  0.1802
 2023W        W17640  13.102   4.442   2.124  0.0632  0.0877  0.0875
 2024W        W17641  16.137   8.876   3.508 -0.0018  0.3519 -0.0300
 2025W        W17642   4.975   0.635  11.340  0.0398  0.1080 -0.0942
 2026W        W17643   5.410  17.040  13.836  0.2045  0.0044  0.2683
 2027W        W17644   7.050  10.936   5.654  0.1038 -0.3804  0.1871
 2028W        W17645   0.346   8.753  14.797  0.0588  0.0234  0.0105
 2029W        W17646   5.827  11.918  16.495 -0.1450  0.1444  0.0425
 2030W        W17647  16.241   8.059  14.782  0.4109 -0.0207  0.3779
 2031W        W17648   0.319  14.309  15.187  0.5348 -0.2257 -0.0259
 2032W        W17649  16.312   0.718  12.243  0.1365 -0.2234  0.1748
 2033W        W17650   0.840   0.019   2.548 -0.0922 -0.2561 -0.1755
 2034W        W17651  13.444  15.696  12.258  0.0056 -0.0392  0.2545
 2035W        W17652   1.912  12.205   4.738  0.0682  0.1138  0.2060
 2036W        W17653  11.663  17.513  14.832 -0.2792 -0.1755 -0.0893
 2037W        W17654  12.220  13.588  10.962 -0.0195 -0.1573  0.0252
 2038W        W17655  17.592  17.327  14.926 -0.0836  0.3415 -0.0941
 2039W        W17656   3.383  16.540   4.148 -0.1825 -0.1832  0.1669
 2040W        W17657   3.468  16.867  14.882  0.2001 -0.0178  0.0241
 2041W        W17658  13.411   7.512   0.076  0.0291 -0.0731 -0.1862
 2042W        W17659  16.736   7.177  16.275 -0.3125 -0.2037 -0.3512
 2043W        W17660   2.278   8.239   1.491 -0.0298 -0.2037  0.1021
 2044W        W17661   6.040  16.828   5.011 -0.0218  0.0133 -0.0308
 2045W        W17662   8.618  11.384  16.632  0.2186  0.1082  0.0546
 2046W        W17663   8.257   0.492   5.862 -0.4604  0.2945 -0.0458
 2047W        W17664  13.761   4.853  14.462  0.1208 -0.0368  0.0788
 2048W        W17665  12.973  13.455   4.869  0.2887  0.0232 -0.1481
 2049W        W17666   7.553   8.266  15.947 -0.0780 -0.0399  0.1632
 2050W        W17667   8.567  14.856   3.329  0.2973  0.1017  0.4253
 2051W        W17668  12.263   8.861   3.626 -0.0804 -0.2162 -0.1419
 2052W        W17669   2.868  15.000   5.056 -0.2486 -0.4297 -0.2543
 2053W        W17670   4.568   6.759  12.441  0.0899 -0.0988 -0.0570
 2054W        W17671  11.000  10.556  16.954  0.0529  0.0171 -0.0262
 2055W        W17672   7.317   6.347   3.996 -0.4235 -0.0351 -0.0104
 2056W        W17673   6.143   2.877  13.682  0.0387  0.2138  0.2699
 2057W        W17674   8.213  15.690  15.013 -0.1691  0.2196  0.0042
 2058W        W17675  11.654   3.530   0.495 -0.0741  0.1873  0.0238
 2059W        W17676   2.247   4.600   2.233 -0.1300 -0.1734  0.0745
 2060W        W17677   0.009   3.196   6.044 -0.2003 -0.0478 -0.0708
 2061W        W17678  14.580   3.637   5.661  0.2469  0.1968  0.2765
 2062W        W17679   1.771   9.179   0.309  0.0528 -0.0816 -0.5013
 2063W        W17680   4.406  11.583   5.735  0.1600 -0.1059  0.1171
 2064W        W17681  14.055  10.232   5.088 -0.0830 -0.2154  0.1200
 2065W        W17682   8.106   8.276   1.779 -0.1759  0.1723  0.2189
 2066W        W17683   4.085   3.552   5.866 -0.0776 -0.2321 -0.1865
 2067W        W17684   3.413   6.587   2.067  0.0668  0.0064  0.3468
 2068W        W17685  12.284   0.859  15.387 -0.0899 -0.1265  0.0045
 2069W        W17686  13.893  10.802   1.701 -0.0976  0.0535  0.2765
 2070W        W17687   0.515  17.551   5.258  0.0216  0.2220  0.1039
 2071W        W17688  13.015   6.099   5.901  0.3611 -0.0310 -0.1132
 2072W        W17689  17.363   6.222   3.696  0.0721  0.3051 -0.0778
 2073W        W17690   9.581   1.498   2.993  0.2076  0.0181 -0.2440
 2074W        W17691   4.750  16.744  16.583  0.0650 -0.3056 -0.1713
 2075W        W17692  11.347   8.613   2.952 -0.1272  0.0726 -0.2151
 2076W        W17693   6.312   8.255   2.772  0.0706 -0.2016 -0.0701
 2077W        W17694  12.777  11.632  16.493 -0.1382  0.1120  0.0157
 2078W        W17695   1.399   1.874  15.035 -0.0697  0.1302 -0.1049
 2079W        W17696  11.942  16.267  12.832 -0.0094  0.3681  0.0060
 2080W        W17697   5.460  14.535  15.996 -0.1889 -0.2545 -0.0230
 2081W        W17698  10.693  10.639   0.081  0.0376  0.0766  0.1460
 2082W        W17699  14.441  16.592  14.954  0.3368 -0.0519  0.0858
 2083W        W17700   8.596  13.546  11.867 -0.0782 -0.0407 -0.2996
 2084W        W17701   8.239  13.329  14.912  0.0360  0.1526  0.0496
 2085W        W17702   6.010   3.023  13.021 -0.0522  0.0396  0.1053
 2086W        W17703  12.651   5.555   0.717  0.0197 -0.1076 -0.0994
 2087W        W17704  11.882  14.793   1.509 -0.2016 -0.0557  0.2825
 2088W        W17705   3.974  16.294  14.537  0.0413 -0.0544  0.1658
 2089W        W17706   2.971   9.126   2.159 -0.2085 -0.0183 -0.0433
 2090W        W17707  14.973   1.548  13.694  0.1903  0.1654  0.0275
 2091W        W17708   5.174  14.851   4.080  0.4313  0.4179  0.1188
 2092W        W17709   0.586   0.845   4.982  0.0109 -0.3179  0.0468
 2093W        W17710   1.029   9.610   0.715  0.0500 -0.2159  0.4012
 2094W        W17711   5.623   2.841   4.455  0.1998 -0.3086  0.1944
 2095W        W17712   6.070   2.057  15.534  0.3399 -0.0023  0.2657
 2096W        W17713   3.220   3.559   5.896 -0.2320 -0.3037  0.0763
 2097W        W17714   6.582   4.988  15.617  0.3943 -0.1042  0.1887
 2098W        W17715  10.644   0.120  13.356  0.1838  0.0670  0.3972
 2099W        W17716   5.311   4.024  14.457 -0.0637  0.1226  0.2336
 2100W        W17717   6.056   4.031  16.268 -0.0723  0.0452 -0.1668
 2101W        W17718  16.043  15.295  15.964  0.5477  0.1579  0.1415
 2102W        W17719  16.515   9.375   5.815 -0.0219 -0.2055 -0.0930
 2103W        W17720   7.427  13.758   0.670  0.4630  0.0753  0.1478
 2104W        W17721   9.022   6.899  16.789  0.2848 -0.0736  0.1042
 2105W        W17722  15.265   9.433   2.252  0.2758 -0.4760  0.1267
 2106W        W17723   5.683   5.193  14.926  0.2524  0.0556  0.1885
 2107W        W17724   5.490  16.330   4.263  0.1053 -0.1654 -0.3634
 2108W        W17725  14.078  15.073   6.113 -0.2244  0.0520  0.1598
 2109W        W17726  15.064  11.447   3.011  0.0912 -0.2762  0.0294
 2110W        W17727   8.576   4.070  13.279  0.0979  0.1181 -0.0924
 2111W        W17728   7.332   9.550  16.568  0.0592  0.0608 -0.0553
 2112W        W17729  17.056  12.103   4.963  0.3663 -0.0655  0.0961
 2113W        W17730   8.249   9.532  15.016  0.0048 -0.0055 -0.1133
 2114W        W17731   2.401  13.447   6.831  0.3570 -0.1356  0.0673
 2115W        W17732  15.756   7.858   0.175 -0.0231  0.2207 -0.0842
 2116W        W17733   9.608   4.885   3.692 -0.2147  0.3087  0.0360
 2117W        W17734  15.025   5.226   0.388 -0.1164 -0.1065  0.0922
 2118W        W17735  16.467  10.919  12.509 -0.0284  0.0753  0.0200
 2119W        W17736  14.943   7.736   2.248  0.1263 -0.1884  0.1268
 2120W        W17737   6.623   4.431   5.050  0.0353  0.0021 -0.2963
 2121W        W17738   2.594  15.067  11.864 -0.0848 -0.1893  0.2644
 2122W        W17739   9.576  11.334  15.023 -0.0116 -0.0826 -0.1151
 2123W        W17740  13.170   3.371  17.146 -0.0214 -0.5361  0.1307
 2124W        W17741   4.533  12.661  17.218  0.0485 -0.3494  0.1068
 2125W        W17742   3.483   7.903   2.517  0.0254  0.2374 -0.1684
 2126W        W17743   4.633   7.883   2.851  0.2990  0.1045  0.1843
 2127W        W17744  17.583  15.160  16.229 -0.1167  0.1585 -0.0347
 2128W        W17745   4.089   6.363   1.432  0.0458 -0.3096 -0.1569
 2129W        W17746  13.769   9.295  16.177  0.1160  0.3873 -0.2184
 2130W        W17747   7.839  16.096   3.875  0.3215  0.3435 -0.1918
 2131W        W17748  10.109  15.095  16.421  0.3411 -0.0003  0.0403
 2132W        W17749  15.010   1.744  16.149 -0.0363 -0.1864 -0.2014
 2133W        W17750   9.315  11.821   1.638 -0.1095 -0.2891 -0.2712
 2134W        W17751  12.947   0.977  16.623 -0.0512 -0.0683 -0.2499
 2135W        W17752   3.308  11.828  13.794  0.2134 -0.1032 -0.0362
 2136W        W17753   3.587   0.569   0.756  0.0049 -0.2672  0.2890
 2137W        W17754  11.363   7.772  14.516  0.0704 -0.1009 -0.2578
 2138W        W17755   2.882  13.541  14.452  0.1574  0.0844  0.0475
 2139W        W17756   3.380   0.835   1.915 -0.1666  0.0139 -0.0095
 2140W        W17757  12.617   9.378  13.008 -0.2860  0.0317  0.4835
 2141W        W17758  16.195   9.564   5.477  0.0080  0.1284  0.1707
 2142W        W17759   4.155  17.119  12.283  0.0601 -0.1815 -0.0152
 2143W        W17760  14.440  12.967  13.080 -0.0054 -0.0527  0.0189
 2144W        W17761   3.980  13.881   5.085 -0.0618 -0.0122 -0.0890
 2145W        W17762   8.829   1.132  15.127 -0.1574  0.1275 -0.0733
 2146W        W17763  13.264   9.080   1.731  0.1702 -0.2365 -0.3749
 2147W        W17764   5.941  12.473   4.165 -0.2705  0.0272 -0.0016
 2148W        W17765   6.080  16.943  17.088  0.0763 -0.1180  0.1645
 2149W        W17766   2.598   8.926   5.811 -0.2368  0.0309  0.2742
 2150W        W17767   9.189  14.941  14.780  0.2595 -0.0958  0.0581
 2151W        W17768  14.905   1.545   1.029  0.2826  0.1483  0.1803
 2152W        W17769   5.315   2.114  13.339 -0.1906 -0.3615  0.1033
 2153W        W17770   2.058   5.674  12.431  0.0664  0.0226 -0.0792
 2154W        W17771   4.232   3.922  12.989  0.4181 -0.0881  0.0823
 2155W        W17772  11.199  12.673   4.260  0.2381  0.0983  0.1374
 2156W        W17773   7.192  12.128   2.230  0.2727  0.1566 -0.2388
 2157W        W17774   8.910   8.249   1.094  0.1208 -0.2821 -0.1845
 2158W        W17775  10.508  11.176   2.460 -0.1114 -0.2276  0.0948
 2159W        W17776  12.476  15.497  14.536 -0.2478  0.3383  0.1637
 2160W        W17777  13.476   8.357   6.835  0.2010  0.2673  0.1260
 2161W        W17778   2.222  11.254  17.228  0.0196 -0.3056 -0.1149
 2162W        W17779  12.332   7.519  16.536  0.1638 -0.1113 -0.2337
 2163W        W17780   3.506   9.238  13.915 -0.4987 -0.0957  0.0812
 2164W        W17781   7.936   5.432  12.791  0.2048 -0.1603  0.1589
 2165W        W17782   6.685   3.583  17.159 -0.0082  0.0227 -0.1121
 2166W        W17783   7.677   0.041   2.175 -0.0854  0.1582 -0.3384
 2167W        W17784   3.298  11.430   0.555 -0.0185 -0.1125 -0.1118
 2168W        W17785  14.116   6.165  14.828 -0.0709  0.2327 -0.0878
 2169W        W17786  10.894   2.925   4.181 -0.1578 -0.2930 -0.0907
 2170W        W17787   5.908  15.503  17.165 -0.0105 -0.1066 -0.3272
 2171W        W17788  14.085   1.964   4.439 -0.1370  0.2042  0.0579
 2172W        W17789   7.565   4.835  13.291 -0.2237 -0.0209  0.2138
 2173W        W17790   6.729  13.128  16.481 -0.3554 -0.0092 -0.1580
 2174W        W17791   3.395   5.908   2.855 -0.0286 -0.1024 -0.0582
 2175W        W17792   4.025  12.573   5.882  0.0776  0.0732 -0.0420
 2176W        W17793  16.869  10.676  15.280  0.0674  0.0616 -0.0766
 2177W        W17794  12.507  11.650   2.639 -0.0808  0.0026  0.0424
 2178W        W17795   3.353   8.653  15.934 -0.1136  0.0763 -0.0518
 2179W        W17796   1.237   4.607   1.883  0.1294 -0.1088 -0.2806
 2180W        W17797   1.439  14.603  11.791  0.3032 -0.3557  0.0128
 2181W        W17798  12.633  17.399  10.367  0.0303 -0.3209  0.0054
 2182W        W17799  16.639   6.002   1.632  0.0527 -0.0816 -0.2349
 2183W        W17800   4.311   2.093   1.621 -0.0894  0.0024  0.1413
 2184W        W17801   0.821   5.655   3.139 -0.0943 -0.1561  0.2728
 2185W        W17802  17.203  13.510   2.951 -0.1583  0.2305  0.0038
 2186W        W17803   9.059   2.994  13.357  0.0766 -0.0260  0.1078
 2187W        W17804  17.080  15.966   5.481  0.0494 -0.1785  0.2260
 2188W        W17805   6.397  13.854  14.880  0.0429 -0.2309  0.0174
 2189W        W17806   9.776   9.688  16.695 -0.6565 -0.0787  0.0138
 2190W        W17807   2.728   5.078  14.616  0.1994  0.0270  0.1898
 2191W        W17808  11.656  17.206   0.724  0.1506 -0.2244 -0.2060
 2192W        W17809   7.831   8.268   0.870 -0.2850  0.2295  0.3533
 2193W        W17810  12.797   1.151   1.952 -0.0789  0.2973  0.1641
 2194W        W17811   7.796   5.010   0.513  0.1609 -0.1112  0.0986
 2195W        W17812  12.369  13.539  13.991 -0.2606 -0.0674  0.0732
 2196W        W17813   5.580  17.286   2.673 -0.0403  0.3063  0.2046
 2197W        W17814   4.325  16.727   2.585 -0.0265  0.1479 -0.2330
 2198W        W17815  13.522  17.373   6.110 -0.0857  0.2614  0.1403
 2199W        W17816  12.745  15.772  14.232  0.2659  0.0359 -0.2104
 2200W        W17817  12.544   4.121  14.384 -0.1798  0.0890  0.1260
 2201W        W17818  15.999   2.920   1.284  0.1473  0.2189  0.2194
 2202W        W17819   0.655   0.069   0.778 -0.2469  0.2601  0.0094
 2203W        W17820   9.722   8.816  13.781 -0.5129 -0.0519  0.0221
 2204W        W17821   8.808  14.210  16.804  0.0777 -0.1343 -0.2610
 2205W        W17822   6.798   4.115   5.575  0.0701 -0.0545  0.0913
 2206W        W17823  13.279  14.035  13.422  0.1947 -0.0480 -0.2033
 2207W        W17824  14.374  10.679   5.828 -0.0154 -0.0145 -0.0110
 2208W        W17825   7.895   7.213   1.918  0.3778 -0.0409  0.3087
 2209W        W17826  12.506  12.426   1.898  0.0416  0.3302  0.5275
 2210W        W17827  14.097   8.225  15.814  0.3044 -0.0335  0.0580
 2211W        W17828   2.940  12.260   1.640  0.3201  0.0131 -0.3233
 2212W        W17829  11.220   2.379   0.412  0.0130 -0.1686  0.0226
 2213W        W17830   2.940  13.193  13.110 -0.1267 -0.0748  0.0200
 2214W        W17831  11.747  15.289  16.294  0.0647  0.3836 -0.3348
 2215W        W17832  12.548   9.158   4.527  0.0908  0.2962  0.2608
 2216W        W17833  15.202   8.360   6.805 -0.0523 -0.1398 -0.2032
 2217W        W17834   0.173   1.016  16.271 -0.0736  0.1096  0.1935
 2218W        W17835  11.456   4.772  17.244 -0.4968  0.4758 -0.0867
 2219W        W17836  16.764  12.296  12.107 -0.1465  0.3493  0.0243
 2220W        W17837  15.574   5.190   5.011  0.0709 -0.1350 -0.0615
 2221W        W17838   6.431   5.564  13.738  0.4385  0.0482 -0.2084
 2222W        W17839  11.367   8.816   3.922 -0.3080  0.2318  0.4452
 2223W        W17840  16.689  10.521   3.503  0.2183 -0.0170 -0.4283
 2224W        W17841   4.355  10.944   6.520 -0.0340 -0.0481 -0.2514
 2225W        W17842   1.884  14.884   5.588  0.0796  0.1552  0.1764
 2226W        W17843   1.351   5.986   4.417 -0.0997 -0.0904 -0.1498
 2227W        W17844  10.653   9.767  12.160  0.0391 -0.0135 -0.0125
 2228W        W17845  15.724   8.287   4.107 -0.2287 -0.1712  0.2597
 2229W        W17846   9.154   0.843   4.851  0.2030 -0.0261  0.2078
 2230W        W17847  16.937   0.788   6.493  0.2097 -0.0757 -0.1838
 2231W        W17848   4.407   0.382  12.044 -0.0487 -0.1482 -0.1914
 2232W        W17849  14.941   9.035   1.084  0.2888 -0.0381  0.2486
 2233W        W17850   6.512  16.552   3.059 -0.3549  0.0932 -0.1337
 2234W        W17851   2.640  11.976  12.296  0.3433 -0.1167  0.1575
 2235W        W17852  12.522   9.114   0.602 -0.0820 -0.1755 -0.1508
 2236W        W17853  15.286   8.961  14.453 -0.3019  0.3036  0.2785
 2237W        W17854   6.583  15.596   3.794 -0.1488 -0.3002  0.2995
 2238W        W17855   0.501   2.173  12.965  0.1873 -0.2596  0.1426
 2239W        W17856  16.278  15.781   2.617 -0.2619  0.0599  0.3133
 2240W        W17857   4.803   6.612  16.520 -0.0089 -0.2371 -0.0746
 2241W        W17858  11.147   0.757   2.740  0.0070  0.2145 -0.4623
 2242W        W17859   9.662   3.315   4.034  0.2575  0.0971  0.1316
 2243W        W17860  14.715  15.364  11.962 -0.1353  0.0106 -0.1796
 2244W        W17861   2.796   9.626   1.642  0.1642  0.2931 -0.1102
 2245W        W17862  10.474   3.268  16.921 -0.0158 -0.0796  0.0734
 2246W        W17863  11.039   1.339   5.174  0.1773  0.3442 -0.1203
 2247W        W17864  16.571  17.201   1.295  0.4158 -0.0907  0.1139
 2248W        W17865  10.501  10.839  16.962 -0.2790 -0.1205  0.1183
 2249W        W17866  11.993   5.639   4.051  0.0624 -0.0635  0.0857
 2250W        W17867   8.381   6.078   2.235 -0.0890 -0.1758  0.1426
 2251W        W17868  15.146  12.692  13.546 -0.1737 -0.2619 -0.0414
 2252W        W17869  12.578   2.099   1.733 -0.1517  0.0962  0.1057
 2253W        W17870   6.471  12.918  11.868  0.0458 -0.0009  0.0744
 2254W        W17871   3.296   1.697   0.434 -0.1910 -0.1251 -0.1301
 2255W        W17872  12.110   2.880  11.763  0.0833  0.0906  0.0033
 2256W        W17873   4.154   0.315   5.992  0.0406  0.0547  0.0312
 2257W        W17874  12.450  12.615   0.429  0.4010 -0.1049  0.2499
 2258W        W17875  15.447   0.071  17.015  0.0365  0.0464  0.2618
 2259W        W17876  10.585   3.300  14.326  0.1299  0.0537  0.1399
 2260W        W17877  16.784   2.523  16.104 -0.2570  0.0610 -0.1630
 2261W        W17878   7.280   3.881   4.050  0.6714  0.0833  0.0201
 2262W        W17879   8.022  15.672   4.920  0.0759 -0.1793  0.1156
 2263W        W17880   9.686  16.062   0.179 -0.1391  0.2318  0.2563
 2264W        W17881  13.891   3.141   3.242  0.0899 -0.0751 -0.0137
 2265W        W17882  14.270   0.157  15.890  0.1531 -0.1183  0.0807
 2266W        W17883   5.025   9.673   2.868 -0.1309 -0.1575  0.0276
 2267W        W17884   8.164   4.024   6.040 -0.0507  0.0902 -0.1349
 2268W        W17885   8.052  15.561  16.162 -0.1399  0.1033 -0.0827
 2269W        W17886  13.763   2.534  16.340  0.2142 -0.0657  0.0805
 2270W        W17887  13.540   0.409  14.746  0.1138  0.0380  0.1480
 2271W        W17888  11.475   1.984   3.921  0.0548  0.1711  0.0162
 2272W        W17889   8.533   8.838   0.853 -0.0534  0.0181  0.2760
 2273W        W17890   2.416   2.857   5.151 -0.0690 -0.1764 -0.1736
 2274W        W17891  14.683  16.284  14.585 -0.0324  0.0422 -0.2993
 2275W        W17892   8.256   3.275   4.489 -0.0355 -0.1260  0.1251
 2276W        W17893   4.653   6.886  16.949 -0.1052 -0.0271 -0.1486
 2277W        W17894   1.216   1.420   5.661 -0.2607  0.1898 -0.0981
 2278W        W17895   1.851   3.881   6.332 -0.0420  0.0159 -0.0981
 2279W        W17896  14.980  11.843   1.330 -0.4573 -0.1222 -0.0051
 2280W        W17897  10.128  13.680  14.502  0.2184 -0.0471 -0.0378
 2281W        W17898  15.575  11.998   4.498 -0.1590 -0.0794 -0.2790
 2282W        W17899  16.100   4.097  14.926  0.1252  0.0379 -0.1917
 2283W        W17900  13.269   8.270  16.106  0.2712  0.1373  0.0726
 2284W        W17901  15.716   3.450  10.876 -0.1056 -0.0978 -0.4497
 2285W        W17902  13.724   9.472   1.740 -0.3584 -0.0309 -0.0314
 2286W        W17903   2.738   6.353   3.335 -0.1602 -0.0123  0.1896
 2287W        W17904   7.297   2.380  15.901  0.1549 -0.0507  0.0799
 2288W        W17905  14.891  11.889  15.686 -0.0190  0.2176  0.0942
 2289W        W17906   6.888  15.896  12.797 -0.0459  0.2707  0.0103
 2290W        W17907   4.672   6.470   3.743 -0.0746 -0.0573  0.1709
 2291W        W17908   4.175   0.759   1.240 -0.1513 -0.1725  0.1513
 2292W        W17909   7.589  14.762  10.983  0.2306  0.0106 -0.2908
 2293W        W17910   1.420   6.430   0.367  0.2006 -0.1703 -0.0286
 2294W        W17911   5.164  16.963   6.040 -0.0844  0.0168  0.1176
 2295W        W17912   5.397  11.306   4.760 -0.1531 -0.3333  0.0930
 2296W        W17913   2.890   2.830   0.974 -0.0423  0.2974 -0.0009
 2297W        W17914  14.583  11.908   1.956  0.0522 -0.1459  0.3212
 2298W        W17915  15.623  13.283   1.524  0.0254 -0.1372 -0.1504
 2299W        W17916   4.785   5.447  12.134  0.1310 -0.1984  0.1409
 2300W        W17917   3.884   9.548   6.440 -0.3041 -0.2413  0.3974
 2301W        W17918   5.524  15.668  15.973  0.0927  0.0603 -0.3527
 2302W        W17919  15.074   1.986  14.010 -0.0883  0.0770 -0.2795
 2303W        W17920   2.548  15.904   0.783 -0.0209 -0.4091 -0.0222
 2304W        W17921   5.120  15.806   3.418  0.0068 -0.4336 -0.0379
 2305W        W17922  13.252   7.355   5.494 -0.0586 -0.0378 -0.1656
 2306W        W17923   0.490   9.720  14.188  0.0281  0.1794 -0.2694
 2307W        W17924  16.227  12.013   5.970 -0.0592  0.0797 -0.0934
 2308W        W17925  17.574  11.397   1.467  0.0928 -0.1837  0.2797
 2309W        W17926  12.620  17.183   4.973  0.2121 -0.1337 -0.1986
 2310W        W17927  14.882   6.823  13.995 -0.3007 -0.1155 -0.0850
 2311W        W17928   3.129   7.781   5.532  0.0288 -0.1872 -0.2280
 2312W        W17929   1.876  14.658   2.016  0.0830  0.1320  0.0402
 2313W        W17930  13.704   9.043   3.669  0.0681  0.3166 -0.1256
 2314W        W17931   6.196  12.697  14.087  0.0694  0.0180  0.3504
 2315W        W17932   7.565  13.761  16.704  0.1387 -0.1700 -0.2874
 2316W        W17933   1.062   3.997  14.415  0.1529  0.0260 -0.0718
 2317W        W17934  17.108   9.834  16.576  0.1350  0.1487  0.1957
 2318W        W17935   5.097  12.342  11.871 -0.2571  0.0814  0.0111
 2319W        W17936   0.510   3.716   3.412 -0.0029  0.4349  0.0337
 2320W        W17937  16.638  17.131   4.455 -0.0793  0.0208  0.0778
 2321W        W17938   8.973   4.927  13.014 -0.0004  0.0454  0.2995
 2322W        W17939   5.461   0.172   4.327  0.1379 -0.2632  0.2050
 2323W        W17940  14.258   1.702  13.680 -0.2315 -0.0935 -0.0212
 2324W        W17941  15.798   4.494  12.527  0.3241  0.0500 -0.0265
 2325W        W17942   4.154  12.909   1.535  0.1672  0.0907 -0.0325
 2326W        W17943   6.787   9.466   3.003  0.0560 -0.1023 -0.3498
 2327W        W17944   1.188   6.076  13.196  0.0046 -0.1320 -0.1024
 2328W        W17945   3.020  10.680   3.419  0.0171  0.3017 -0.1913
 2329W        W17946  14.757  10.597  12.838  0.1028  0.0218  0.0283
 2330W        W17947  13.339   0.726   1.119 -0.3236 -0.3579  0.3356
 2331W        W17948   0.821  12.593  12.650 -0.0855 -0.4818  0.4715
 2332W        W17949   8.467  11.317   4.741 -0.0157  0.1798 -0.0623
 2333W        W17950   5.466   3.787   1.345 -0.0215 -0.1378 -0.0965
 2334W        W17951  12.113  10.753   1.630 -0.2463 -0.2373  0.1870
 2335W        W17952   6.463  14.330  15.209 -0.0680  0.4089 -0.1672
 2336W        W17953  16.011   4.896   5.627 -0.0310  0.0569 -0.2630
 2337W        W17954  15.615  12.893   2.526  0.0816  0.2354  0.0576
 2338W        W17955   5.124   2.224  12.903 -0.2456  0.0387 -0.1310
 2339W        W17956   1.087   2.731  17.130  0.2446  0.1247  0.0681
 2340W        W17957  16.601   8.496   5.276 -0.0161  0.3257  0.1174
 2341W        W17958  14.345  10.687   5.331 -0.0539 -0.1133  0.0947
 2342W        W17959   0.474   1.445  16.454 -0.1163  0.0493  0.0682
 2343W        W17960   7.710   5.447   3.695  0.0421 -0.1400  0.1335
 2344W        W17961  17.038   1.274   4.692 -0.0781  0.2978  0.1648
 2345W        W17962   3.703   8.047   6.044  0.0834  0.3152  0.0321
 2346W        W17963  11.523   4.900   4.291  0.3275 -0.1075  0.0565
 2347W        W17964  15.263  12.641  12.117 -0.0343 -0.1277 -0.0970
 2348W        W17965  15.136  12.441   3.241  0.1049  0.1893  0.1489
 2349W        W17966   5.999   7.137   1.049 -0.3531 -0.1064 -0.0342
 2350W        W17967   5.676  16.675  17.258 -0.4674  0.0965  0.2029
 2351W        W17968  15.315   5.450  12.219 -0.3010 -0.0332  0.2324
 2352W        W17969   0.511   1.801   2.393  0.1257 -0.1373 -0.0430
 2353W        W17970  11.369  12.533  16.467  0.0262 -0.0581 -0.1406
 2354W        W17971  13.974   7.857   2.348  0.0169  0.2089 -0.1813
 2355W        W17972   7.274  11.002   2.227 -0.0683  0.1743 -0.1002
 2356W        W17973   0.325   4.466   2.423  0.1268 -0.0900  0.0686
 2357W        W17974  16.424   6.393  13.875 -0.1620  0.1096 -0.3223
 2358W        W17975   4.024  17.579  14.344 -0.1844  0.0282 -0.0271
 2359W        W17976  11.124   9.468  15.951 -0.4122 -0.2516  0.0828
 2360W        W17977   3.462  13.077  15.480  0.0788  0.0689 -0.2235
 2361W        W17978   6.966   7.744  12.384 -0.2313  0.1153  0.2043
 2362W        W17979  13.156  11.893   0.616 -0.0816 -0.0633  0.1038
 2363W        W17980  14.257   1.320  14.912 -0.4032  0.3306  0.2012
 2364W        W17981  17.561  15.006  13.780  0.2657  0.0323  0.1019
 2365W        W17982  17.098  12.628   0.651 -0.0404 -0.0224 -0.0188
 2366W        W17983   4.145  14.927  17.200 -0.0756 -0.2348 -0.1368
 2367W        W17984   8.620   4.605  15.650 -0.2660  0.0131 -0.0390
 2368W        W17985   4.875   1.076   1.263  0.1797 -0.1490 -0.0979
 2369W        W17986  14.511  13.187   4.287 -0.0132  0.2010  0.0162
 2370W        W17987  15.837  17.332  14.030 -0.3920 -0.0743  0.1355
 2371W        W17988  11.422   3.421  16.987  0.1408  0.1881  0.0616
 2372W        W17989   4.244  10.086   2.488 -0.0901 -0.0110 -0.0452
 2373W        W17990  14.317  13.765   3.751  0.3244  0.2705 -0.0893
 2374W        W17991   4.668  16.233  13.232  0.0731 -0.3999 -0.3121
 2375W        W17992   3.707   5.534   0.185 -0.2042 -0.1548  0.1149
 2376W        W17993   7.425  12.033   0.542 -0.2073 -0.1555  0.0580
 2377W        W17994   7.182   7.008  16.323 -0.2533  0.1920  0.1162
 2378W        W17995  14.444  11.886  12.444 -0.1284 -0.3303  0.2570
 2379W        W17996   3.204   7.312   3.171 -0.1029  0.1159 -0.2938
 2380W        W17997  12.493   4.748   5.067  0.0335 -0.1038 -0.2258
 2381W        W17998   9.275   9.875  12.322  0.4169  0.0087  0.0654
 2382W        W17999  10.617  14.518  13.265 -0.1191 -0.2110 -0.1108
 2383W        W18000   1.002   8.186  15.117 -0.3372  0.3328 -0.1811
 2384W        W18001   1.315   8.890   5.972 -0.0233 -0.3594  0.3630
 2385W        W18002   6.275   7.594  14.591  0.2629  0.1952 -0.2692
 2386W        W18003  16.715   8.596  16.338  0.0316  0.1026  0.0722
 2387W        W18004   1.696  17.336  15.245  0.0989 -0.0132 -0.0041
 2388W        W18005  17.209   8.056   5.764 -0.1159  0.2972  0.3250
 2389W        W18006   9.101  17.168   1.415  0.0012 -0.0687 -0.1853
 2390W        W18007   3.693   3.937   5.909  0.0801  0.0468 -0.0904
 2391W        W18008  16.072  12.660   2.801  0.0959  0.0738  0.1598
 2392W        W18009   8.541   9.645  15.413  0.0522  0.2625  0.2130
 2393W        W18010   0.106   7.907   3.095  0.1333 -0.0648 -0.0367
 2394W        W18011  12.392   7.332   5.983  0.2035 -0.1731 -0.2394
 2395W        W18012  11.438  12.761  16.927 -0.0486  0.0354 -0.1554
 2396W        W18013  15.740   6.378   2.556  0.0005 -0.1939  0.0784
 2397W        W18014  14.797   0.383  14.192 -0.0755 -0.0829 -0.1293
 2398W        W18015  11.289   7.690   3.643 -0.1749  0.1927 -0.0434
 2399W        W18016  11.708   7.582  12.203  0.1558  0.4049 -0.0156
 2400W        W18017   3.134   6.608   4.735 -0.1416 -0.0352 -0.0324
 2401W        W18018   7.444   0.075  15.440 -0.0450  0.1396 -0.0160
 2402W        W18019  11.567  15.189   3.005  0.0536  0.0930 -0.2458
 2403W        W18020  16.372  12.275   0.053  0.2319 -0.2473  0.2741
 2404W        W18021  14.971   7.846   6.184 -0.0628 -0.1609  0.2418
 2405W        W18022   8.930   7.580  16.299  0.1192  0.4134 -0.1895
 2406W        W18023   0.976  16.027  11.693  0.0291  0.0073 -0.3497
 2407W        W18024  11.259   3.587  13.502 -0.1044 -0.0096  0.0771
 2408W        W18025   8.838  12.730  11.648 -0.2683 -0.0218 -0.1086
 2409W        W18026  12.858  13.180   4.420 -0.0570  0.1543  0.1739
 2410W        W18027   4.815  16.665   1.333  0.0080 -0.1904 -0.0737
 2411W        W18028  10.290   0.951   2.545  0.0852  0.4336  0.0798
 2412W        W18029  12.393  13.433  14.494 -0.1713  0.0920 -0.0868
 2413W        W18030   7.126   8.535   5.615 -0.2161  0.1927 -0.2484
 2414W        W18031  10.363   4.255   2.274  0.2072  0.0520 -0.0232
 2415W        W18032  16.577  16.436   0.806  0.0625  0.0365  0.2423
 2416W        W18033  14.431   4.960   1.614  0.0644 -0.0450  0.2338
 2417W        W18034  15.264   3.299  13.956  0.1467  0.0022  0.0328
 2418W        W18035   6.086   1.394  12.682  0.1678 -0.2050 -0.0983
 2419W        W18036   1.998   9.744   1.631 -0.1762  0.2085  0.1016
 2420W        W18037   6.811   9.114  11.846 -0.0369 -0.3338  0.0944
 2421W        W18038   0.972   5.955  13.686 -0.1054 -0.2335  0.0835
 2422W        W18039  10.517  10.926   1.937  0.1531 -0.2447  0.1192
 2423W        W18040   6.830  11.843  12.652  0.1349 -0.1929  0.4604
 2424W        W18041  11.862  13.590  13.743 -0.3197  0.0556  0.0065
 2425W        W18042   2.659   2.451   3.171 -0.1244  0.4193 -0.1472
 2426W        W18043   3.704   2.214  12.577  0.2023  0.1181  0.3644
 2427W        W18044   8.924  10.339   0.405  0.1357  0.0251 -0.3705
 2428W        W18045   2.806   8.139  15.416 -0.2138 -0.2525 -0.0607
 2429W        W18046  13.963   1.029  12.278  0.1774  0.0435 -0.2016
 2430W        W18047  11.981  10.765   4.377 -0.0512  0.0018  0.3461
 2431W        W18048   0.286  16.322   4.925 -0.1185 -0.2177  0.0458
 2432W        W18049  14.472  13.759   0.127 -0.1235 -0.0204 -0.1896
 2433W        W18050  12.899  12.466   5.038 -0.0197  0.0241 -0.1447
 2434W        W18051   8.230   2.606   2.741  0.1313 -0.1074  0.1196
 2435W        W18052   0.679   6.024   5.225 -0.0943  0.0170 -0.0264
 2436W        W18053  14.028  16.873   5.361 -0.3284 -0.1297 -0.0206
 2437W        W18054   5.630   6.568  15.345 -0.1822  0.0681 -0.0614
 2438W        W18055   9.166   5.820   6.281 -0.0590  0.2102  0.1457
 2439W        W18056  15.074   2.338   1.927  0.0969  0.3115 -0.0808
 2440W        W18057  17.116   4.569   1.190  0.1004  0.1127  0.0039
 2441W        W18058   9.337  11.776   2.989  0.2501 -0.0706  0.2329
 2442W        W18059  10.040   7.729  14.682 -0.0081  0.0607  0.0322
 2443W        W18060  11.777  15.102   3.483 -0.1591 -0.0562 -0.0926
 2444W        W18061   3.661   1.479   3.748 -0.0585  0.0922 -0.1148
 2445W        W18062   6.425   9.214   1.300  0.3157  0.6246  0.0383
 2446W        W18063  13.667   2.994  16.036 -0.0281 -0.2551 -0.1407
 2447W        W18064  12.274   4.887   1.769 -0.0434 -0.0375  0.0687
 2448W        W18065  16.419   3.012   2.747  0.2080  0.0678  0.0074
 2449W        W18066   5.357   7.883  14.296  0.0705 -0.0600  0.1073
 2450W        W18067  13.570   4.012  14.438 -0.1061  0.1064 -0.5899
 2451W        W18068   1.284   6.951   0.430  0.2893  0.0811 -0.1371
 2452W        W18069   7.834   3.372   4.783 -0.0453  0.1926 -0.0844
 2453W        W18070   4.533   8.162   6.534 -0.1499  0.0757 -0.2881
 2454W        W18071  15.397   1.199   5.031  0.1163 -0.0026  0.2137
 2455W        W18072   7.082   4.745   4.862  0.1241  0.1578 -0.2601
 2456W        W18073   7.141   7.711   3.991  0.2516 -0.1043 -0.0203
 2457W        W18074   9.582   5.724  13.235  0.1594  0.0216 -0.0503
 2458W        W18075   3.939   6.914   2.124  0.2657  0.0145 -0.4177
 2459W        W18076   7.258   0.969  13.087 -0.0463 -0.1058 -0.0407
 2460W        W18077  16.460  12.078   4.521 -0.1084 -0.1290  0.2882
 2461W        W18078   4.516   1.456   4.338  0.2965 -0.1240  0.0256
 2462W        W18079  17.291  14.548  17.077 -0.0359 -0.1835 -0.0909
 2463W        W18080   3.476  11.493  14.587  0.0985  0.1369  0.0576
 2464W        W18081   1.108   0.605   5.648  0.0501  0.1626 -0.2917
 2465W        W18082   0.259   9.559   4.116 -0.0872 -0.0258  0.3641
 2466W        W18083  10.738  10.355  12.978  0.0742  0.2337  0.0517
 2467W        W18084   0.881   1.018   3.569  0.0675 -0.3819  0.0670
 2468W        W18085  10.977   0.641  15.625 -0.0996  0.2004  0.4302
 2469W        W18086   8.547   1.907  11.908 -0.1130 -0.0452 -0.1155
 2470W        W18087   5.941   6.819   0.695  0.1801  0.0030  0.1930
 2471W        W18088  16.733   4.551  15.298  0.0377 -0.0326 -0.0731
 2472W        W18089   8.619   7.939  14.132 -0.0128  0.0877 -0.0349
 2473W        W18090  17.147   0.655  16.032  0.2540 -0.2091  0.0053
 2474W        W18091  14.290   4.170   0.066 -0.2815  0.0418  0.1522
 2475W        W18092   4.290  16.219   2.556  0.3451  0.1900  0.2008
 2476W        W18093   3.104  13.397  13.948 -0.2010  0.3163 -0.1907
 2477W        W18094  11.846   3.839   4.989  0.0876 -0.1344 -0.1005
 2478W        W18095   8.721   1.290  12.593  0.0949 -0.1189 -0.1007
 2479W        W18096   9.670   1.883  13.440  0.0079 -0.0632  0.1999
 2480W        W18097   4.531  12.224  14.957 -0.1105 -0.1887 -0.0837
 2481W        W18098  15.989  16.665   4.643  0.0000 -0.0670 -0.0390
 2482W        W18099   6.073  15.030   4.437  0.3131  0.0921  0.1999
 2483W        W18100  10.625  15.149   5.580  0.1505 -0.0444 -0.2917
 2484W        W18101  13.145   4.941   5.230  0.0132  0.0259 -0.2406
 2485W        W18102   9.510   8.100  15.912  0.2712  0.2438  0.1176
 2486W        W18103  16.484   2.453   3.428  0.1311  0.0648  0.0027
 2487W        W18104  14.905  11.939   3.192  0.5076  0.0224 -0.1554
 2488W        W18105   9.515  17.272  12.591  0.0102  0.0670 -0.0831
 2489W        W18106   8.947   0.259   1.021  0.0587  0.2789 -0.0297
 2490W        W18107   5.589  15.988   0.606 -0.2572  0.0537  0.1327
 2491W        W18108   6.513  12.702   4.201  0.0419 -0.1922 -0.2582
 2492W        W18109   9.588   5.644   2.581 -0.2093  0.2240  0.0113
 2493W        W18110   5.760  15.872  14.787  0.4045 -0.1352  0.2529
 2494W        W18111  11.515  13.417   1.647  0.1825 -0.3234  0.1178
 2495W        W18112  13.745  13.728   4.518 -0.3197 -0.2759 -0.1088
 2496W        W18113  10.691  14.041  13.273  0.2158 -0.1408 -0.1746
 2497W        W18114   3.431  10.077  13.571 -0.1580  0.1799 -0.0278
 2498W        W18115   1.198   7.347   4.287  0.2543  0.2553 -0.0457
 2499W        W18116  17.196  16.017  16.285  0.1493  0.0060  0.0532
 2500W        W18117   4.120  10.467  16.365 -0.2172 -0.0202  0.1924
 2501W        W18118   3.755  15.339   2.461  0.0744 -0.1746 -0.1205
 2502W        W18119   2.600   3.667  11.056  0.0431 -0.2954 -0.0232
 2503W        W18120  11.873   9.696   0.149 -0.0826  0.1249  0.3033
 2504W        W18121  15.882   2.667   0.124 -0.0067 -0.3221  0.1390
 2505W        W18122  12.916   0.008  16.738 -0.1281 -0.0382  0.0691
 2506W        W18123   9.471  11.404   1.217  0.0257  0.2332  0.2596
 2507W        W18124   5.980  10.536   4.312 -0.1554  0.1039 -0.0322
 2508W        W18125  17.268   1.340   5.218  0.0514  0.2026  0.3119
 2509W        W18126  11.331   3.458  15.760 -0.1476 -0.0799  0.1197
 2510W        W18127   4.883   7.361  12.926  0.0165 -0.1722  0.0392
 2511W        W18128  13.660   1.227   3.338 -0.2420 -0.0966  0.0387
 2512W        W18129   4.140  13.862  12.050  0.3693  0.1179  0.1487
 2513W        W18130  14.766  17.123  16.839  0.2470  0.1388 -0.3744
 2514W        W18131   9.290   5.164  15.980 -0.1756 -0.0627  0.0714
 2515W        W18132   2.192   6.387  14.073  0.0446 -0.2262 -0.1496
 2516W        W18133  17.035  10.154   3.591  0.0255 -0.1267  0.0760
 2517W        W18134   7.748  14.573  16.088  0.0047  0.0643  0.1436
 2518W        W18135  14.471   4.844  13.726  0.2215  0.1229 -0.4061
 2519W        W18136   8.603   4.706   2.329  0.4377 -0.0552  0.3187
 2520W        W18137   3.197  13.183   5.930  0.2616  0.0782  0.1013
 2521W        W18138  12.851   2.654   1.111  0.2179 -0.0206 -0.0692
 2522W        W18139  15.348   0.425   4.912 -0.2353  0.2347  0.3847
 2523W        W18140   0.217  12.452  12.555  0.0709  0.0824 -0.2025
 2524W        W18141   4.326   6.329  14.231 -0.0823  0.0759  0.1027
 2525W        W18142  16.237   5.818   0.452 -0.0082 -0.3572  0.1363
 2526W        W18143   8.766   1.046  15.958  0.3037  0.0155  0.3859
 2527W        W18144   6.928  17.384   5.224  0.1638  0.0215  0.0865
 2528W        W18145   9.716   6.295  14.111 -0.2790  0.3030  0.1522
 2529W        W18146   4.125  13.722  14.841  0.1217  0.2885  0.1856
 2530W        W18147   8.003  17.469   4.362  0.0632 -0.0316  0.0669
 2531W        W18148   4.981   4.150  14.931 -0.5456 -0.0187 -0.0810
 2532W        W18149  13.004  13.482  16.495  0.1616  0.1571  0.0788
 2533W        W18150   4.300  11.618   2.180 -0.0497  0.0537  0.0997
 2534W        W18151   6.412  10.971   3.482 -0.2783  0.0828 -0.2314
 2535W        W18152   4.904  12.668   2.926  0.1458  0.1269 -0.1115
 2536W        W18153  10.736  15.800  15.201  0.4076  0.0983 -0.1071
 2537W        W18154  13.429   2.683   4.370  0.2474 -0.1671 -0.1126
 2538W        W18155   5.817   1.062   0.687 -0.0497 -0.0450  0.2629
 2539W        W18156  13.246   4.483   3.966 -0.3163 -0.2191 -0.0040
 2540W        W18157  17.014  13.206   5.943 -0.3254 -0.1948 -0.1240
 2541W        W18158   5.627   2.664   2.746  0.0604  0.0233 -0.0986
 2542W        W18159  11.256   6.014   3.399 -0.0440  0.0278 -0.1960
 2543W        W18160   6.790   7.765  15.993  0.0322  0.0238 -0.2501
 2544W        W18161  12.307   7.672   5.580  0.3181 -0.1069  0.0808
 2545W        W18162  16.177   9.714  14.596  0.0119 -0.0330  0.1501
 2546W        W18163   6.994  14.435  16.655 -0.1642 -0.1260 -0.0079
 2547W        W18164   4.713  12.189   2.803 -0.2909 -0.1018  0.1974
 2548W        W18165   6.747  16.902   4.523 -0.4135 -0.0963 -0.1591
 2549W        W18166   6.658   9.348   3.595 -0.0805 -0.1258 -0.1736
 2550W        W18167   9.514  16.124   2.550  0.1841 -0.2148 -0.0787
 2551W        W18168  17.187   7.352  17.014 -0.1424  0.1537  0.1160
 2552W        W18169   5.348  13.097  12.548  0.2539 -0.0374 -0.2017
 2553W        W18170   0.177   3.723   5.288 -0.0273 -0.2193  0.0847
 2554W        W18171   5.373  16.737  11.738  0.6685 -0.0178  0.0825
 2555W        W18172  10.147  12.983   4.841 -0.0622 -0.0149  0.0327
 2556W        W18173   6.672   8.069  16.404  0.2312  0.0604  0.2116
 2557W        W18174   2.274   6.265   5.671  0.0110  0.1415 -0.0132
 2558W        W18175   3.387  11.461  12.043  0.1863  0.1038  0.0244
 2559W        W18176  10.296   6.680   4.937  0.1973  0.0384 -0.1241
 2560W        W18177  16.993  14.116   5.772 -0.2539 -0.2517 -0.0713
 2561W        W18178   8.666   4.945  13.869 -0.0935  0.2306  0.0562
 2562W        W18179   5.090   5.887   4.438  0.2502 -0.2086  0.2359
 2563W        W18180  15.178  15.997  11.398 -0.1065 -0.1677  0.2749
 2564W        W18181   1.701  15.406   3.239 -0.0282 -0.0211  0.2670
 2565W        W18182   3.925  11.419   1.170  0.2600  0.0216 -0.0544
 2566W        W18183  17.608  12.839  12.357 -0.0680  0.3660 -0.0258
 2567W        W18184   8.503  15.368  13.180 -0.2754  0.0129  0.1433
 2568W        W18185  17.504   8.499   5.279 -0.0596 -0.1373 -0.2638
 2569W        W18186  11.339  10.148   4.847  0.3962  0.1108  0.1034
 2570W        W18187  12.556   0.186  16.458 -0.1674  0.2972 -0.1216
 2571W        W18188   4.687  12.584  14.610 -0.0760 -0.2144  0.2208
 2572W        W18189  14.640   3.987  13.933 -0.1814  0.2128 -0.1429
 2573W        W18190  14.213   9.000   6.200  0.0039 -0.2727  0.2129
 2574W        W18191   5.802  16.881  14.565  0.0348 -0.0590 -0.3642
 2575W        W18192  11.130  16.055   5.278 -0.0795 -0.0219  0.2126
 2576W        W18193  10.592   0.236  12.833 -0.0597 -0.2293  0.1492
 2577W        W18194   1.027   5.069   4.688 -0.2773  0.0886  0.0346
 2578W        W18195   1.808   6.533   5.522  0.1900  0.1704 -0.2966
 2579W        W18196  12.053  13.975  14.001 -0.2311  0.0477 -0.4145
 2580W        W18197  15.560  16.206  16.828 -0.0295 -0.0799  0.1029
 2581W        W18198   1.003   8.213   1.844 -0.1649  0.0811  0.1319
 2582W        W18199   0.057   1.443  13.355  0.0628  0.0943  0.1336
 2583W        W18200   9.738  14.375   3.682  0.0789  0.1015  0.0903
 2584W        W18201  15.421   7.135  12.556  0.0917 -0.1606 -0.2521
 2585W        W18202   7.865  10.888  15.155 -0.2407  0.1331  0.0015
 2586W        W18203  14.254  13.734   4.246 -0.0696  0.1743 -0.0459
 2587W        W18204  14.980   8.209   0.609  0.0320 -0.1191 -0.3132
 2588W        W18205  14.313   9.681   5.314 -0.1136  0.0378 -0.1971
 2589W        W18206   7.404   1.945   0.612  0.1822 -0.1575 -0.0929
 2590W        W18207   1.440  13.312   3.069  0.1603  0.2004 -0.0069
 2591W        W18208   7.624  14.547  11.773  0.2544  0.0771  0.0456
 2592W        W18209  11.731  16.492   2.419  0.4284  0.5657 -0.1372
 2593W        W18210  16.430  14.830  15.406 -0.0700 -0.2079  0.0940
 2594W        W18211  14.671   8.807   3.484 -0.2262 -0.2540  0.3190
 2595W        W18212   3.662   2.537   3.949  0.2908 -0.1068 -0.0957
 2596W        W18213  16.584  14.240   1.783 -0.2091  0.0901 -0.0535
 2597W        W18214   4.340  13.241  15.207  0.0471 -0.3694  0.0609
 2598W        W18215  13.094  16.291  13.441 -0.1457  0.2441 -0.2016
 2599W        W18216   6.868  16.893  14.691 -0.0847 -0.2057  0.2122
 2600W        W18217  15.810  17.183   5.126 -0.0595 -0.3282 -0.1367
 2601W        W18218  13.985  15.114   1.159 -0.2667 -0.1972  0.0112
 2602W        W18219  16.843   2.089   0.057 -0.1566  0.1952  0.0972
 2603W        W18220   2.324  11.752  17.232 -0.3260 -0.4152  0.4015
 2604W        W18221   7.376   4.753  12.831 -0.0578  0.3061  0.0204
 2605W        W18222   0.726  12.524   4.909  0.2739  0.1178  0.0191
 2606W        W18223   7.599  15.443  15.988 -0.2887 -0.2395 -0.1049
 2607W        W18224   5.650  16.310  12.491 -0.0896  0.0144 -0.1398
 2608W        W18225  10.727   8.680   0.562  0.0794  0.2529 -0.1141
 2609W        W18226  16.806   3.844   3.250  0.0907  0.0733  0.1150
 2610W        W18227   4.300   1.018   4.201  0.2903 -0.0191  0.2309
 2611W        W18228   5.607  15.826   2.654  0.0554  0.0125  0.0218
 2612W        W18229  15.143  12.924   0.026  0.1950 -0.0746  0.1234
 2613W        W18230   4.084   0.813   2.228 -0.2846  0.2678 -0.1358
 2614W        W18231  11.351   0.842  15.222  0.1917 -0.2383  0.2532
 2615W        W18232   1.961  12.714  16.476  0.1091  0.2684  0.1059
 2616W        W18233  12.408   2.469   1.116 -0.2964 -0.2626  0.3163
 2617W        W18234  15.423   2.815  14.532  0.0422 -0.2206  0.2328
 2618W        W18235   3.963  14.166   4.600 -0.2092 -0.3447 -0.0357
 2619W        W18236  13.230   4.977  14.202 -0.1521 -0.1009 -0.2090
 2620W        W18237   1.592   9.602   3.911  0.1592  0.1066 -0.0407
 2621W        W18238   6.229  12.655  12.778  0.2478  0.0040 -0.0873
 2622W        W18239   4.153  11.138   3.539  0.0274 -0.1867 -0.0387
 2623W        W18240  10.285  15.865  16.121 -0.0872  0.0505 -0.1474
 2624W        W18241   5.549   0.932  13.375  0.0757  0.0744 -0.1810
 2625W        W18242   3.602   0.814  15.324 -0.1223  0.1101  0.0260
 2626W        W18243   0.379   7.665  16.794 -0.0895 -0.0317  0.0532
 2627W        W18244   4.043   6.397  12.899  0.1823  0.2909  0.0759
 2628W        W18245  16.772  12.395  15.357 -0.0379  0.1303  0.2127
 2629W        W18246   0.444   1.288  12.705  0.0304  0.3545 -0.0226
 2630W        W18247  15.038  12.245   5.659 -0.1926 -0.2135 -0.0910
 2631W        W18248   3.323  13.896  16.072 -0.1824  0.3226  0.0444
 2632W        W18249  14.069   0.989  14.580 -0.2365  0.1373 -0.2652
 2633W        W18250  11.906  16.115   4.257  0.0282  0.0398 -0.0782
 2634W        W18251  16.217   7.933  11.779 -0.3259  0.1065  0.1685
 2635W        W18252  12.573  12.762  13.427 -0.1660 -0.3646  0.0930
 2636W        W18253   2.514  14.886   0.457  0.1782 -0.1254  0.1054
 2637W        W18254   1.297   6.944   4.790 -0.0302 -0.0721 -0.0894
 2638W        W18255  15.148  11.034  16.448 -0.5230  0.1234 -0.4155
 2639W        W18256   7.209   8.608  14.403 -0.0929  0.1042  0.3141
 2640W        W18257  17.062   2.285  10.843  0.1620  0.1871 -0.1849
 2641W        W18258   8.062   3.727   6.466 -0.0739  0.0556  0.1679
 2642W        W18259  10.173   7.431   2.311 -0.1730  0.1637  0.2693
 2643W        W18260  15.824  10.477   4.670  0.0518 -0.3539 -0.1088
 2644W        W18261   2.804   2.690  12.252  0.1528  0.3891  0.0325
 2645W        W18262   8.648   1.427  11.267  0.0497 -0.1193  0.2565
 2646W        W18263  13.663  15.728  13.617  0.0120  0.1347  0.0746
 2647W        W18264   8.135   3.828  14.300  0.0474  0.2429 -0.0314
 2648W        W18265  11.801   7.563  14.623 -0.0270  0.0579  0.2479
 2649W        W18266   6.934   8.956   4.089 -0.1591 -0.0140  0.1555
 2650W        W18267   5.334  16.992  13.001  0.0065  0.2792  0.2649
 2651W        W18268   1.105  15.499  15.535  0.0362  0.0274 -0.0883
 2652W        W18269  11.867   9.389   4.982  0.0159 -0.2466  0.3161
 2653W        W18270   8.961   2.246   1.522 -0.2225  0.1047  0.0539
 2654W        W18271   8.980  15.367   0.123  0.0280  0.0929 -0.1769
 2655W        W18272   0.629   3.293   1.714 -0.0940 -0.2154  0.0216
 2656W        W18273   8.757  12.033  12.255  0.1854 -0.0265  0.0029
 2657W        W18274  16.826  13.977  15.743  0.2726  0.2095 -0.0062
 2658W        W18275   6.310   7.303   5.246  0.1591  0.0013  0.0349
 2659W        W18276  13.078   6.170  13.151  0.1614 -0.0724  0.2717
 2660W        W18277   4.672   8.192  14.599 -0.1228 -0.4786  0.0513
 2661W        W18278   4.451  14.562  16.867  0.2901  0.2550 -0.4062
 2662W        W18279   2.641  10.456  16.011 -0.0953 -0.0838 -0.0416
 2663W        W18280   8.232   7.700  14.260 -0.0835  0.2042 -0.1030
 2664W        W18281   0.924   3.639   0.038  0.2043 -0.0300 -0.1959
 2665W        W18282   8.410   6.446   0.666  0.0692 -0.1311  0.1763
 2666W        W18283   8.518   0.694  15.063  0.2760  0.1735  0.2954
 2667W        W18284   0.194  10.712   4.476  0.2583  0.1455  0.0574
 2668W        W18285   0.929   9.236  15.004  0.0003  0.1425 -0.1760
 2669W        W18286   2.132   4.357  16.058 -0.5577  0.1883  0.2263
 2670W        W18287   1.724   2.275  15.252  0.0799  0.1589 -0.0538
 2671W        W18288   1.897   8.421  13.357 -0.3973 -0.0479 -0.1290
 2672W        W18289   2.061  17.000  16.833 -0.1051 -0.1798 -0.1019
 2673W        W18290   4.969   9.439   3.341 -0.2921  0.0025 -0.0661
 2674W        W18291   2.785   9.169  16.264 -0.4404 -0.0552 -0.0212
 2675W        W18292   1.361   0.732   6.230  0.2348 -0.1322  0.0745
 2676W        W18293  10.637  16.550   0.254  0.1458  0.0369  0.2745
 2677W        W18294  12.825   4.544   5.433 -0.2552 -0.0661 -0.2183
 2678W        W18295  15.828   9.765   0.700  0.4256 -0.2280 -0.0887
 2679W        W18296   0.731   0.243  13.419  0.1135  0.0938  0.0611
 2680W        W18297   5.410   7.427  13.463 -0.3752  0.2164  0.0506
 2681W        W18298  11.333  16.929  11.642 -0.4329 -0.3873  0.1981
 2682W        W18299   4.225   0.776  13.488  0.1631 -0.1225  0.2021
 2683W        W18300   5.627   3.346  16.880  0.2093 -0.1177  0.0138
 2684W        W18301  12.661  11.961  12.572  0.1061  0.1498 -0.1595
 2685W        W18302  14.415   7.371   0.523  0.1172 -0.1623  0.1716
 2686W        W18303  16.183  15.931   3.240 -0.1517 -0.0760 -0.0304
 2687W        W18304  13.428   9.439  12.599 -0.1257 -0.2536 -0.0007
 2688W        W18305   7.529  11.239  16.289  0.1511 -0.0219 -0.0492
 2689W        W18306   0.412   8.266  14.624 -0.2621 -0.2521 -0.3134
 2690W        W18307   8.247   1.764   5.797 -0.1368  0.1714 -0.0337
 2691W        W18308   6.195  10.470   1.265  0.0213  0.3552 -0.0219
 2692W        W18309   4.411  15.881  15.246 -0.2964 -0.1616  0.2554
 2693W        W18310   1.032  17.048  12.539  0.0412  0.1399 -0.0161
 2694W        W18311  16.689   6.255   2.942  0.0075  0.0878  0.2374
 2695W        W18312  17.036   2.927  14.172 -0.0037  0.2805 -0.0444
 2696W        W18313   4.565   1.291  11.658  0.0591  0.1130  0.1927
 2697W        W18314  11.103  16.639   4.064 -0.0704  0.2704 -0.1773
 2698W        W18315   5.108   5.136   6.452  0.1795 -0.0018 -0.2946
 2699W        W18316   6.818   4.495   1.092  0.1409  0.0517 -0.2097
 2700W        W18317  14.140   6.191  12.754  0.0217 -0.2829 -0.0965
 2701W        W18318   1.156  16.831   1.926 -0.1579 -0.1996 -0.0295
 2702W        W18319   6.421  14.437  11.533 -0.1056  0.2420 -0.1111
 2703W        W18320   7.976   8.307  15.599 -0.0687 -0.0919  0.1600
 2704W        W18321   1.704   2.888  13.920 -0.0099 -0.2707  0.2082
 2705W        W18322  16.400   7.637  14.590  0.0167 -0.1921  0.1423
 2706W        W18323   4.667   4.640  12.482 -0.2277  0.0712  0.2432
 2707W        W18324   6.223  14.218  16.491 -0.0404 -0.0795 -0.0522
 2708W        W18325   2.972   9.131   1.319  0.1163 -0.0072  0.0168
 2709W        W18326   5.925  10.518  12.588  0.3389 -0.1211 -0.0961
 2710W        W18327   9.755   7.471   3.204 -0.1558 -0.2632 -0.3204
 2711W        W18328  11.928   9.339  12.163  0.1286  0.0901  0.2130
 2712W        W18329  14.156   7.530  12.769  0.5560 -0.1003 -0.1689
 2713W        W18330   4.203   3.065   1.102 -0.0267  0.3048 -0.1071
 2714W        W18331   2.698   1.889   3.849 -0.2366 -0.0191  0.2468
 2715W        W18332   4.804  13.367  13.971 -0.1201  0.1626  0.0454
 2716W        W18333  11.922   9.910   3.284 -0.0444  0.0115  0.3423
 2717W        W18334   0.535   9.437   0.581  0.2176 -0.0007 -0.1540
 2718W        W18335  12.641   0.507   5.424 -0.4044  0.2140 -0.0761
 2719W        W18336  17.441   9.677   2.646  0.2165  0.3372 -0.1418
 2720W        W18337   0.815   2.309   1.896  0.1366 -0.1885  0.0454
 2721W        W18338  12.554  14.568   6.270  0.1067 -0.0052  0.0458
 2722W        W18339  11.784  14.197   3.331 -0.0871 -0.0468  0.0573
 2723W        W18340   2.232  13.594   1.370  0.2435  0.2068  0.0907
 2724W        W18341   1.800  12.021  13.825 -0.2979 -0.2314  0.1378
 2725W        W18342   3.547   3.164   1.565 -0.0466 -0.1319 -0.0786
 2726W        W18343  10.776   8.646   1.097  0.1496 -0.1008 -0.2891
 2727W        W18344  16.904  15.665  15.683  0.0362 -0.3185 -0.4649
 2728W        W18345   7.178   2.288   1.073  0.0115 -0.0367  0.0553
 2729W        W18346  12.416   0.609  17.275  0.4032  0.0224 -0.0624
 2730W        W18347  15.454   0.530   0.397  0.4061  0.3350 -0.0531
 2731W        W18348  17.159   6.765   2.169 -0.0556 -0.2874  0.1279
 2732W        W18349  12.499   1.305  14.462  0.2084 -0.2213  0.0895
 2733W        W18350   7.547   2.173   2.397 -0.2425 -0.0366 -0.1029
 2734W        W18351  10.417  11.185   3.611 -0.0301  0.1494 -0.0246
 2735W        W18352  15.264   4.296  13.513 -0.0332  0.1835  0.0765
 2736W        W18353   3.226   7.023  16.049  0.0436 -0.1717 -0.1998
 2737W        W18354   8.027  10.938   5.991 -0.1736  0.0312  0.1829
 2738W        W18355   1.708   7.665   2.299 -0.0361 -0.0276 -0.2629
 2739W        W18356   1.057  12.334  15.769  0.3744 -0.0228 -0.0332
 2740W        W18357  16.391  11.651  15.754 -0.2066 -0.0099 -0.2033
 2741W        W18358   1.540   4.851   5.724  0.1847 -0.0176  0.3239
 2742W        W18359  15.716  15.922  14.137 -0.1391  0.1819  0.3159
 2743W        W18360  10.354   9.627   6.625  0.0769  0.1779 -0.1009
 2744W        W18361  15.930  15.030   4.926  0.2236  0.1941 -0.1783
 2745W        W18362   4.948   8.130  13.780  0.0591 -0.3406  0.0965
 2746W        W18363   4.330   7.676   4.228 -0.4173  0.0437 -0.2440
 2747W        W18364   2.912  12.725   5.702 -0.2838  0.1033 -0.3022
 2748W        W18365   4.368   1.839  14.136 -0.0263 -0.3374 -0.0635
 2749W        W18366   7.365   3.177   6.424  0.2156 -0.0672 -0.2926
 2750W        W18367  13.153   6.671  12.082  0.1683 -0.0625  0.0273
 2751W        W18368   3.872  12.127  15.062  0.0950  0.1051 -0.2124
 2752W        W18369  14.115  14.173   1.005  0.0511  0.1317  0.1787
 2753W        W18370   5.253  13.672   2.277 -0.0401 -0.2290 -0.1152
 2754W        W18371   4.802   9.087  15.146 -0.2865 -0.1816 -0.1588
 2755W        W18372  11.260  11.545   1.816 -0.0660 -0.1763 -0.1550
 2756W        W18373  12.527   0.785  10.707  0.0601 -0.4525  0.3463
 2757W        W18374   4.176   3.976   1.605  0.0401 -0.2820 -0.2267
 2758W        W18375   2.397  16.862  12.326 -0.2131 -0.1288  0.1427
 2759W        W18376   8.617   0.750   2.383 -0.3088  0.2525  0.2589
 2760W        W18377  10.507   0.083   1.925  0.0704  0.0448 -0.0160
 2761W        W18378  13.716  11.483   2.391  0.0219  0.0034  0.1314
 2762W        W18379  14.371   0.687   0.108  0.2179 -0.0535 -0.3070
 2763W        W18380   3.632   6.916  13.426  0.2164 -0.0355 -0.0197
 2764W        W18381  10.380  13.101   4.371 -0.0070  0.0691  0.0506
 2765W        W18382  17.396   3.202  11.675 -0.1666 -0.4847  0.0842
 2766W        W18383   7.087  12.084  15.873 -0.0021 -0.2268  0.1233
 2767W        W18384   7.443  17.485   5.155 -0.1932 -0.1111 -0.2053
 2768W        W18385   9.261   3.451   2.195  0.0747 -0.0175  0.2668
 2769W        W18386   5.201   9.597  13.365 -0.1715  0.2959  0.0302
 2770W        W18387  13.915   9.435  12.829 -0.0551  0.1505 -0.1027
 2771W        W18388  12.844   0.910  11.569  0.1000  0.1634 -0.0084
 2772W        W18389   3.704   9.845  13.155  0.2360  0.2293  0.0187
 2773W        W18390  16.757  15.152   5.322 -0.0705 -0.0012 -0.0310
 2774W        W18391   3.283  15.366   2.062  0.1653  0.1866 -0.1136
 2775W        W18392   5.350   1.523  15.563  0.0363 -0.0887  0.0149
 2776W        W18393  10.395   6.645  16.321  0.1698 -0.0871  0.1063
 2777W        W18394   0.309   6.587  13.416  0.2846  0.2534  0.0080
 2778W        W18395  13.215  11.384   5.814 -0.0672  0.2302 -0.0575
 2779W        W18396   8.294  13.390   0.562  0.0350 -0.0680  0.1187
 2780W        W18397   3.039  12.139   2.131  0.0095 -0.1711  0.1848
 2781W        W18398   0.434  11.735  13.348  0.2855  0.1895  0.0013
 2782W        W18399   4.484   2.127  15.926  0.0421  0.0095  0.0709
 2783W        W18400   4.920  16.611  14.977  0.1013  0.1604 -0.0152
 2784W        W18401   4.274   9.633   2.594  0.0204  0.2956  0.1594
 2785W        W18402  11.135   4.940   3.156 -0.3088 -0.2304 -0.0497
 2786W        W18403  10.837   3.297  15.613  0.0938 -0.2923  0.0447
 2787W        W18404  11.054  12.269  14.330  0.0358  0.2618  0.0681
 2788W        W18405  13.785  14.351   1.387 -0.1587 -0.1607 -0.0475
 2789W        W18406   2.332  13.785  13.267 -0.0182 -0.0011 -0.1475
 2790W        W18407  15.329  17.232  16.974 -0.0099  0.0921  0.2746
 2791W        W18408   6.873   6.284   2.018  0.2013  0.1421  0.0470
 2792W        W18409   0.443   0.637   2.012 -0.1693  0.0112 -0.0500
 2793W        W18410   1.399   4.630  13.683 -0.0506 -0.2930 -0.0249
 2794W        W18411   1.105  11.952   1.380  0.3477 -0.0325 -0.0286
 2795W        W18412   1.396   2.147   5.280  0.0328  0.0321 -0.0965
 2796W        W18413   6.332   1.622  12.255  0.4076  0.3786 -0.2467
 2797W        W18414  11.686   0.155   0.908  0.1074 -0.1051  0.3144
 2798W        W18415   4.055  16.644  15.482  0.0249 -0.0849  0.0627
 2799W        W18416   7.342   6.380   5.592  0.1982 -0.0793  0.0104
 2800W        W18417  10.762  10.913  13.705 -0.0480  0.2142  0.2415
 2801W        W18418   7.386   5.210  12.112  0.2782 -0.0272  0.2305
 2802W        W18419   5.732   6.330  12.323 -0.3596  0.2304  0.3937
 2803W        W18420   3.034  12.657   0.846  0.0511 -0.2174 -0.0676
 2804W        W18421   0.891  16.823  13.614 -0.0190  0.4128  0.3516
 2805W        W18422  10.406  17.451   0.804  0.0129  0.2073 -0.0021
 2806W        W18423  15.534   4.043   0.668 -0.0543 -0.2244 -0.1759
 2807W        W18424  13.612   0.625   1.561  0.0517  0.0647  0.2221
 2808W        W18425   2.363   5.693   2.460  0.1517 -0.0270 -0.1490
 2809W        W18426  10.891   0.666  13.096  0.2276 -0.0891  0.0628
 2810W        W18427  10.867   7.376  12.040 -0.4656  0.0285  0.2400
 2811W        W18428  11.558  16.482  17.029 -0.0566 -0.1753 -0.0908
 2812W        W18429  17.491   1.077   4.605 -0.0694 -0.1242  0.2294
 2813W        W18430   6.296   5.199   4.832  0.0410  0.0399  0.0083
 2814W        W18431   9.927  12.895   1.037  0.1910 -0.0487  0.5293
 2815W        W18432  16.215   4.207  12.567  0.0497 -0.0548 -0.0316
 2816W        W18433   1.295  15.255   0.548  0.0357 -0.0051 -0.2279
 2817W        W18434   8.048   1.833  12.600 -0.0444  0.1198  0.1539
 2818W        W18435   8.077   4.782  13.237 -0.2532 -0.1138  0.0800
 2819W        W18436   9.980  17.423  12.730 -0.0232 -0.0243  0.0670
 2820W        W18437   8.722  10.270   3.908  0.2654 -0.0786  0.4901
 2821W        W18438   5.078  17.158  11.822 -0.4072 -0.1741 -0.0297
 2822W        W18439   1.357   6.443   4.111  0.1918 -0.2257 -0.0365
 2823W        W18440  17.362   3.149   0.197 -0.1910  0.1818  0.1898
 2824W        W18441   6.730  12.344   0.161 -0.3972  0.1069  0.1581
 2825W        W18442   8.389  13.522  11.213 -0.0481 -0.1941  0.4439
 2826W        W18443  15.502  11.079   0.525 -0.1115 -0.1280 -0.3360
 2827W        W18444  15.347   9.752   5.182 -0.3658 -0.0391 -0.0677
 2828W        W18445  16.102   3.176  16.797 -0.1181 -0.1124  0.2815
 2829W        W18446   2.422   3.161   4.260 -0.4026 -0.3210 -0.0196
 2830W        W18447   7.393  11.465   3.599 -0.0350 -0.1629 -0.0894
 2831W        W18448   8.729   6.922   4.271  0.1598 -0.3771 -0.0946
 2832W        W18449   4.464   1.169   1.482  0.0549 -0.0609  0.1978
 2833W        W18450  11.512   9.131   4.697 -0.3050  0.1306 -0.2020
 2834W        W18451  10.635   3.362   4.384  0.1859  0.2785  0.1438
 2835W        W18452  15.687  10.717   1.907 -0.1776 -0.1368 -0.0403
 2836W        W18453   4.591   4.053   5.292  0.2382  0.0398  0.3777
 2837W        W18454  12.210  10.184   2.510 -0.3744  0.2519 -0.1487
 2838W        W18455  14.633  12.057   5.113 -0.2866  0.0759 -0.0246
 2839W        W18456   3.299  16.908   1.776  0.1643  0.0956 -0.2266
 2840W        W18457  10.790   4.080   2.427 -0.2260  0.2008 -0.0920
 2841W        W18458   7.018   2.966  12.411  0.1399 -0.2133 -0.1157
 2842W        W18459   7.619   6.545  13.494 -0.1969  0.1343 -0.2602
 2843W        W18460   9.771  12.200   2.753 -0.0346  0.1248 -0.2797
 2844W        W18461   8.768   7.526   1.388  0.5267  0.0586 -0.2147
 2845W        W18462   2.525   1.362  16.835 -0.1623 -0.1237 -0.2933
 2846W        W18463   8.194  16.340  11.554 -0.0423 -0.0241 -0.0314
 2847W        W18464   4.802   9.860  15.592 -0.1590  0.0361 -0.0945
 2848W        W18465  12.940   2.292  11.635 -0.1750 -0.0489  0.2105
 2849W        W18466   2.115   7.752   2.641 -0.0254  0.1762  0.0105
 2850W        W18467  12.428   4.617  14.337  0.1962 -0.1801 -0.0795
 2851W        W18468  12.877   2.471  14.415 -0.1656  0.5978  0.2200
 2852W        W18469  10.175  10.203  13.644  0.0342 -0.1337  0.1853
 2853W        W18470  14.639   9.310   2.377 -0.3546  0.0370  0.0101
 2854W        W18471  17.277  14.785  14.716 -0.0487  0.1847  0.0290
 2855W        W18472   3.424   4.965   4.978 -0.2636  0.0368 -0.0903
 2856W        W18473   5.057   4.414   2.061 -0.1230 -0.3608 -0.2956
 2857W        W18474   3.644   3.360  15.313 -0.0766 -0.0769 -0.0956
 2858W        W18475   6.248   5.731   4.450 -0.2646 -0.1279 -0.1039
 2859W        W18476  13.747  12.730   0.452 -0.1999  0.0460  0.0878
 2860W        W18477  13.033  10.843  16.106  0.1303 -0.0778 -0.0759
 2861W        W18478  15.976  15.400  16.924  0.1618 -0.0131 -0.0189
 2862W        W18479  17.220  15.894   1.022 -0.2481  0.0040  0.1049
 2863W        W18480  11.797   8.302  16.335  0.2096  0.3158 -0.0275
 2864W        W18481   5.168   4.658   3.395 -0.1306 -0.1716  0.1022
 2865W        W18482  10.436   7.654   5.008  0.2596 -0.5382 -0.2141
 2866W        W18483   3.762  14.704   5.072 -0.1890  0.2545 -0.0300
 2867W        W18484  13.068   5.337  12.173  0.0736  0.0186  0.0459
 2868W        W18485  10.330   2.952   3.505 -0.1073 -0.2381 -0.0311
 2869W        W18486   1.395  12.819   3.796 -0.2552 -0.0726  0.0534
 2870W        W18487  10.576  15.645   5.362 -0.0373  0.0261  0.0151
 2871W        W18488   7.740   9.478  11.989 -0.2690  0.0783  0.0579
 2872W        W18489   8.670   9.941   0.089  0.0529  0.0741 -0.0259
 2873W        W18490  12.974   9.131   2.900 -0.0512 -0.2568  0.1994
 2874W        W18491  11.287   3.768   2.196 -0.3278  0.3478 -0.0885
 2875W        W18492  12.982   4.240  16.926 -0.1714 -0.2798  0.0351
 2876W        W18493  16.239  13.211   1.827 -0.0938  0.0308 -0.1188
 2877W        W18494  15.104   1.823  15.311  0.0330  0.0795 -0.1233
 2878W        W18495   5.590   9.884   5.089  0.0594 -0.0712 -0.1100
 2879W        W18496   9.032  15.107   4.605 -0.0419 -0.0699 -0.0630
 2880W        W18497   9.638  14.017  16.225 -0.3082 -0.0244 -0.0624
 2881W        W18498   1.446  13.838  12.704 -0.1367 -0.0421  0.0276
 2882W        W18499  12.664   8.056   3.343  0.2008  0.1547 -0.3530
 2883W        W18500   6.027   9.346   5.163  0.3081  0.0975  0.2637
 2884W        W18501  14.998  11.231   0.401 -0.2287  0.0746 -0.0088
 2885W        W18502  13.419  12.108   2.127  0.0014 -0.2849  0.0562
 2886W        W18503  11.566  15.552   3.360  0.0067  0.1401 -0.2204
 2887W        W18504  15.692   1.807   3.202 -0.0295 -0.2268  0.1454
 2888W        W18505  16.649  12.900   0.462 -0.1675  0.1509  0.2679
 2889W        W18506  14.881   4.922  13.914  0.0142 -0.2469  0.1485
 2890W        W18507  12.544   6.547  13.885 -0.0987 -0.2096  0.0999
 2891W        W18508   1.765   8.914  14.808  0.0574  0.2402  0.0693
 2892W        W18509  16.002  13.340  14.506  0.0801 -0.3368  0.0956
 2893W        W18510   6.603  12.217  16.967  0.0504  0.0292 -0.3396
 2894W        W18511   8.648   5.843   5.501 -0.0463  0.2276  0.1085
 2895W        W18512   9.276   9.196   1.997  0.0119  0.1307 -0.2132
 2896W        W18513  12.031   7.031  13.117 -0.0887 -0.3854 -0.0404
 2897W        W18514   6.813  12.280   5.211  0.1265  0.0311  0.0875
 2898W        W18515   6.156  10.101  12.629 -0.2208 -0.1488 -0.2171
 2899W        W18516  11.357   2.381  13.687  0.2104 -0.1146 -0.0235
 2900W        W18517  12.958   5.368  14.230  0.2366 -0.2996 -0.1961
 2901W        W18518   5.910  15.033   0.574  0.0668 -0.1702  0.3180
 2902W        W18519  11.156  11.039   5.309  0.0526 -0.0386 -0.2559
 2903W        W18520   4.898   6.392   1.852  0.0240 -0.0357  0.0909
 2904W        W18521  13.468  16.145   2.210  0.3080 -0.3921 -0.1346
 2905W        W18522   7.064   7.857  13.673  0.0311  0.3063  0.1543
 2906W        W18523   1.831   7.958   5.542  0.1779 -0.1123  0.0135
 2907W        W18524  14.614   2.163  12.502 -0.1911  0.1191  0.0601
 2908W        W18525   2.111  16.188   5.799 -0.3033  0.2199 -0.1376
 2909W        W18526   8.403  16.882  15.781 -0.3094 -0.1641  0.3249
 2910W        W18527   6.489   4.309  12.753  0.0849 -0.2935  0.1324
 2911W        W18528  11.942  12.386   2.724 -0.0012  0.3931  0.4400
 2912W        W18529   0.427   0.079   4.441  0.0777  0.2816 -0.0134
 2913W        W18530  17.318  16.140   3.885 -0.0231 -0.0125  0.1713
 2914W        W18531   3.639   2.796  13.617  0.0294 -0.1030  0.0004
 2915W        W18532  13.057  12.369   1.840  0.1011  0.1679 -0.1799
 2916W        W18533   7.627  14.941  14.491  0.0773 -0.1723  0.2551
 2917W        W18534  11.280  11.986  11.896  0.1042 -0.0971  0.2470
 2918W        W18535   5.146   9.234   4.782 -0.1126  0.4165 -0.0340
 2919W        W18536  10.501   2.283  16.704  0.0008 -0.0647 -0.2349
 2920W        W18537  11.343  17.101   4.139  0.0945 -0.0198 -0.3322
 2921W        W18538   0.173   5.325  17.143 -0.0325  0.1087 -0.0823
 2922W        W18539  12.368   6.099   0.390  0.2502  0.1814 -0.1172
 2923W        W18540   1.429   3.767   4.246  0.2860  0.0112  0.1411
 2924W        W18541   8.628  11.332   5.276 -0.1358 -0.0431  0.1111
 2925W        W18542   3.785  17.511   1.359 -0.0741  0.2859  0.1662
 2926W        W18543   8.615  10.492  13.136 -0.0010  0.3627 -0.0550
 2927W        W18544   5.782  14.645  12.667 -0.2848 -0.0105  0.1258
 2928W        W18545   8.075   0.510  16.292 -0.0041  0.0602 -0.1446
 2929W        W18546   3.471   1.292   0.697 -0.4041  0.0982 -0.0128
 2930W        W18547   6.040  16.595  12.629  0.1480 -0.3459  0.0938
 2931W        W18548  11.586  14.539  11.033  0.1510  0.0384  0.1689
 2932W        W18549  11.347  10.825   2.301  0.4410  0.1184  0.3981
 2933W        W18550   6.722   0.177   1.366 -0.1650  0.0788 -0.0523
 2934W        W18551  12.862  13.400   2.066  0.2849  0.1158 -0.1094
 2935W        W18552  17.521  14.081  14.973  0.1440  0.2757 -0.0450
 2936W        W18553  17.564  12.144   2.831  0.0226  0.2087 -0.1093
 2937W        W18554  17.515   8.118  16.501  0.0377 -0.0468  0.3916
 2938W        W18555   9.311   6.127  15.477 -0.1959 -0.2300 -0.2906
 2939W        W18556   7.280  11.442  13.806 -0.0523 -0.2295 -0.2720
 2940W        W18557   5.234  12.132   6.488  0.0434  0.0948  0.1908
 2941W        W18558   3.011   0.547  13.847 -0.0882 -0.2389 -0.4430
 2942W        W18559   7.615  12.621   6.033 -0.2271 -0.2724  0.0225
 2943W        W18560   2.761   2.391   3.987  0.2777 -0.1492 -0.1833
 2944W        W18561  13.487   3.106   0.231 -0.4296 -0.1943  0.0022
 2945W        W18562   6.645  14.229  11.939 -0.1325 -0.1450  0.1589
 2946W        W18563   6.640   2.639  16.455 -0.3106 -0.1054  0.3009
 2947W        W18564  14.915  14.428   1.722  0.0573  0.2018 -0.0072
 2948W        W18565   6.033  13.000   3.007 -0.1692  0.1004 -0.0190
 2949W        W18566   2.673  10.426   6.572  0.0827  0.2654  0.0883
 2950W        W18567  16.373   5.841  14.292  0.1967  0.1575 -0.1284
 2951W        W18568   8.524  16.107  12.806 -0.1618  0.0730 -0.1565
 2952W        W18569   1.005  15.278   2.515 -0.0135 -0.0503  0.1572
 2953W        W18570  10.850  11.247  16.216 -0.2894 -0.2807 -0.3181
 2954W        W18571  16.818  13.395   0.156  0.0009  0.0217 -0.2301
 2955W        W18572   2.942   3.325   3.954  0.0281 -0.2280  0.0605
 2956W        W18573   8.110   4.536   4.170  0.1641 -0.1000 -0.2044
 2957W        W18574  12.457  13.448   4.325 -0.1259 -0.2498  0.1366
 2958W        W18575   2.229   3.179   5.498 -0.0213 -0.0486 -0.0210
 2959W        W18576   5.353   0.990   4.907  0.0337  0.0228  0.0796
 2960W        W18577  10.328  15.914  16.940 -0.1269  0.1678 -0.1739
 2961W        W18578  13.382   7.061   1.480 -0.1878  0.0408 -0.1002
 2962W        W18579  13.250  15.466  14.872 -0.1075  0.1502 -0.1485
 2963W        W18580   8.682   4.803  16.572  0.3132 -0.1489  0.0397
 2964W        W18581  17.191  17.080  14.040  0.0448  0.0313  0.0725
 2965W        W18582  10.869  16.924   4.929  0.0437 -0.4120 -0.1268
 2966W        W18583  10.294  12.903   0.688  0.1316  0.2553 -0.0250
 2967W        W18584  12.384  16.044  17.001 -0.0965 -0.0176  0.0881
 2968W        W18585  13.947  11.803   0.720  0.0368  0.2541  0.3429
 2969W        W18586   3.204  15.051  15.462  0.0482  0.1370  0.1011
 2970W        W18587   8.117  17.507   1.316 -0.3019  0.0017  0.0044
 2971W        W18588   5.412   2.046  13.832 -0.4428  0.0049 -0.0631
 2972W        W18589  14.410  12.551  15.754 -0.0468 -0.0860  0.2214
 2973W        W18590   9.627  17.385  12.097 -0.1997 -0.1022 -0.1831
 2974W        W18591  10.884  12.617  16.187  0.1037  0.1827 -0.0459
 2975W        W18592  14.298  15.660  11.708 -0.0920  0.1512 -0.1849
 2976W        W18593   3.169  16.569   3.246 -0.1362 -0.1312  0.1160
 2977W        W18594   2.414  17.467   3.599 -0.0149 -0.1309 -0.0238
 2978W        W18595  15.198   2.589   3.153  0.2112 -0.0596 -0.0013
 2979W        W18596  12.587   0.078  15.917 -0.1263 -0.0641  0.0794
 2980W        W18597   8.106   7.772   5.536  0.1441  0.1553 -0.0682
 2981W        W18598   7.880   1.235   3.775 -0.1101 -0.0862  0.1638
 2982W        W18599  14.793   2.182   0.578 -0.0358 -0.3296 -0.1903
 2983W        W18600   0.610  16.811   1.866 -0.1385 -0.2622 -0.0582
 2984W        W18601   1.566  17.444  12.703 -0.1990  0.2566 -0.2062
 2985W        W18602   1.333  17.276  12.171  0.2204  0.2412 -0.2778
 2986W        W18603  14.627   1.259   3.176  0.4288 -0.0310 -0.0499
 2987W        W18604  11.698   6.443   5.199 -0.1054 -0.0676  0.0939
 2988W        W18605  15.898   8.681   4.716 -0.2052  0.0273  0.0045
 2989W        W18606  11.232  17.505  14.492 -0.2085  0.0315 -0.0373
 2990W        W18607   0.006   5.225  13.828 -0.0571 -0.3238 -0.0284
 2991W        W18608   6.876   9.692   1.464 -0.1479 -0.1370  0.0318
 2992W        W18609  15.919   0.448   0.791  0.1642  0.1149  0.0731
 2993W        W18610   8.073  10.253   0.940 -0.1643 -0.0134 -0.1849
 2994W        W18611   5.907   6.832   6.822  0.0954  0.1230  0.1082
 2995W        W18612   1.408  16.427  13.006  0.0526  0.1814 -0.0059
 2996W        W18613  10.877   7.893   2.619 -0.1695  0.0485 -0.0633
 2997W        W18614  13.051   4.132   5.358 -0.0638  0.0186  0.1024
 2998W        W18615  11.511   0.619   0.096 -0.1115  0.0031  0.4227
 2999W        W18616  16.556   8.383  13.275 -0.2450 -0.0678 -0.0230
 3000W        W18617   6.237   3.668   0.116  0.0464  0.0565 -0.1120
 3001W        W18618   7.513   0.559   3.105 -0.1395 -0.4010  0.0240
 3002W        W18619   3.984  15.317   5.512  0.4255  0.0539  0.1002
 3003W        W18620   8.211   2.432  12.544  0.1825 -0.2144 -0.3958
 3004W        W18621   9.942   0.375  15.480  0.0406  0.0800 -0.3404
 3005W        W18622   0.096  12.154   3.587 -0.0779 -0.0351  0.1084
 3006W        W18623  13.203  10.052  14.939  0.1164  0.0219 -0.0517
 3007W        W18624   2.804  16.576  12.395 -0.4306 -0.0707 -0.0968
 3008W        W18625  10.962   7.658   6.582  0.1481 -0.1414 -0.2577
 3009W        W18626   1.989   7.374  12.624 -0.1165 -0.0550  0.0765
 3010W        W18627  16.431   0.116   1.140  0.0488  0.1167  0.4720
 3011W        W18628  12.229   2.769   5.959  0.0532 -0.0335 -0.0594
 3012W        W18629   2.262  13.991  13.714 -0.0036 -0.1970  0.0468
 3013W        W18630   9.144  14.366  14.007  0.0552  0.1977  0.1632
 3014W        W18631  10.250   4.390  14.073 -0.1786  0.0491 -0.3443
 3015W        W18632  13.586   4.934  13.869 -0.0363  0.1005  0.0879
 3016W        W18633  16.676   4.704   1.333  0.3889  0.0444 -0.2432
 3017W        W18634  14.310   3.575  15.633 -0.0254  0.3960 -0.1629
 3018W        W18635   3.207   5.597   2.427  0.1649  0.0689 -0.2714
 3019W        W18636   4.155   8.717   2.560 -0.0147  0.2536 -0.1999
 3020W        W18637   2.973  11.782   2.555 -0.2078  0.0023 -0.2563
 3021W        W18638   0.756  13.075  12.863  0.1613 -0.0573 -0.1935
 3022W        W18639  10.297   8.801   1.967  0.2329 -0.0830 -0.0915
 3023W        W18640   5.152   1.895  15.239  0.0476 -0.0179  0.2857
 3024W        W18641   0.658   6.990  12.827 -0.0097  0.2968 -0.2942
 3025W        W18642   3.455   4.893  13.102  0.1299  0.2263 -0.3443
 3026W        W18643  16.114   2.101  14.807  0.1247  0.1265  0.1405
 3027W        W18644   2.326  15.855  12.701  0.1330  0.0132  0.0180
 3028W        W18645   5.308   8.880   0.658 -0.0368  0.2357  0.1951
 3029W        W18646   7.213   7.223  12.370 -0.2475 -0.3464  0.1410
 3030W        W18647   3.508  17.221  12.158  0.4552 -0.0070 -0.1501
 3031W        W18648  14.680  12.982  14.752  0.0090 -0.1243  0.4748
 3032W        W18649  16.482  16.643   4.693 -0.0304 -0.0114  0.3208
 3033W        W18650  12.693  16.956  12.023 -0.0990 -0.1013 -0.3071
 3034W        W18651   0.179   4.342  16.133  0.3389 -0.1652  0.0508
 3035W        W18652   6.620  15.754   4.530 -0.2299  0.0055 -0.0625
 3036W        W18653   3.668   6.695  16.324 -0.0533  0.0653 -0.2609
 3037W        W18654  17.293   2.706   4.584 -0.1116  0.1882 -0.3189
 3038W        W18655  14.602   1.835  17.066 -0.3496 -0.1673 -0.3108
 3039W        W18656   0.707   2.858   6.479  0.0279  0.0089 -0.1364
 3040W        W18657  12.206  15.250  14.893 -0.1625  0.2330 -0.1476
 3041W        W18658  16.993  17.376   1.548 -0.3146 -0.0349  0.1297
 3042W        W18659  14.020  15.464  16.763  0.0974  0.1550 -0.1436
 3043W        W18660   7.188  11.085   3.924 -0.1907 -0.3010  0.0689
 3044W        W18661   0.299   1.088   2.377 -0.0871  0.0366  0.1066
 3045W        W18662  11.802   3.137   3.758 -0.0542  0.1415 -0.1480
 3046W        W18663  15.221   9.035  13.965  0.0470  0.2163 -0.1988
 3047W        W18664  15.865   0.239   5.892  0.1874  0.2079  0.0465
 3048W        W18665   7.343   2.529  12.788 -0.1017 -0.1038  0.3408
 3049W        W18666   4.511  16.254  16.351 -0.1400  0.0875  0.0556
 3050W        W18667  16.353  12.348  16.305  0.1203 -0.0806  0.1586
 3051W        W18668  16.210  10.510   3.757 -0.0303 -0.1035  0.0876
 3052W        W18669   8.359  12.632  11.532  0.2403 -0.0656 -0.2305
 3053W        W18670  11.819   2.005  17.111  0.1917  0.0733 -0.0295
 3054W        W18671   4.639  10.143   2.162  0.3266 -0.0530 -0.1808
 3055W        W18672   2.208  17.200  15.293 -0.2090 -0.1233 -0.1016
 3056W        W18673   3.387  10.180  17.282 -0.2087 -0.0447  0.1895
 3057W        W18674   4.653   3.816   3.463 -0.2632 -0.0233  0.0525
 3058W        W18675  16.157   5.124  14.795  0.2104 -0.0792 -0.1096
 3059W        W18676   6.207   5.317  13.367 -0.1808  0.4637  0.2570
 3060W        W18677  11.609  11.077  15.068  0.4280  0.3202  0.1296
 3061W        W18678  15.284   6.336   3.931 -0.0878 -0.3843  0.0373
 3062W        W18679   4.684   0.218   5.977  0.3415  0.2768 -0.1001
 3063W        W18680   8.418   3.664  16.195  0.0820 -0.0934  0.1008
 3064W        W18681  12.675  14.948   0.469  0.0028 -0.0085  0.2795
 3065W        W18682  10.460  13.844  11.348  0.1412  0.0464  0.1550
 3066W        W18683  17.468   7.452  14.962 -0.2349 -0.0831  0.0104
 3067W        W18684   9.044   4.293  15.972  0.0144  0.2312  0.1159
 3068W        W18685   0.183   1.528   2.141 -0.1186 -0.0837  0.0206
 3069W        W18686   7.508   3.350  13.915  0.1766 -0.1296  0.0302
 3070W        W18687  12.749   9.991   3.906 -0.1740 -0.0979 -0.0293
 3071W        W18688  13.606   5.722   5.379  0.1833  0.2236 -0.1522
 3072W        W18689  11.210  16.906  11.107  0.2507 -0.2355 -0.0327
 3073W        W18690  11.231  12.248   5.240 -0.0334  0.2051  0.0717
 3074W        W18691   1.200   6.358  14.995 -0.2146 -0.1605  0.1276
 3075W        W18692  14.925  12.087  12.051  0.3905 -0.1877 -0.2576
 3076W        W18693  13.239   6.162  13.730 -0.1519  0.0192 -0.0061
 3077W        W18694   6.273   1.851  15.119 -0.1449  0.0699  0.1779
 3078W        W18695  13.682  12.446  16.403  0.0499 -0.2234  0.0076
 3079W        W18696  11.271   6.985   4.414  0.3092  0.1866  0.2403
 3080W        W18697   3.995  16.362  13.092 -0.0698  0.0949  0.3080
 3081W        W18698   0.069   8.063  14.378  0.2002 -0.3752  0.3564
 3082W        W18699   9.460  14.952   6.109 -0.1690 -0.0817  0.0550
 3083W        W18700  13.315   9.276   3.303 -0.2320  0.0471  0.1943
 3084W        W18701  11.552   8.133   1.046 -0.4354  0.0476 -0.2432
 3085W        W18702   0.970  15.039  15.171  0.1643 -0.1912 -0.0766
 3086W        W18703   1.120   2.407   4.856  0.1666  0.0439 -0.2719
 3087W        W18704  16.580   5.755  15.143  0.2177 -0.3101  0.1857
 3088W        W18705   2.351   3.808  13.075 -0.1440  0.0274  0.1172
 3089W        W18706   3.952   3.103   2.468 -0.0434  0.0344  0.0856
 3090W        W18707   5.391   9.573  15.539 -0.3940 -0.1371  0.3313
 3091W        W18708   3.493  11.185   1.057 -0.2083 -0.1875 -0.1825
 3092W        W18709   6.946   2.083  12.697  0.1914  0.1020 -0.1859
 3093W        W18710   5.541  12.412   4.860  0.2077 -0.2271 -0.0545
 3094W        W18711   5.448   4.422  13.111  0.0384  0.1896 -0.0964
 3095W        W18712   4.662   9.454   5.838 -0.1620  0.1859 -0.1672
 3096W        W18713  16.962  10.854   5.442 -0.0194  0.2149  0.2401
 3097W        W18714   9.883   3.545  15.230  0.0819  0.0470 -0.2396
 3098W        W18715   5.841  16.062  12.062  0.0291 -0.2242 -0.0391
 3099W        W18716   3.101   5.311  16.858 -0.0632 -0.0434 -0.0249
 3100W        W18717  14.365   5.591  13.340  0.1451 -0.0554 -0.0983
 3101W        W18718   3.021  13.523   1.961  0.2439 -0.1897  0.0458
 3102W        W18719   0.529  10.717  12.776 -0.3292  0.2708  0.0054
 3103W        W18720  14.435  17.412  12.193 -0.1789 -0.0647 -0.2403
 3104W        W18721   4.762   4.605   2.427 -0.0076  0.0904  0.1031
 3105W        W18722  12.289  14.348  12.019  0.1059  0.1121  0.0746
 3106W        W18723  14.363  10.230   5.497 -0.1204  0.1341  0.0739
 3107W        W18724  11.648  14.317  16.242  0.1136  0.0161  0.1439
 3108W        W18725   3.837  14.676   4.484  0.0350  0.0854 -0.0190
 3109W        W18726  17.266   9.764   5.494 -0.1652 -0.1633 -0.1040
 3110W        W18727   1.754  10.855  15.107  0.3347 -0.0795  0.0903
 3111W        W18728   9.413   1.107  13.051 -0.0064 -0.0177  0.1676
 3112W        W18729   4.257   8.407   3.520 -0.0296 -0.1109  0.0484
 3113W        W18730   8.922   7.131  11.442  0.2549  0.1130 -0.3039
 3114W        W18731   8.549   1.758   2.976  0.1969  0.0997  0.3065
 3115W        W18732  13.788   1.833  11.710  0.0912 -0.2435 -0.2506
 3116W        W18733   4.487   7.991   1.438  0.1920  0.0448  0.5115
 3117W        W18734  17.437   0.712  16.529 -0.1317  0.1844 -0.1965
 3118W        W18735  15.793   3.682   5.600  0.1810 -0.2042  0.0331
 3119W        W18736   3.561  16.679   5.842 -0.0224  0.5614  0.0991
 3120W        W18737   2.041   0.928   5.430  0.3083 -0.0459 -0.2814
 3121W        W18738   2.476   1.799   4.489  0.1435 -0.1798  0.4265
 3122W        W18739  16.820  16.957  14.432 -0.0247 -0.2731 -0.0629
 3123W        W18740   6.217  12.470  11.029  0.1832 -0.0589 -0.1621
 3124W        W18741  17.023   1.958  13.989  0.0481  0.2609  0.1582
 3125W        W18742   3.124   9.388  13.109  0.2582 -0.0619  0.1032
 3126W        W18743  12.455  14.431  15.309  0.0397 -0.0617 -0.0905
 3127W        W18744  13.965   2.513   2.836  0.2324  0.0030 -0.2569
 3128W        W18745  15.763   1.912  11.311  0.3664  0.2486  0.1009
 3129W        W18746   7.846  15.390  13.108 -0.1961  0.1302  0.3133
 3130W        W18747  10.321  15.205   3.644  0.0118  0.1675  0.0846
 3131W        W18748   1.787  12.692  15.489  0.0408  0.2878 -0.0915
 3132W        W18749   2.285   1.983   0.679  0.4695 -0.0792 -0.2664
 3133W        W18750   4.228  10.704   3.351 -0.0547 -0.0562  0.0187
 3134W        W18751   9.658   5.927  16.410  0.0328  0.3304  0.2104
 3135W        W18752   9.960   6.569   3.873 -0.0834  0.0611 -0.0120
 3136W        W18753   8.270   9.867   5.272 -0.0624 -0.0067  0.1216
 3137W        W18754   0.497   6.971   5.389  0.2815  0.1616  0.3304
 3138W        W18755  15.217   1.759  11.899 -0.1621  0.1395 -0.3581
 3139W        W18756   3.947   2.868  14.421 -0.0767  0.0176  0.0937
 3140W        W18757   3.796   2.331   5.499 -0.0769  0.1519  0.1240
 3141W        W18758   5.761   9.940   3.426 -0.0137 -0.4589 -0.0490
 3142W        W18759   5.023   4.672  13.914  0.0863 -0.1190 -0.0762
 3143W        W18760   6.215  12.452   2.397  0.0516  0.0507  0.0031
 3144W        W18761   1.027  12.372   2.422  0.0516  0.0675 -0.0163
 3145W        W18762   3.068   0.972  12.523 -0.2371 -0.1208  0.1621
 3146W        W18763   2.448   9.067  14.940  0.0008  0.1436 -0.1074
 3147W        W18764   8.651  15.043  11.636  0.0148 -0.1772  0.0079
 3148W        W18765  15.768  10.557   4.152 -0.1091  0.1464 -0.2284
 3149W        W18766  10.520  10.312  17.060  0.0607  0.2038  0.0054
 3150W        W18767   2.372  12.787  16.151  0.2779  0.0090  0.0067
 3151W        W18768   4.613  14.844  13.288 -0.1193  0.0251 -0.5471
 3152W        W18769  17.223   2.990   2.074 -0.2099  0.3302  0.1693
 3153W        W18770   1.077   9.549   4.913  0.1055  0.1105  0.1429
 3154W        W18771  13.947   5.768  12.945 -0.0486 -0.0287  0.1331
 3155W        W18772   4.916  15.393   2.199  0.2908  0.0832  0.0361
 3156W        W18773  13.776   6.119  11.629  0.4248  0.0734 -0.0564
 3157W        W18774   0.848  16.339   3.533 -0.3126 -0.1743 -0.0763
 3158W        W18775   7.549   2.952   5.333 -0.0964 -0.2398  0.0306
 3159W        W18776  13.839   6.125   5.006  0.1552  0.4059  0.0992
 3160W        W18777  10.311   5.585   5.958 -0.3582 -0.0486  0.1297
 3161W        W18778   6.667   7.190  14.749  0.1468 -0.0635  0.5193
 3162W        W18779   5.819   3.143  12.367  0.0112  0.0573 -0.0946
 3163W        W18780  12.192  10.303  16.031 -0.0583 -0.0130  0.0573
 3164W        W18781   4.782   8.517   6.319 -0.4429 -0.0077 -0.2541
 3165W        W18782   5.604   4.280  17.112 -0.3346  0.0948  0.3177
 3166W        W18783  12.860  16.708  13.845 -0.0775  0.0729  0.1874
 3167W        W18784   3.312   6.238  13.250  0.1642 -0.0227 -0.3610
 3168W        W18785   1.795   2.937   5.766 -0.1026 -0.0921 -0.0064
 3169W        W18786  12.121  11.650   2.187 -0.1664  0.0018  0.2455
 3170W        W18787   4.996  10.211   1.773  0.3478 -0.2999  0.0291
 3171W        W18788   1.449   4.999   3.292  0.1431 -0.2692  0.1012
 3172W        W18789   0.420   3.295   2.192 -0.1006 -0.1979  0.1990
 3173W        W18790   3.985  11.040   2.844 -0.0381  0.4161 -0.1786
 3174W        W18791  11.055  12.599  12.084 -0.0861 -0.1357  0.2375
 3175W        W18792  11.915  10.348   3.706  0.0029 -0.0848 -0.0749
 3176W        W18793   9.690   8.523   2.098  0.0950  0.2086 -0.3618
 3177W        W18794  14.076  10.016  16.578  0.2383  0.1499  0.1268
 3178W        W18795  17.437   1.743  16.557  0.0576  0.1752  0.0317
 3179W        W18796  16.333   4.041   1.877  0.0700  0.0636  0.1497
 3180W        W18797   4.420   6.134  13.133  0.0635  0.0920  0.1928
 3181W        W18798   1.870   6.802   0.376 -0.1258 -0.0936  0.0224
 3182W        W18799   5.837   0.877   0.175 -0.1915  0.3092  0.0105
 3183W        W18800   5.714   3.453   2.715  0.2060  0.0104 -0.1734
 3184W        W18801  15.689   9.301  14.653 -0.2968 -0.1268  0.0001
 3185W        W18802  12.111  11.184   0.124  0.1309 -0.1027 -0.0947
 3186W        W18803   7.754   2.587   2.561  0.2225  0.0427 -0.0853
 3187W        W18804   2.564  14.537   3.607 -0.1951 -0.2030  0.2731
 3188W        W18805   7.022  16.429   3.314 -0.0381  0.0503  0.0901
 3189W        W18806   5.319  15.178  16.024 -0.2506 -0.1821 -0.2157
 3190W        W18807   9.007   6.351   4.656 -0.0469  0.1380 -0.2226
 3191W        W18808   5.820   5.316   4.602  0.2069 -0.2338  0.2088
 3192W        W18809   5.017  14.662  16.178  0.1477  0.2867  0.1809
 3193W        W18810  14.069   9.253   2.287 -0.2471 -0.3347 -0.3350
 3194W        W18811   6.279   5.894   3.990 -0.0495 -0.0994 -0.1172
 3195W        W18812  16.663   6.135   4.647 -0.1818  0.0863 -0.3253
 3196W        W18813  16.705   3.802   5.877 -0.1183  0.0827 -0.0245
 3197W        W18814  16.802  11.647   0.546  0.1638 -0.2956 -0.4990
 3198W        W18815   1.107  12.954   0.766  0.3373 -0.0150 -0.0499
 3199W        W18816   4.119   5.349   0.527  0.1563 -0.0672 -0.1800
 3200W        W18817   3.067   5.918   4.064 -0.0927  0.2455 -0.0582
 3201W        W18818   4.345   3.044  16.264  0.0937 -0.1291 -0.2890
 3202W        W18819   8.027   0.354   1.669  0.2423  0.1203  0.0375
 3203W        W18820  11.301   6.407   4.102  0.3261  0.3108  0.2652
 3204W        W18821  14.806   7.336   4.592  0.0166  0.1316  0.2231
 3205W        W18822   9.500   4.101   6.310  0.1841 -0.2284  0.1328
 3206W        W18823   5.668  12.385   5.474 -0.1322 -0.0824  0.1901
 3207W        W18824   4.087   9.084  16.450 -0.0058 -0.0425 -0.0949
 3208W        W18825  15.446   0.993  12.462  0.1621 -0.2676  0.0414
 3209W        W18826  14.228   1.126   2.064  0.4798  0.2969 -0.0809
 3210W        W18827   2.903   1.568   4.658 -0.2743 -0.4190  0.1627
 3211W        W18828   7.788   1.663   0.416  0.1284 -0.0529  0.0478
 3212W        W18829   4.894   3.202  12.679 -0.0405  0.0989  0.1371
 3213W        W18830   2.822   4.464   0.211  0.2178 -0.1444  0.2335
 3214W        W18831   8.257  12.146   2.613 -0.2023 -0.0658 -0.0419
 3215W        W18832   0.377   4.239   5.301  0.0009  0.2692 -0.2764
 3216W        W18833  14.648   6.405  13.454 -0.2185 -0.2084 -0.1179
 3217W        W18834   5.337   9.094   3.393 -0.0469 -0.1590 -0.2000
 3218W        W18835   3.983   5.989   2.223 -0.0767 -0.1872 -0.1896
 3219W        W18836   4.555   0.682  14.958 -0.1382  0.0208  0.1606
 3220W        W18837  17.615   0.429  12.606  0.0333  0.2639 -0.0367
 3221W        W18838  15.064   7.120   5.006 -0.0910 -0.3166 -0.1064
 3222W        W18839  16.476   2.877  15.328 -0.2459  0.1432  0.1164
 3223W        W18840  10.041  16.452   0.022 -0.1033 -0.3132 -0.2170
 3224W        W18841  12.727   4.559   1.804 -0.0172  0.2767  0.0021
 3225W        W18842  10.572  13.979   3.638  0.4064 -0.0933 -0.0238
 3226W        W18843  15.853   2.645   5.520  0.0514 -0.3977 -0.2453
 3227W        W18844   0.695  15.204  12.104  0.0747  0.2855  0.1011
 3228W        W18845   7.925  12.553  12.383  0.2462  0.3653 -0.2464
 3229W        W18846  15.956   9.514   1.660  0.2169 -0.0639  0.0600
 3230W        W18847  13.233   3.199   1.964 -0.0160 -0.0282 -0.0222
 3231W        W18848  17.505  16.617   4.659 -0.3643  0.3840  0.0312
 3232W        W18849   0.669  13.716   1.601 -0.1876  0.0790 -0.0920
 3233W        W18850  12.018   7.312   5.205  0.3075 -0.0133 -0.0073
 3234W        W18851   3.339  13.729  14.270  0.3722 -0.1997 -0.2981
 3235W        W18852  13.039  12.334   0.816  0.3815 -0.1505 -0.0742
 3236W        W18853  15.296  15.674  12.927  0.0068 -0.2669 -0.1750
 3237W        W18854  11.229   3.323  11.858  0.0269 -0.0610 -0.1872
 3238W        W18855   8.104  15.442  16.748 -0.0728 -0.1828 -0.0677
 3239W        W18856  14.025   9.338   3.289 -0.2595 -0.1634  0.0536
 3240W        W18857  15.245   5.569   1.439 -0.6244 -0.1555  0.0770
 3241W        W18858  16.351   9.358   0.644  0.1209 -0.0786 -0.0854
 3242W        W18859   6.408  11.006  15.640 -0.2788  0.0435 -0.1133
 3243W        W18860  16.217  13.956  15.549  0.1554  0.3262  0.1591
 3244W        W18861   7.370  15.366   3.114  0.2077  0.0641 -0.0019
 3245W        W18862  15.186   5.668   2.062 -0.0906  0.1045 -0.1145
 3246W        W18863   9.527  17.283  11.018  0.1396 -0.1304  0.0059
 3247W        W18864  17.438   0.943  13.652  0.0844 -0.1483  0.1662
 3248W        W18865   2.668   8.758   6.559 -0.0324 -0.3080 -0.2567
 3249W        W18866   5.481  13.498   4.183  0.1767 -0.2378 -0.0535
 3250W        W18867  11.086  16.572   5.274  0.0817  0.1122  0.0203
 3251W        W18868   1.506   7.244   0.838 -0.1169  0.0040  0.0383
 3252W        W18869   4.608   9.425  11.998 -0.0744 -0.2050  0.0058
 3253W        W18870  16.362   8.160   0.814  0.0004 -0.2644 -0.0756
 3254W        W18871   3.470   2.995   5.851 -0.0854 -0.0541 -0.1436
 3255W        W18872   1.036   1.420  16.114 -0.3885 -0.0241 -0.1585
 3256W        W18873  17.389  13.613  12.897 -0.0419 -0.0763  0.0215
 3257W        W18874  14.766  11.603  16.802  0.3120  0.0633  0.3268
 3258W        W18875   9.735   2.425  11.823 -0.1517 -0.1046 -0.1120
 3259W        W18876  10.386   6.449   2.411 -0.1392  0.0262 -0.1275
 3260W        W18877   0.589   1.354   5.726  0.0661  0.1826  0.1215
 3261W        W18878  11.954   5.822  16.488 -0.2716 -0.4448  0.2194
 3262W        W18879  15.531  10.880  13.315  0.1988 -0.0459 -0.2640
 3263W        W18880   1.227  11.630  15.241 -0.0310 -0.0465  0.2084
 3264W        W18881  17.507   4.197  14.513  0.2633  0.0190  0.5069
 3265W        W18882  17.358   3.993   1.815 -0.0813  0.2121 -0.0853
 3266W        W18883   7.412   2.684   1.257 -0.2464  0.0135 -0.0136
 3267W        W18884   0.558   3.369  13.596 -0.2249 -0.3043  0.1666
 3268W        W18885   9.788   3.205   4.772 -0.0576 -0.1196 -0.0858
 3269W        W18886   6.419   6.910  13.085 -0.1022  0.1332 -0.1544
 3270W        W18887  15.261  13.795   0.078 -0.2121  0.1800 -0.1570
 3271W        W18888  11.742  11.432   6.003  0.4556  0.1436 -0.1167
 3272W        W18889   2.975   2.881  15.333 -0.2619  0.0243  0.1786
 3273W        W18890   4.017  11.926  12.223 -0.1039  0.2900  0.2187
 3274W        W18891   8.592   1.130  12.140 -0.1180 -0.1748 -0.0595
 3275W        W18892  10.944  16.177   0.372 -0.2898  0.1356  0.0231
 3276W        W18893   3.691  16.169   5.773  0.0531  0.0593  0.1393
 3277W        W18894   8.729  15.954   4.221 -0.1645 -0.2787  0.1869
 3278W        W18895   1.725  17.432   3.609 -0.3244  0.0609  0.4279
 3279W        W18896   7.972  12.074   1.605 -0.0962  0.2854 -0.0235
 3280W        W18897   2.212   3.406  14.472  0.0823 -0.0192  0.0577
 3281W        W18898  15.586  10.395  11.641 -0.3154  0.0762 -0.3512
 3282W        W18899  11.631   0.966   1.476 -0.0376  0.1337 -0.0344
 3283W        W18900   3.487  15.488  10.829 -0.3280  0.0545  0.0927
 3284W        W18901  16.755   5.833  12.974 -0.3892  0.1748  0.1758
 3285W        W18902  12.259  15.378   4.663 -0.2998  0.1706 -0.0466
 3286W        W18903   8.802  11.143  15.585  0.1877  0.0001 -0.0368
 3287W        W18904   5.980   2.294   5.422 -0.0495  0.0871  0.1184
 3288W        W18905   3.977   5.112  12.692 -0.1108  0.1819  0.0680
 3289W        W18906   6.444  12.649   2.839  0.0306 -0.0735  0.0749
 3290W        W18907   4.290  16.851   3.998 -0.0077  0.0393 -0.0306
 3291W        W18908  10.658  10.412  13.742 -0.1696  0.0675  0.2904
 3292W        W18909  17.118   2.605  13.216  0.0037  0.0552  0.0724
 3293W        W18910   1.534   4.811  15.416 -0.3959  0.2175  0.2020
 3294W        W18911   3.766  10.154  14.512 -0.4320  0.1164 -0.0094
 3295W        W18912   9.950  13.595  12.840 -0.0888 -0.1378 -0.1061
 3296W        W18913  11.851   9.426   3.178  0.0380  0.4065 -0.1533
 3297W        W18914   3.496   4.612  16.242 -0.1510  0.1160 -0.0947
 3298W        W18915   8.389  11.940  12.969  0.0311  0.1930 -0.5138
 3299W        W18916  13.355   6.543  15.049  0.0126  0.2197  0.2356
 3300W        W18917   9.647   9.415   4.415 -0.1527  0.0368 -0.0858
 3301W        W18918   4.196  13.863  12.598 -0.3166 -0.1288 -0.1088
 3302W        W18919  10.026  16.844   3.052  0.3343  0.0762  0.1918
 3303W        W18920  11.803   8.294   3.127  0.0822 -0.0964 -0.1664
 3304W        W18921   3.353   5.398   6.103  0.2605  0.0892  0.0981
 3305W        W18922   8.155  14.499  13.228 -0.0779 -0.0629  0.0891
 3306W        W18923  14.232  12.417  16.303 -0.2116 -0.2627 -0.0315
 3307W        W18924   7.490   9.042  12.784  0.1827 -0.0875  0.1453
 3308W        W18925  17.252   1.688   4.660 -0.4198 -0.0370  0.3158
 3309W        W18926  16.659   2.805   3.138 -0.0606 -0.0661 -0.0867
 3310W        W18927   9.485  15.364  16.857  0.1866 -0.3913 -0.2449
 3311W        W18928   3.190  15.190  11.901 -0.2278 -0.0717  0.4197
 3312W        W18929  16.950  13.487  11.846 -0.2164 -0.0312  0.1995
 3313W        W18930   4.398   3.363  16.714 -0.1881 -0.2103  0.0302
 3314W        W18931  12.630   7.349  11.962  0.1129 -0.0028  0.4039
 3315W        W18932  13.654  14.894  16.928 -0.0184  0.0626  0.0441
 3316W        W18933   3.294   8.364  16.361  0.0648 -0.1906  0.2710
 3317W        W18934   3.301   8.725   0.753 -0.1474  0.2412  0.0694
 3318W        W18935  16.069   8.092   2.887  0.1429 -0.1156 -0.4722
 3319W        W18936  11.019  14.393   5.493 -0.0384  0.0356  0.2495
 3320W        W18937  10.298  11.288  15.612  0.1963  0.0947  0.1153
 3321W        W18938  12.554  10.023   5.686  0.3528  0.0686  0.1213
 3322W        W18939  10.854   9.133   1.101  0.0240 -0.1195  0.1489
 3323W        W18940   2.671   9.985  15.387 -0.0399  0.1233 -0.2014
 3324W        W18941  10.561   6.027  14.263 -0.4180  0.0525  0.0199
 3325W        W18942   8.887   5.395  16.164 -0.2892  0.2623  0.1317
 3326W        W18943  16.775  14.501  12.614  0.3426  0.1543 -0.1491
 3327W        W18944   1.355   7.898  15.290 -0.0187  0.2929 -0.0778
 3328W        W18945   6.738  14.537  12.807 -0.0374  0.1218  0.0504
 3329W        W18946   3.607   3.489  14.168 -0.0784 -0.0937  0.2857
 3330W        W18947   4.529   8.245  12.770 -0.1278 -0.1402 -0.2719
 3331W        W18948   7.751  11.100   1.445 -0.0354  0.1095  0.1074
 3332W        W18949   7.280   2.912  14.854 -0.1045 -0.2959  0.0835
 3333W        W18950   4.351  14.750  11.829  0.0158 -0.1598  0.1722
 3334W        W18951  11.589  17.086   4.580  0.0508 -0.0368 -0.1973
 3335W        W18952   4.047   6.368  11.528  0.0549 -0.2253 -0.3640
 3336W        W18953   9.204  12.603  15.397  0.1328 -0.3411  0.1650
 3337W        W18954  11.031   2.989   1.115 -0.1175 -0.0623  0.3043
 3338W        W18955   4.748  12.981  15.761  0.1223  0.0267  0.1564
 3339W        W18956   4.164   8.322   1.178 -0.0854 -0.1670  0.1478
 3340W        W18957   6.441   1.592  14.349 -0.0736  0.1528 -0.1339
 3341W        W18958   2.833   0.832  16.648 -0.2193  0.2025  0.0160
 3342W        W18959   7.496   8.547  11.955 -0.0500 -0.2768  0.1458
 3343W        W18960  15.914   1.638   1.121  0.0317  0.2006  0.3232
 3344W        W18961  15.675   8.887  12.504  0.0492 -0.0234  0.1977
 3345W        W18962   5.555   1.570   2.549  0.1149  0.0366 -0.4550
 3346W        W18963   6.348  11.707  17.297  0.1368  0.1474 -0.3236
 3347W        W18964   3.640   8.057   4.689 -0.1030 -0.1459  0.0454
 3348W        W18965   2.578   4.528  15.305  0.2108  0.3680  0.0319
 3349W        W18966  15.203  16.128  13.177 -0.0746 -0.3236  0.0791
 3350W        W18967   2.378   2.951   6.853 -0.0384 -0.3069 -0.0439
 3351W        W18968  14.987  13.498  15.553 -0.3436  0.0093 -0.1858
 3352W        W18969   0.560   1.736   1.143 -0.3377 -0.0033 -0.0770
 3353W        W18970   6.391  14.374  13.700 -0.0609  0.1628 -0.3260
 3354W        W18971   7.450   6.547   2.943 -0.1374 -0.1218 -0.3699
 3355W        W18972   5.624  13.527  15.018 -0.1882  0.0721 -0.2532
 3356W        W18973  12.244   2.471   4.485 -0.0554 -0.1624  0.2335
 3357W        W18974   8.370   1.072   5.912  0.0507 -0.1094  0.0579
 3358W        W18975  12.315  16.473   1.065 -0.0774 -0.0982 -0.2174
 3359W        W18976  15.901  16.320   3.426  0.2944  0.1420  0.0113
 3360W        W18977  11.648   8.523   0.056 -0.1761  0.2613  0.1047
 3361W        W18978   9.572  17.179   1.708  0.1963  0.0402  0.1618
 3362W        W18979  16.707   8.131  14.912 -0.1267 -0.0180  0.1161
 3363W        W18980   3.962  11.133   4.181 -0.0857  0.1847  0.2358
 3364W        W18981   6.753   6.084  13.070  0.0199 -0.3719 -0.0068
 3365W        W18982   8.877  16.532  12.642  0.0083 -0.1457 -0.2025
 3366W        W18983  16.839  13.894   4.072  0.1420 -0.1001  0.0260
 3367W        W18984  16.249   9.986  13.658 -0.2281 -0.0176 -0.4899
 3368W        W18985   1.170   5.948   3.463 -0.3319  0.1691 -0.3773
 3369W        W18986   4.817  14.935   1.450  0.1511  0.0628 -0.1287
 3370W        W18987   9.976  10.551   0.825 -0.1247  0.1171 -0.2783
 3371W        W18988   5.617   2.419   1.222 -0.5577  0.2149  0.0851
 3372W        W18989   5.803  15.018  12.151 -0.0865 -0.0538  0.0629
 3373W        W18990  14.966  14.307   2.210 -0.0612  0.2647 -0.1984
 3374W        W18991  16.022   4.299  15.399 -0.0259  0.2951 -0.0763
 3375W        W18992  16.074   1.781  13.966 -0.1470  0.3737 -0.1965
 3376W        W18993  11.002   3.697   5.311  0.1301  0.1515  0.1613
 3377W        W18994   5.463   0.840  13.839  0.0180 -0.1079  0.0859
 3378W        W18995   5.986  11.832   4.520  0.3757 -0.1539 -0.1776
 3379W        W18996   0.235  17.482   3.648 -0.1556  0.0967  0.0471
 3380W        W18997  13.282   6.170   5.428  0.2000  0.0269 -0.0352
 3381W        W18998   7.763  14.076  15.123 -0.0941 -0.3405  0.2471
 3382W        W18999  16.334   1.718   3.147 -0.2328  0.2835 -0.2142
 3383W        W19000   1.881   3.380   3.430  0.1201 -0.2662  0.1769
 3384W        W19001   9.069  13.333   5.236  0.2385  0.0522 -0.0530
 3385W        W19002  15.059   2.513   3.638  0.0154 -0.2159  0.1050
 3386W        W19003   1.251   6.299   2.043 -0.2883  0.0617  0.2069
 3387W        W19004  17.032   3.487  13.886  0.0151 -0.1715 -0.2260
 3388W        W19005   2.205   8.122   3.615  0.1861  0.0605  0.2006
 3389W        W19006   4.724  16.127   5.899  0.1019 -0.0770 -0.1100
 3390W        W19007   8.733  16.467   3.272 -0.2770  0.2120 -0.1606
 3391W        W19008  12.098   0.257   3.506 -0.0516  0.1259 -0.1818
 3392W        W19009  17.011   9.127  12.715 -0.1738  0.0830 -0.0757
 3393W        W19010   7.753   7.382   0.498  0.1748  0.0991 -0.0709
 3394W        W19011   2.371  15.920  14.198 -0.1528 -0.0794 -0.0492
 3395W        W19012   0.953  11.389   4.768 -0.1355  0.0968 -0.1455
 3396W        W19013   1.415   5.640  12.396  0.3210 -0.2774  0.1155
 3397W        W19014   0.243   2.972  15.421 -0.1491 -0.1453 -0.0946
 3398W        W19015   0.636  13.538  13.044 -0.1255 -0.0691 -0.0548
 3399W        W19016   8.630   9.231  12.108 -0.4836  0.1508 -0.1646
 3400W        W19017   5.339  15.810  12.344 -0.0621 -0.0584 -0.1801
 3401W        W19018   8.873  16.998  15.818 -0.0366  0.0123 -0.2140
 3402W        W19019   1.790   6.755  13.358 -0.0837  0.0570  0.2632
 3403W        W19020   8.045   1.373   1.809 -0.1334 -0.1944  0.1133
 3404W        W19021  12.621   9.252  14.822  0.1262  0.2789  0.1288
 3405W        W19022   2.101   1.320   1.582  0.0239 -0.3282 -0.1773
 3406W        W19023  11.764  12.283   3.558  0.0701 -0.0004 -0.0891
 3407W        W19024   1.296   1.309   0.700  0.3141 -0.4452 -0.1330
 3408W        W19025   3.891  10.873   2.403  0.1914  0.0867  0.0824
 3409W        W19026  16.339  14.490   4.784  0.0063  0.1539  0.1757
 3410W        W19027  15.329  17.102   5.330 -0.0627  0.1004 -0.5088
 3411W        W19028  15.831  16.242   2.943 -0.3074 -0.0334  0.2140
 3412W        W19029  13.156   4.642  13.756 -0.0692  0.0823  0.1120
 3413W        W19030   4.428   2.827  11.255  0.2072 -0.1464  0.1486
 3414W        W19031  11.020   0.833   0.323  0.1794 -0.3701  0.6038
 3415W        W19032   7.415   6.621  15.041 -0.2305 -0.2101 -0.0495
 3416W        W19033  17.452  10.294  14.501 -0.1099  0.2966 -0.1660
 3417W        W19034   3.972   7.549  17.221  0.1008  0.1593 -0.0075
 3418W        W19035   7.348   7.113   4.424 -0.0941  0.1665  0.0514
 3419W        W19036  15.483   1.559   5.446 -0.0634  0.3286  0.0660
 3420W        W19037   2.163   8.787   0.261 -0.0798  0.2687 -0.4087
 3421W        W19038   1.239   0.202   1.748 -0.0946  0.2500  0.0859
 3422W        W19039   7.434   6.733   3.404  0.2591 -0.0383 -0.4449
 3423W        W19040   7.993  12.537  14.288  0.2345 -0.0297  0.0041
 3424W        W19041   9.602  16.937  13.257  0.1417  0.2098 -0.0186
 3425W        W19042   2.199   2.660   0.347  0.1380  0.3901 -0.2524
 3426W        W19043   6.930   2.233   2.451 -0.0311  0.1341 -0.0650
 3427W        W19044  17.224  14.067  14.055 -0.4629 -0.0472  0.1804
 3428W        W19045   2.716  13.262  11.878 -0.0475  0.2281 -0.0489
 3429W        W19046  10.905   1.189  15.309 -0.0366  0.3092 -0.1704
 3430W        W19047   3.964  12.272  16.303  0.3284 -0.1927 -0.1826
 3431W        W19048  15.962  11.688  15.485 -0.1284  0.1978 -0.0965
 3432W        W19049   1.715  11.231  15.490 -0.3965 -0.1846 -0.2832
 3433W        W19050  10.397   8.162  16.827  0.0449 -0.0732 -0.1809
 3434W        W19051  11.343  13.868  15.441 -0.0552  0.1132 -0.0381
 3435W        W19052   0.399   6.329   4.371  0.1878 -0.0502 -0.3682
 3436W        W19053  12.129  15.802  12.815 -0.1068  0.0371  0.0456
 3437W        W19054  16.206   6.049  14.865  0.2085  0.2087  0.1871
 3438W        W19055   0.437   2.204   1.352 -0.3459 -0.0306  0.2503
 3439W        W19056  13.588  13.419  15.266 -0.1712  0.1884 -0.0799
 3440W        W19057   7.453   7.212   2.271 -0.1123  0.0753  0.0020
 3441W        W19058  17.230   6.804  14.331 -0.2345  0.0632 -0.3142
 3442W        W19059   8.955  11.268  12.248  0.0342  0.0330  0.0930
 3443W        W19060   7.500   5.175  12.634 -0.1475 -0.0832  0.0127
 3444W        W19061  14.343   7.389   3.614 -0.1413  0.2925 -0.0588
 3445W        W19062   3.843   7.830   2.125 -0.0856  0.0940 -0.2096
 3446W        W19063   0.221   0.252  15.609  0.1952  0.0844 -0.0583
 3447W        W19064   0.593   4.978  14.672  0.0484 -0.2731  0.3178
 3448W        W19065  16.037   0.092   1.871 -0.1273  0.0692  0.2646
 3449W        W19066   2.976  10.703   4.848 -0.1321 -0.0754 -0.0740
 3450W        W19067   9.735   5.415   3.768  0.0057 -0.4370  0.0826
 3451W        W19068  10.579  11.065   5.508 -0.0659  0.0711  0.1185
 3452W        W19069  15.811   6.923  17.173  0.4122  0.0796 -0.1459
 3453W        W19070  15.284  15.630  13.437  0.1196 -0.0846  0.1769
 3454W        W19071   5.706   0.987  12.506  0.0756 -0.0320  0.1816
 3455W        W19072   7.616   7.725  16.151 -0.0938 -0.0908 -0.1617
 3456W        W19073  16.154  15.949   0.760  0.1087  0.1364  0.1149
 3457W        W19074  12.120  15.761  11.133  0.1355  0.2701  0.0987
 3458W        W19075   0.107   0.750   3.380 -0.2052  0.2489  0.0999
 3459W        W19076   9.040  17.467  15.976 -0.0350 -0.0226  0.2468
 3460W        W19077   7.730  11.265   6.301  0.1078  0.2033 -0.0619
 3461W        W19078   6.040   9.708  14.741 -0.0177 -0.0370  0.1665
 3462W        W19079   9.932  15.759  12.304  0.1267  0.2232  0.0795
 3463W        W19080   6.762  12.149  16.220  0.0270 -0.0316 -0.0032
 3464W        W19081  10.513   3.932  13.970 -0.1657 -0.1314 -0.2809
 3465W        W19082   7.389  14.821   3.773 -0.4105 -0.1738  0.5871
 3466W        W19083   7.991  12.419  16.113 -0.0353  0.0262  0.0029
 3467W        W19084  17.211  16.257   4.367  0.3146 -0.0505 -0.2363
 3468W        W19085  14.024   0.686  13.828 -0.1139 -0.0441 -0.0942
 3469W        W19086   5.600  16.225  13.393 -0.1186 -0.0421 -0.3286
 3470W        W19087   3.782  14.155  12.312 -0.1165 -0.1313 -0.3333
 3471W        W19088   6.665   1.391  16.130 -0.4862 -0.1357 -0.1222
 3472W        W19089   7.728   6.546   3.747 -0.0423 -0.2439 -0.1651
 3473W        W19090   1.530   1.219  14.388 -0.2767 -0.0174  0.1883
 3474W        W19091  17.348   7.493   4.823 -0.2124  0.2831  0.5121
 3475W        W19092  14.861  10.856  15.607  0.1463 -0.1161  0.0328
 3476W        W19093  12.761   5.638  16.170 -0.0144 -0.2069  0.0815
 3477W        W19094   5.451   8.393  14.145  0.1206  0.0586 -0.0404
 3478W        W19095   5.479  15.256  13.450  0.0528  0.1846  0.2887
 3479W        W19096   8.284   8.946  14.117  0.3036 -0.1234 -0.0019
 3480W        W19097   8.561   8.237   0.649 -0.1812  0.2117  0.2187
 3481W        W19098   7.984   1.687   3.936  0.0405  0.0153  0.0316
 3482W        W19099  13.440   4.290  15.669  0.2246 -0.0498  0.0232
 3483W        W19100   3.073   3.310   3.099  0.0285 -0.0585  0.1691
 3484W        W19101   3.787   5.335  15.739  0.1288 -0.1646 -0.1943
 3485W        W19102   3.917   7.450  14.542  0.1072 -0.3377 -0.1269
 3486W        W19103   9.059   9.267  14.855 -0.0661 -0.1530 -0.0256
 3487W        W19104  16.825  12.051  16.408 -0.1991  0.0531  0.3154
 3488W        W19105   7.493  11.588  13.354  0.2177  0.1003 -0.0420
 3489W        W19106   4.827  14.626   3.220  0.2915  0.1923 -0.0717
 3490W        W19107   3.904   2.733  16.287  0.0236 -0.0627  0.0111
 3491W        W19108  15.444   9.775   2.624 -0.0969 -0.1546  0.1438
 3492W        W19109  12.993   5.567  12.874 -0.1679 -0.1971 -0.0261
 3493W        W19110   0.500  17.597  16.642  0.0605  0.0938 -0.0125
 3494W        W19111   2.430   8.661   5.400  0.1987  0.2655 -0.0460
 3495W        W19112  15.840   9.197   0.953  0.1009 -0.0249  0.1287
 3496W        W19113   0.635   4.575  16.975 -0.2494  0.2095  0.1647
 3497W        W19114  11.203   8.142  15.005 -0.0083  0.2964  0.2770
 3498W        W19115  16.255   1.404   1.429 -0.0714  0.1251  0.0301
 3499W        W19116   7.623  14.716   5.126 -0.2570 -0.2502  0.2000
 3500W        W19117  11.547  11.161   1.953  0.1165  0.0505  0.2751
 3501W        W19118   4.548   5.960  14.520  0.1403  0.2550 -0.0981
 3502W        W19119  10.222   7.441   4.000  0.2553  0.3626  0.0808
 3503W        W19120  11.208   8.386  17.186 -0.0341 -0.2243 -0.0173
 3504W        W19121  16.051   2.009   2.216 -0.2403 -0.1684 -0.2872
 3505W        W19122   6.615  13.317  14.652  0.0385  0.1258  0.0565
 3506W        W19123  11.271  14.889   0.855 -0.2331 -0.2846 -0.0748
 3507W        W19124   9.143   6.307  14.032  0.2484 -0.1326 -0.1502
 3508W        W19125  11.908   8.847  12.239  0.1469  0.0867  0.0185
 3509W        W19126   6.088   2.331   1.461 -0.0946 -0.0813  0.2045
 3510W        W19127   5.401   1.613  13.329 -0.4358 -0.1517  0.1167
 3511W        W19128   8.333   6.094  16.982  0.2793 -0.0434  0.4360
 3512W        W19129  13.662  15.735  17.217 -0.2171  0.1382 -0.3822
 3513W        W19130  12.740  16.026   6.297  0.1321  0.2073 -0.1124
 3514W        W19131  12.828  15.501   3.327 -0.1268 -0.0876 -0.1805
 3515W        W19132  15.218   8.831  15.511 -0.2595  0.2637  0.2604
 3516W        W19133   9.088   3.200   1.768 -0.1164  0.0439  0.1444
 3517W        W19134   5.316  12.648   1.537 -0.0735  0.3443  0.3397
 3518W        W19135   5.596   7.302   3.609 -0.0088 -0.2451  0.1137
 3519W        W19136  13.123  14.435  14.890  0.0863  0.0877 -0.0419
 3520W        W19137  15.653  14.166  11.296 -0.1794  0.2749  0.2733
 3521W        W19138  16.651  14.397   2.231  0.0064  0.0508 -0.0814
 3522W        W19139   0.058  10.018  14.095 -0.1371  0.0271  0.4565
 3523W        W19140   0.636  15.069  17.057  0.0055  0.2274 -0.0554
 3524W        W19141  11.405  10.677  16.656 -0.0722  0.2580 -0.0143
 3525W        W19142  15.267   1.230  12.919  0.2034  0.0902 -0.1418
 3526W        W19143  14.497   5.390   4.736  0.1034  0.0998 -0.1981
 3527W        W19144  14.386  13.619  13.836 -0.0318 -0.1747 -0.0662
 3528W        W19145  16.615  13.414  13.160 -0.1211  0.0528  0.1265
 3529W        W19146   1.615   4.731  14.328  0.0744 -0.0704  0.0947
 3530W        W19147   4.496  14.241  15.621 -0.1299  0.0765  0.1138
 3531W        W19148   2.149  17.525  13.842  0.1404  0.0240 -0.0349
 3532W        W19149   8.744  11.658  12.574  0.1422  0.2480 -0.0121
 3533W        W19150  13.795  14.197  12.157  0.0327  0.0473  0.0317
 3534W        W19151   9.591   7.439   1.373 -0.0644 -0.1184 -0.2153
 3535W        W19152   9.347  17.601  16.594  0.5413 -0.0786 -0.1394
 3536W        W19153   0.192  10.344   5.294  0.0998 -0.0570  0.0225
 3537W        W19154   8.369  11.558   0.262  0.0477 -0.2172 -0.2553
 3538W        W19155   5.783  12.676  13.094 -0.0080 -0.4845 -0.0689
 3539W        W19156   6.527  15.157  14.734  0.0725  0.0076 -0.1232
 3540W        W19157   8.638   8.175  16.576  0.2447  0.0783  0.2130
 3541W        W19158  10.741   8.642   4.218 -0.1490 -0.2396  0.1387
 3542W        W19159  15.989  13.481  15.534 -0.0523 -0.0056 -0.0558
 3543W        W19160   0.267   5.085   1.168  0.0474  0.0440 -0.1568
 3544W        W19161  10.558   8.903  14.125 -0.2293 -0.4179  0.0462
 3545W        W19162  12.474   1.636   0.356  0.0958  0.0109 -0.3084
 3546W        W19163   4.899  11.766  14.143 -0.0240  0.1146 -0.1202
 3547W        W19164   8.835   2.573   2.845 -0.0412  0.0098 -0.0426
 3548W        W19165  16.676  10.496   4.286 -0.0018 -0.0391  0.0552
 3549W        W19166   9.137   8.097   2.673 -0.0064  0.3280  0.0046
 3550W        W19167  17.597   9.692   3.105 -0.0460  0.1462 -0.1271
 3551W        W19168  10.222   2.135  15.332  0.0361 -0.2241 -0.1323
 3552W        W19169   3.477   2.493   2.727  0.2292 -0.3086  0.0815
 3553W        W19170   9.168   6.344   1.945  0.3100  0.1620  0.0586
 3554W        W19171   3.511  15.637   3.967  0.1238  0.0863  0.0868
 3555W        W19172   8.341   9.635   0.423 -0.1746 -0.2144 -0.2641
 3556W        W19173   9.455  14.504   5.449 -0.1093 -0.0256 -0.0167
 3557W        W19174   7.369   0.993  13.648 -0.0650 -0.2979 -0.1458
 3558W        W19175   5.780  10.510  11.795 -0.0198  0.1438  0.3263
 3559W        W19176  15.261  12.992  12.533 -0.1233 -0.0398 -0.1615
 3560W        W19177   9.999   9.623   4.030 -0.2454 -0.1829 -0.2105
 3561W        W19178   7.093  13.934   2.548 -0.0078 -0.2805  0.0347
 3562W        W19179   7.824  10.759   0.235  0.1907  0.1174 -0.2839
 3563W        W19180   6.150  15.421   2.845  0.2402 -0.0867  0.0020
 3564W        W19181   8.150   9.345   0.801  0.2470  0.1526 -0.1910
 3565W        W19182  16.512  15.685   0.354 -0.2995 -0.1905 -0.0979
 3566W        W19183   9.837  17.429  14.798  0.0810 -0.0414  0.0380
 3567W        W19184   3.169  11.004   0.148  0.4967 -0.0066 -0.1495
 3568W        W19185   8.733   0.842  11.304 -0.0496 -0.1117 -0.1515
 3569W        W19186  15.735   8.985  13.586  0.0576 -0.2807  0.0014
 3570W        W19187   0.683   4.240   4.912 -0.0857  0.2266  0.0669
 3571W        W19188   6.624   9.350  14.382 -0.0130 -0.5515 -0.0055
 3572W        W19189  10.037  17.144  11.857 -0.1137  0.0607 -0.0691
 3573W        W19190   6.164   8.826  13.639 -0.0036 -0.0758 -0.1397
 3574W        W19191  14.854  17.071   1.230 -0.0549  0.1436 -0.0779
 3575W        W19192   4.090   6.786   0.559 -0.0506  0.1283  0.1118
 3576W        W19193  14.476   8.914   1.615 -0.1147 -0.0014  0.4055
 3577W        W19194   2.467   4.772  13.995 -0.4146  0.1722 -0.1252
 3578W        W19195  11.130  10.157  13.636 -0.0517 -0.3257  0.0327
 3579W        W19196   5.106   2.621  16.395  0.1379 -0.2422 -0.0059
 3580W        W19197   0.546   1.689  14.775 -0.3047  0.2246 -0.2513
 3581W        W19198   6.874   9.768  13.144  0.1609  0.1496  0.0136
 3582W        W19199   2.117   5.655   1.151  0.0412 -0.0101  0.4667
 3583W        W19200   9.417   1.733   5.975  0.0007  0.0270 -0.0554
 3584W        W19201  11.388   4.753  14.578 -0.0639 -0.0010  0.1692
 3585W        W19202   3.539  11.069  12.437 -0.3035 -0.0649 -0.1957
 3586W        W19203   0.672   7.591   1.173  0.0267  0.0298 -0.2592
 3587W        W19204   4.028  13.826   0.546 -0.0814  0.1312  0.1836
 3588W        W19205  13.644   2.772   3.872  0.0366 -0.2135 -0.2365
 3589W        W19206  17.528   4.132  12.598 -0.3787  0.2036  0.0660
 3590W        W19207  15.545   8.669  15.822  0.0351  0.1583  0.0236
 3591W        W19208   8.794   8.991  14.530  0.1129 -0.0585 -0.1231
 3592W        W19209   3.026   5.018   1.523  0.2660  0.0453  0.0940
 3593W        W19210  13.762   2.124   1.390 -0.1201  0.1470  0.0182
 3594W        W19211  15.841   5.683   0.013  0.1364  0.0625  0.1548
 3595W        W19212   0.168   1.922   3.588 -0.1374  0.4092  0.1685
 3596W        W19213   6.507  13.456  13.662  0.0261  0.1087  0.1706
 3597W        W19214   7.488  15.288  15.409 -0.1169 -0.2202 -0.2057
 3598W        W19215  10.371  15.309  11.686 -0.0700  0.0732 -0.2322
 3599W        W19216   3.914   1.329  16.105  0.2257  0.2301  0.0480
 3600W        W19217  12.844   8.218   4.019 -0.1258  0.0497  0.3634
 3601W        W19218  11.117   4.390  17.085  0.0354 -0.0519  0.0786
 3602W        W19219  11.236   4.806   3.923  0.0313 -0.2069  0.0225
 3603W        W19220  17.035  15.820   4.472 -0.1510 -0.0444 -0.2937
 3604W        W19221   6.445   8.733  15.788 -0.5182  0.2805  0.1677
 3605W        W19222  13.510  16.015   5.891  0.2677  0.0048 -0.2501
 3606W        W19223  16.839   8.122   0.884 -0.0327 -0.2713  0.1938
 3607W        W19224   0.336   4.401   0.009 -0.0333 -0.1193  0.0521
 3608W        W19225  13.937   0.522  12.316  0.0198  0.0241 -0.3157
 3609W        W19226   8.407  13.982  12.035  0.0915  0.0398  0.5403
 3610W        W19227  10.755   4.001  14.954 -0.2010 -0.4850  0.0897
 3611W        W19228   5.861  17.171  13.640 -0.1009 -0.0359  0.0259
 3612W        W19229  11.417   8.763  13.521  0.0015 -0.1165  0.0138
 3613W        W19230   6.286   0.070  11.712 -0.0534 -0.0162  0.3682
 3614W        W19231   4.851  11.122  15.505  0.1021 -0.1722 -0.0148
 3615W        W19232  12.866   0.781  13.156  0.0293 -0.3108  0.0070
 3616W        W19233  11.249   1.934  17.110  0.0497  0.3345  0.1207
 3617W        W19234  16.042   2.104   0.647  0.0644 -0.1755 -0.0370
 3618W        W19235  17.408   3.606   3.947 -0.2454 -0.1052 -0.2733
 3619W        W19236  14.090   5.074  15.012 -0.1644 -0.1762 -0.1672
 3620W        W19237   1.287   5.152  15.128 -0.2563  0.0281  0.0888
 3621W        W19238  12.049   5.015  12.089 -0.3362 -0.0663 -0.2061
 3622W        W19239   7.343  14.958  17.235 -0.3696 -0.0449 -0.1499
 3623W        W19240  15.251   1.622   3.100  0.2317  0.0572  0.1454
 3624W        W19241  10.228   5.774  16.779 -0.0305 -0.0122 -0.0434
 3625W        W19242  16.421   5.207   5.184  0.0770 -0.3487 -0.3670
 3626W        W19243   4.304  11.853  14.683 -0.2715  0.1293 -0.0409
 3627W        W19244   0.142   3.696  12.350  0.0098 -0.1256 -0.0642
 3628W        W19245   3.578   4.491  14.424  0.0224 -0.1512  0.2868
 3629W        W19246  13.220   5.717  12.461 -0.1571  0.1263  0.0250
 3630W        W19247   9.199   9.465   3.621 -0.0595 -0.1323 -0.1504
 3631W        W19248   2.375   4.953  15.351 -0.1514 -0.1468  0.4723
 3632W        W19249  13.654   0.492   5.458 -0.2967 -0.3197  0.0239
 3633W        W19250  17.597  15.876  13.774  0.0745 -0.1029 -0.1582
 3634W        W19251   7.408   7.653   2.018 -0.0010 -0.0432  0.1451
 3635W        W19252  11.088   2.160  14.979 -0.2027 -0.1031  0.3530
 3636W        W19253   9.125  13.489  13.593  0.1865 -0.4340 -0.1791
 3637W        W19254  12.797  15.124  16.883  0.3614 -0.1323  0.1533
 3638W        W19255  16.254   4.640  13.416  0.1692 -0.2416  0.1345
 3639W        W19256   7.430   2.555   1.721 -0.1214  0.0083  0.0205
 3640W        W19257  16.996  10.646   3.893  0.2058 -0.0518  0.1678
 3641W        W19258   8.782   5.736  15.502 -0.2233  0.2236 -0.0650
 3642W        W19259  16.732   0.387   3.387  0.1146  0.1637  0.0497
 3643W        W19260  15.034   9.995  15.126 -0.2524 -0.2087  0.0300
 3644W        W19261   3.386  17.484   0.383  0.0335 -0.1299 -0.0863
 3645W        W19262  15.732   0.966   0.929 -0.1661  0.0692  0.1670
 3646W        W19263  11.163  11.510   3.521 -0.0752  0.2381 -0.3969
 3647W        W19264  16.995   4.149  12.823  0.1659  0.0428  0.2740
 3648W        W19265   5.741  12.622   0.307  0.2321 -0.0443  0.1763
 3649W        W19266   0.924   7.774   4.503 -0.5114  0.1478  0.0414
 3650W        W19267  10.417   6.415   5.604 -0.1990  0.1378 -0.2382
 3651W        W19268  11.098   4.715   0.303  0.2830 -0.0197 -0.2358
 3652W        W19269   4.196   7.584   1.242 -0.2486 -0.0895  0.1035
 3653W        W19270   6.975   9.132  14.040 -0.1794 -0.0455 -0.0854
 3654W        W19271   6.373   6.654  11.425  0.2750  0.0453 -0.0101
 3655W        W19272   3.870   3.183   5.611  0.2054 -0.1420 -0.1830
 3656W        W19273   6.199  15.011  16.535 -0.2105 -0.0741  0.3118
 3657W        W19274   2.325  14.117   5.281 -0.2118 -0.0034 -0.0685
 3658W        W19275  11.469   2.821  13.865 -0.0117  0.0199 -0.0547
 3659W        W19276  11.503  16.342   3.921  0.2515  0.1042  0.3497
 3660W        W19277  13.921  10.868  14.231  0.0362  0.2066  0.2974
 3661W        W19278   6.537   5.998   5.217 -0.6174  0.3206  0.1050
 3662W        W19279   1.606  11.411   5.637 -0.1173 -0.0386  0.1364
 3663W        W19280   0.934   0.435   3.568 -0.1625 -0.1308  0.0792
 3664W        W19281   3.425   7.608  13.470  0.2086  0.0215 -0.3256
 3665W        W19282  11.068   4.588  15.054  0.0159 -0.0071 -0.1994
 3666W        W19283  14.348  13.213  13.483  0.1126  0.1556 -0.1460
 3667W        W19284  17.381   2.919  12.911 -0.0510 -0.2710  0.0469
 3668W        W19285  15.943   6.549  12.993 -0.0412 -0.5826  0.0544
 3669W        W19286  12.641  12.333  15.906 -0.3023  0.5494  0.0597
 3670W        W19287   0.944  11.094  12.878 -0.0531  0.3471 -0.0015
 3671W        W19288   8.933   6.657   3.855  0.0391  0.1247  0.0123
 3672W        W19289   9.485   0.714   5.622  0.0234 -0.0411 -0.2322
 3673W        W19290   9.037   9.144  17.113  0.0273 -0.1300 -0.4320
 3674W        W19291   4.473  14.310  13.753 -0.1094 -0.1228  0.0132
 3675W        W19292   4.826  15.663   1.056  0.0214  0.1463 -0.0624
 3676W        W19293  14.464  16.275  12.416 -0.3309  0.0542  0.0713
 3677W        W19294  10.816  13.610   3.855  0.0183 -0.2161 -0.1172
 3678W        W19295   5.906   8.510  14.088 -0.2414 -0.1962  0.0090
 3679W        W19296   2.369  16.282   0.173  0.0366 -0.0031  0.4750
 3680W        W19297   6.596   1.545   4.826 -0.2033 -0.1559 -0.4876
 3681W        W19298  10.180   6.297   1.111 -0.2957 -0.0048  0.1079
 3682W        W19299   2.994   0.263   3.244  0.2302 -0.0660 -0.2502
 3683W        W19300   5.567   5.997   0.330  0.1403 -0.1009  0.3654
 3684W        W19301  10.962  10.708   1.953 -0.2371 -0.1751 -0.0627
 3685W        W19302  10.059  16.314  15.363 -0.3993  0.0972  0.1536
 3686W        W19303  16.174   8.648   4.324 -0.2313 -0.1709  0.1305
 3687W        W19304  12.839   4.157   0.827 -0.0897 -0.1011  0.0572
 3688W        W19305   5.749   3.349   5.244 -0.0163  0.1673 -0.0409
 3689W        W19306   1.332  11.497   6.751  0.1806  0.0598 -0.0323
 3690W        W19307   2.778   7.752  12.996 -0.0501 -0.2011  0.0697
 3691W        W19308   1.985   1.227   3.600 -0.3172  0.1530 -0.2203
 3692W        W19309  15.085   3.169  16.975  0.3424 -0.1375  0.2416
 3693W        W19310  13.342   2.326   0.686 -0.0080  0.0401  0.2174
 3694W        W19311  14.717  15.981   2.477  0.0018  0.2079  0.2788
 3695W        W19312   6.272   2.857  12.609 -0.1824  0.0333 -0.2295
 3696W        W19313   2.052   3.501  16.662  0.2358  0.2086 -0.1682
 3697W        W19314  12.473   2.635  14.081 -0.0821 -0.0171 -0.0048
 3698W        W19315   7.067  11.434  12.840  0.1237  0.1019 -0.0435
 3699W        W19316   2.226   5.606   5.272  0.1009 -0.1199 -0.1224
 3700W        W19317  14.779  17.438   2.709 -0.1635 -0.2161 -0.2253
 3701W        W19318   5.076  16.734  14.044  0.1280 -0.0955 -0.1437
 3702W        W19319  16.510   2.859  15.833 -0.0082  0.1115  0.0560
 3703W        W19320  15.894  17.298  12.204  0.0854  0.0954 -0.0208
 3704W        W19321  11.993   4.582  11.678 -0.1520 -0.1434  0.3279
 3705W        W19322   6.300  13.412  12.039  0.0513 -0.0047 -0.1616
 3706W        W19323  12.625   7.516   2.014  0.0961 -0.2640  0.0092
 3707W        W19324  10.672   7.600   1.317 -0.1943 -0.1286 -0.1273
 3708W        W19325   4.788  12.146  12.762  0.0460  0.2000 -0.1914
 3709W        W19326   8.557   5.013   1.000 -0.1448  0.0554 -0.3079
 3710W        W19327   1.455   9.767   0.939  0.3124 -0.0332  0.0611
 3711W        W19328   3.575  10.706   4.305 -0.0794  0.0057  0.2385
 3712W        W19329  11.077  17.038   3.705  0.1980  0.3011  0.1117
 3713W        W19330   8.716  12.360   5.065 -0.1190 -0.1188  0.1893
 3714W        W19331   8.523   6.553  11.981 -0.2328 -0.0504 -0.0935
 3715W        W19332   1.424   2.024   3.628  0.3964  0.0994 -0.0215
 3716W        W19333   6.284   8.469   5.582  0.2428 -0.0326 -0.2675
 3717W        W19334  12.928   6.255   0.096 -0.0388 -0.0074  0.2657
 3718W        W19335   4.220   3.472  16.000  0.2954 -0.0049 -0.2058
 3719W        W19336   6.469   7.430   1.110  0.1645  0.0674 -0.0978
 3720W        W19337  14.226   4.477   4.237 -0.1363 -0.0711 -0.0233
 3721W        W19338   8.232  10.854  15.601  0.0574 -0.2817 -0.0523
 3722W        W19339  11.110   5.986   1.297  0.0430  0.3680 -0.2020
 3723W        W19340   1.130   4.621   0.947 -0.2796 -0.0578 -0.0121
 3724W        W19341  17.591  10.814  14.564  0.0024 -0.1989 -0.0117
 3725W        W19342   6.217  15.444   0.547  0.0233 -0.0198 -0.0308
 3726W        W19343  15.661  11.999  13.774 -0.0462  0.4319 -0.1472
 3727W        W19344  13.604   7.763  13.484 -0.1415  0.4142 -0.1854
 3728W        W19345  16.279  12.787   4.057 -0.0682  0.1659 -0.0042
 3729W        W19346  11.071  12.433   0.902  0.1554 -0.0446  0.0176
 3730W        W19347  14.834   2.962  14.728 -0.2534 -0.0092  0.1328
 3731W        W19348  12.709  11.594   5.602 -0.1443 -0.0558  0.1358
 3732W        W19349  16.183   5.738   6.779 -0.0422  0.2226  0.0620
 3733W        W19350   6.570   1.815   1.647  0.0595  0.0953  0.3533
 3734W        W19351   1.166  10.606  16.107  0.0670  0.0020 -0.0235
 3735W        W19352   4.650  17.339   5.186  0.1825  0.1566 -0.4471
 3736W        W19353  10.226   2.615  15.191 -0.0112  0.2310  0.0983
 3737W        W19354   3.477  13.522   2.847  0.1223  0.0535  0.0204
 3738W        W19355   4.243   5.599   5.857 -0.1468 -0.2990  0.1074
 3739W        W19356   5.532  15.539   3.110  0.0531  0.0610 -0.3075
 3740W        W19357   3.004   2.908  12.889 -0.1119 -0.0145  0.0189
 3741W        W19358  16.508   1.973   3.645 -0.1513  0.1461 -0.2232
 3742W        W19359  14.945   5.294  16.296  0.2355  0.2968  0.1447
 3743W        W19360  11.987  13.800  16.622 -0.0354 -0.2052 -0.0401
 3744W        W19361  10.181   1.445   2.541  0.3666  0.1391 -0.0274
 3745W        W19362   6.080  12.617   1.587 -0.0244 -0.0772  0.1443
 3746W        W19363   6.244  14.400  12.675 -0.2530  0.0668  0.1592
 3747W        W19364  16.819   2.048   2.586 -0.0134 -0.2150  0.2848
 3748W        W19365  10.185  13.317  16.432  0.1363 -0.0670 -0.4013
 3749W        W19366  15.839   5.981  15.959 -0.3149 -0.0088 -0.0661
 3750W        W19367  13.896   5.587   0.272 -0.0914 -0.1106  0.0755
 3751W        W19368  13.276  10.384   0.750 -0.0627 -0.0248  0.1359
 3752W        W19369   1.495   9.098  13.824 -0.1875  0.0784 -0.2127
 3753W        W19370   2.961  14.038   1.454  0.0538  0.0968 -0.0222
 3754W        W19371   2.462  13.807  11.821 -0.2212 -0.1093  0.1314
 3755W        W19372  11.982   2.424  16.920  0.2084  0.0556  0.1506
 3756W        W19373   4.716   0.697  12.289  0.2264 -0.0892  0.1577
 3757W        W19374  12.945  11.826   3.943  0.0794  0.1937  0.0219
 3758W        W19375  17.190   3.690  15.106 -0.2032 -0.0588 -0.2029
 3759W        W19376  15.045  17.230   4.830 -0.0376 -0.1479  0.1998
 3760W        W19377   8.863  10.396   2.634 -0.1634  0.2097 -0.0318
 3761W        W19378   1.020  17.089   3.143  0.0946 -0.0857 -0.2453
 3762W        W19379   7.973   6.501  16.297  0.0334  0.2079 -0.1956
 3763W        W19380  11.527  11.910   4.794  0.0200  0.0933 -0.0766
 3764W        W19381   7.730   2.598  15.092  0.0863  0.1150 -0.2729
 3765W        W19382  12.531   5.124  12.334  0.3315 -0.1215  0.0236
 3766W        W19383  11.541  10.081   0.183  0.0181 -0.2659  0.0089
 3767W        W19384   8.893  14.292   1.246 -0.1358  0.3338 -0.0108
 3768W        W19385   1.860  11.110  14.646 -0.2887 -0.1509 -0.0474
 3769W        W19386  13.765   3.680  14.736 -0.1897  0.0194  0.2232
 3770W        W19387  16.454   2.023   5.579  0.0321 -0.2312  0.0494
 3771W        W19388   9.362   8.236  16.724  0.1108 -0.0859 -0.2939
 3772W        W19389   2.068   8.844   2.934  0.0703 -0.0904 -0.0217
 3773W        W19390  10.372   4.643   4.277  0.0642  0.0601 -0.1127
 3774W        W19391  13.304   8.700   5.752 -0.0426 -0.0726 -0.3736
 3775W        W19392   8.813  16.570  16.719 -0.0078 -0.1104  0.0002
 3776W        W19393  13.667  13.823  15.560  0.2080  0.2345  0.1328
 3777W        W19394  13.626   4.667   5.106 -0.1130  0.1545  0.1830
 3778W        W19395   1.107   3.784   0.593 -0.2347 -0.0336  0.0011
 3779W        W19396  17.498  11.008   3.137  0.3849 -0.0787  0.2166
 3780W        W19397  10.856  16.257   4.258 -0.2354  0.1962  0.0078
 3781W        W19398   6.162   7.338   3.432 -0.0828  0.1736 -0.0598
 3782W        W19399  11.156   1.086  12.268 -0.3928 -0.0708 -0.1826
 3783W        W19400   9.509   9.974   4.725 -0.1804 -0.0906  0.2206
 3784W        W19401   1.085   9.474   3.817  0.0383 -0.3548 -0.1181
 3785W        W19402  15.462   7.738   3.967  0.2800  0.0259  0.0556
 3786W        W19403  13.733  10.035   2.678  0.2661 -0.1190 -0.0771
 3787W        W19404  13.306   6.817  12.575 -0.0508 -0.4506  0.0474
 3788W        W19405   6.270   0.090   1.688 -0.1595  0.0112  0.2882
 3789W        W19406   3.225  15.179   3.867 -0.2423 -0.3175 -0.2747
 3790W        W19407   8.278   4.069  11.940 -0.1660 -0.0128  0.5703
 3791W        W19408   6.269  17.444  13.455 -0.0052 -0.0867 -0.3201
 3792W        W19409  10.633   0.179   3.275 -0.0720 -0.2163 -0.1066
 3793W        W19410   3.309   1.056  12.032  0.0780 -0.2171 -0.2546
 3794W        W19411  15.412  13.943  13.044 -0.0761  0.0251 -0.2807
 3795W        W19412   9.095   4.568  14.096 -0.2247 -0.0602  0.0668
 3796W        W19413   8.923   6.238   2.503 -0.0936  0.3057  0.2368
 3797W        W19414   2.312  13.578   5.902  0.0160 -0.1102 -0.2204
 3798W        W19415   2.804   1.099   6.382  0.0059  0.3747 -0.0479
 3799W        W19416  15.543   9.410  12.296 -0.2391 -0.0332 -0.0381
 3800W        W19417  16.277   7.048   3.181  0.3314  0.0854 -0.3157
 3801W        W19418  10.771  11.396   3.844 -0.1679  0.3303 -0.2292
 3802W        W19419   7.425   9.516   3.789  0.0263  0.0441  0.2849
 3803W        W19420   5.194   7.727   4.249  0.1277  0.2403  0.1216
 3804W        W19421   0.087   5.416  16.200  0.1835 -0.4086 -0.2773
 3805W        W19422   0.767   9.461  13.723 -0.0393 -0.0188 -0.0161
 3806W        W19423  10.557  16.021  13.912  0.0998 -0.1641 -0.0083
 3807W        W19424   9.696   0.426   3.048 -0.0071 -0.2071  0.1048
 3808W        W19425  14.794   5.167   4.246  0.0348 -0.0533 -0.0334
 3809W        W19426   3.953  13.129   5.789 -0.2469  0.2696  0.2640
 3810W        W19427   5.278   5.559   0.121 -0.0073  0.2382  0.0642
 3811W        W19428  16.554   1.343  16.265  0.0489  0.1057  0.1035
 3812W        W19429  15.433   7.656  12.746 -0.0999 -0.2458  0.0681
 3813W        W19430   5.506   5.998  15.319  0.2105  0.0245  0.0121
 3814W        W19431  15.062  15.511  14.873 -0.3305  0.1207  0.0209
 3815W        W19432  11.891   5.962  10.970 -0.0951  0.0267 -0.1588
 3816W        W19433   5.242  13.172  14.093 -0.0611  0.0925  0.1081
 3817W        W19434   9.451  13.300  12.799 -0.2962  0.2304  0.1765
 3818W        W19435   1.648   3.146  15.480 -0.1394 -0.0556 -0.1209
 3819W        W19436   2.528  11.462  15.917  0.0504  0.3837  0.1379
 3820W        W19437   8.976  11.052   4.504  0.0424  0.1034 -0.3068
 3821W        W19438  17.297   9.848  14.813 -0.0379 -0.1251  0.0917
 3822W        W19439   9.375   4.076  14.643  0.2120  0.0947  0.3864
 3823W        W19440   6.588   9.046  12.677 -0.0673 -0.1140  0.0087
 3824W        W19441   3.589   4.650   1.152  0.1772 -0.2041  0.2286
 3825W        W19442   8.811   6.976  15.428  0.3201 -0.1282  0.2416
 3826W        W19443   2.097   1.923  12.267 -0.0349 -0.0748  0.2611
 3827W        W19444   9.246   2.307  15.507  0.3033  0.2651  0.0280
 3828W        W19445   3.202   0.552  12.658  0.1278  0.0624  0.1474
 3829W        W19446  10.526  10.076  15.780  0.1788 -0.1542 -0.1309
 3830W        W19447  10.578  12.948   5.298 -0.4367  0.2780 -0.3094
 3831W        W19448   2.097  14.444  13.881 -0.3165  0.1968  0.2526
 3832W        W19449   6.441   3.577   5.474 -0.1476  0.1457  0.0350
 3833W        W19450  16.388   0.022  12.304  0.0910 -0.0110 -0.0784
 3834W        W19451   6.199   1.729  10.669  0.3333  0.1751  0.1813
 3835W        W19452   9.135   1.811   1.724 -0.5257  0.1304  0.1081
 3836W        W19453   2.367  13.599  14.958  0.1086 -0.3085 -0.0596
 3837W        W19454   5.254   7.162   6.304 -0.0172 -0.3100 -0.1077
 3838W        W19455  10.528   7.212  17.100 -0.0575 -0.0419 -0.1802
 3839W        W19456   7.210  15.877   3.197  0.1667 -0.3421  0.1025
 3840W        W19457  14.508  17.298   3.539 -0.4462  0.0842 -0.1324
 3841W        W19458   2.921   6.227   6.240 -0.1875  0.1551 -0.0537
 3842W        W19459  10.986   1.421   4.618 -0.1424  0.1331  0.1014
 3843W        W19460   4.281   4.714   1.038  0.1809 -0.1635 -0.1296
 3844W        W19461  16.651   2.627   0.119 -0.1117 -0.2282  0.1478
 3845W        W19462  13.585   4.369   1.752 -0.1739 -0.2590 -0.1113
 3846W        W19463   4.290   2.378   4.596 -0.0892 -0.1392 -0.3205
 3847W        W19464   5.959  16.767   5.837  0.0247 -0.1659  0.1300
 3848W        W19465  13.270   5.693   1.823 -0.0468 -0.2327  0.1937
 3849W        W19466   3.234   6.449  16.992  0.2524 -0.1889 -0.0075
 3850W        W19467  17.130  17.231  13.505  0.1416  0.2972 -0.2497
 3851W        W19468   2.052  17.212  14.415  0.0462 -0.0752  0.1394
 3852W        W19469  16.056  11.266   5.001  0.1547 -0.1368  0.2240
 3853W        W19470  11.099  15.758  12.061  0.0756  0.0642  0.2425
 3854W        W19471  14.091   3.780   3.039  0.1423 -0.1677  0.0722
 3855W        W19472  11.570   4.416  15.237  0.3776 -0.0767 -0.0608
 3856W        W19473  13.810   0.573  14.311 -0.2920 -0.2393  0.2033
 3857W        W19474  12.285   5.855   6.440 -0.0902 -0.0118 -0.3584
 3858W        W19475   5.316   4.332  12.191  0.0271 -0.0888  0.3153
 3859W        W19476   8.074   6.024   3.009  0.2615 -0.0277  0.3666
 3860W        W19477  15.073  16.493   2.487 -0.1511  0.1831  0.0243
 3861W        W19478  13.001  10.173  14.460  0.0969  0.1797 -0.0095
 3862W        W19479  17.491  15.778   1.663 -0.0815 -0.2679  0.0640
 3863W        W19480   3.154   7.328  16.434 -0.1762  0.1078 -0.1291
 3864W        W19481   2.006  15.802  16.207 -0.3194 -0.0435 -0.1536
 3865W        W19482   2.553  11.718  16.331 -0.0989 -0.0553 -0.0791
 3866W        W19483   7.071  14.796  15.549 -0.0529  0.1482 -0.2585
 3867W        W19484   7.942   2.613   5.449  0.2982  0.0021 -0.1184
 3868W        W19485   5.245   4.307  16.791  0.1978 -0.2846  0.0069
 3869W        W19486   7.992   9.663  13.257  0.1416  0.3873 -0.0778
 3870W        W19487   0.551  17.039   5.040 -0.0080 -0.2739  0.0764
 3871W        W19488   1.867   6.034  14.179 -0.1093  0.2075  0.2179
 3872W        W19489   7.349  13.669  15.200  0.1432 -0.2276  0.0329
 3873W        W19490   0.203   6.596  14.927 -0.2275 -0.0391  0.0841
 3874W        W19491   2.230   3.166  11.839 -0.0882  0.4097  0.0812
 3875W        W19492   4.200  17.489  12.722 -0.0370  0.0723  0.3354
 3876W        W19493   0.820  10.684   0.749  0.2551  0.2499  0.2146
 3877W        W19494  15.607   9.115  16.197  0.0001  0.0238 -0.2343
 3878W        W19495  16.582   4.156   4.982  0.1323 -0.0426 -0.2496
 3879W        W19496   4.378   7.352   5.716 -0.4136 -0.0599  0.2918
 3880W        W19497  12.541   2.123  12.862 -0.1759  0.0923 -0.2077
 3881W        W19498  12.236   1.454   2.810 -0.1758  0.0185  0.0417
 3882W        W19499   6.639   2.652  12.326  0.0520  0.1614  0.0639
 3883W        W19500   3.579   6.994   3.134 -0.2621 -0.2043  0.0380
 3884W        W19501   4.966   8.294  15.414  0.1554 -0.3047 -0.1928
 3885W        W19502  15.361  14.519   1.891 -0.0046  0.1186 -0.1672
 3886W        W19503   2.821   8.549  16.148  0.0884  0.2988 -0.2036
 3887W        W19504   1.077   9.612   5.392  0.1187 -0.2164 -0.0944
 3888W        W19505  14.556  15.095   4.782  0.0692  0.0516  0.1239
 3889W        W19506   6.396   7.790  12.400  0.1159 -0.0595  0.4250
 3890W        W19507   8.922   3.752  16.014 -0.0974  0.1700  0.2422
 3891W        W19508   6.437   7.264  13.778 -0.1145  0.2861 -0.0162
 3892W        W19509  12.366   2.001   5.528  0.1150 -0.2302  0.0826
 3893W        W19510  13.106   7.590   2.302  0.2925 -0.2731  0.3434
 3894W        W19511   9.599  12.331   2.307 -0.2341 -0.0051 -0.4433
 3895W        W19512  12.206  12.642   2.213  0.1128  0.2275 -0.1741
 3896W        W19513   7.407  13.089   2.670  0.0274  0.0056  0.0894
 3897W        W19514  13.641   8.827  12.264 -0.2060 -0.0094 -0.3802
 3898W        W19515   7.272   0.781   2.124  0.4718  0.0456 -0.0689
 3899W        W19516   8.955   3.042  14.886 -0.1021 -0.0944  0.2652
 3900W        W19517  11.687   7.596  14.098  0.0029 -0.0099  0.0865
 3901W        W19518   7.032  10.625   4.067 -0.2360  0.1123 -0.1621
 3902W        W19519  13.521   1.286  16.644 -0.1800  0.0944  0.1169
 3903W        W19520   3.780  10.927   6.749 -0.0349  0.0998 -0.2900
 3904W        W19521  12.142   7.158   2.211 -0.0016 -0.1928  0.2280
 3905W        W19522  14.095  11.980   2.991  0.2112 -0.0688 -0.2170
 3906W        W19523   1.421  15.147   3.567 -0.0164 -0.0497  0.3405
 3907W        W19524  12.821   3.156   1.046 -0.3076  0.0894 -0.0098
 3908W        W19525  15.229  16.642  14.405  0.2239  0.1006  0.0143
 3909W        W19526   5.886   4.665  12.752  0.2066 -0.0232 -0.0973
 3910W        W19527   0.132   2.220   5.944 -0.1807  0.0743 -0.2827
 3911W        W19528  12.944   8.403  14.987  0.1333  0.0700 -0.2496
 3912W        W19529  11.407  14.508  11.528 -0.2574 -0.0299 -0.0629
 3913W        W19530  13.726   3.485  15.226 -0.4303 -0.2862 -0.3187
 3914W        W19531   6.514  12.820  16.175  0.0214  0.2754 -0.3008
 3915W        W19532  15.279   6.407   4.637 -0.0064 -0.1547 -0.3985
 3916W        W19533   8.751  10.106   2.158  0.0701  0.1134  0.1705
 3917W        W19534   3.794   5.273   3.503  0.1545 -0.5418  0.1204
 3918W        W19535   1.806   7.931  14.948 -0.2491  0.0488 -0.0301
 3919W        W19536  13.690  14.537  15.934 -0.3619  0.0820  0.0719
 3920W        W19537   6.703   0.528  11.506  0.1026  0.3756 -0.2912
 3921W        W19538  11.128   3.653  14.806  0.1283  0.0594 -0.0099
 3922W        W19539  15.632   1.215  16.006  0.1653  0.2971 -0.2453
 3923W        W19540  17.296  11.448  16.804  0.0268  0.2127  0.0092
 3924W        W19541  11.371  12.461  15.556 -0.0932 -0.1926  0.0808
 3925W        W19542   4.513   0.354   1.019 -0.0979 -0.1465  0.2703
 3926W        W19543   0.303   2.809  12.826 -0.3018 -0.1017  0.0264
 3927W        W19544   8.830  13.321   4.761 -0.1785  0.1551 -0.1222
 3928W        W19545   6.654  10.709  17.052 -0.0709 -0.1175 -0.2871
 3929W        W19546  12.590  11.416  12.336  0.0095  0.2395 -0.0560
 3930W        W19547   3.814   2.235   1.005  0.1337  0.1841  0.3006
 3931W        W19548  12.418  11.779  16.050  0.0964  0.2186  0.2647
 3932W        W19549  10.858  15.154  14.850 -0.1329  0.1094  0.0453
 3933W        W19550   0.368  13.617   4.597 -0.1979  0.0704 -0.0622
 3934W        W19551   3.921  12.955   3.967 -0.0268 -0.0351 -0.2374
 3935W        W19552   0.754   0.486  15.654 -0.2552  0.0560 -0.0479
 3936W        W19553  17.095   5.273  13.730 -0.0421 -0.2657 -0.0484
 3937W        W19554   4.408  12.756  12.673  0.0016  0.4116 -0.0079
 3938W        W19555   3.832  12.506  14.230  0.0311  0.0623 -0.1207
 3939W        W19556  11.812   4.914   5.481  0.0165  0.0092  0.1279
 3940W        W19557   3.494   4.058   4.908 -0.0227 -0.2643 -0.0075
 3941W        W19558   2.929   1.085  14.859 -0.1346  0.1425  0.0107
 3942W        W19559  13.319  14.849  12.717  0.0426 -0.0528  0.0470
 3943W        W19560   3.313  11.450   5.906  0.0111 -0.2701 -0.2416
 3944W        W19561  11.106   8.691   2.039 -0.3244  0.3214 -0.0215
 3945W        W19562   4.761   7.689   0.182  0.1893 -0.0720 -0.1773
 3946W        W19563   1.543   0.203  15.508  0.0951  0.0490  0.0924
 3947W        W19564  12.040   9.178  14.793  0.3412 -0.2019 -0.0218
 3948W        W19565  16.927   4.919   0.863 -0.1374 -0.0958 -0.3708
 3949W        W19566   0.461  16.530   5.374 -0.1239  0.1705 -0.3374
 3950W        W19567   7.955  15.371  14.552  0.0109  0.2811  0.1901
 3951W        W19568   7.090  11.766   3.393  0.0694  0.0898  0.1523
 3952W        W19569   7.987   1.671  15.989 -0.2452 -0.2366  0.0316
 3953W        W19570   6.353   8.867   5.010  0.0129  0.0841  0.2013
 3954W        W19571  11.780   1.177  16.911  0.2789 -0.3209 -0.1138
 3955W        W19572   7.131  17.410  12.377  0.0390 -0.0558 -0.2520
 3956W        W19573   1.101   0.037   3.880 -0.2266  0.2053 -0.0872
 3957W        W19574  10.485   0.246   5.504 -0.0512 -0.0745 -0.2754
 3958W        W19575  16.500   9.885   1.977 -0.0566 -0.0024 -0.0442
 3959W        W19576   5.789   4.536   0.954 -0.3295 -0.0188 -0.0945
 3960W        W19577   3.424  13.264  13.241 -0.0621  0.1955 -0.1433
 3961W        W19578  13.378   2.632  11.675 -0.2611 -0.0908 -0.2502
 3962W        W19579   9.694  10.147   0.872 -0.3149  0.0565 -0.2959
 3963W        W19580  16.101   7.828  16.235 -0.0272  0.0083 -0.0140
 3964W        W19581  17.196  10.284   6.420  0.0541  0.1178 -0.3027
 3965W        W19582  11.328   7.341  12.089 -0.0230  0.0932 -0.0500
 3966W        W19583   9.232  13.743  16.126  0.1047 -0.0244  0.0166
 3967W        W19584   4.568   6.311  16.182 -0.1126 -0.0638 -0.0632
 3968W        W19585  15.055  16.563   3.054  0.1655  0.0264 -0.0588
 3969W        W19586  16.094   8.475   3.763 -0.0399 -0.0276  0.1064
 3970W        W19587   3.905   1.697   0.821 -0.2513 -0.2328  0.5035
 3971W        W19588   6.145   4.531   0.496 -0.1453 -0.0807 -0.0739
 3972W        W19589  13.392   2.348   3.975 -0.1243  0.0719  0.0847
 3973W        W19590   5.653  17.184  16.946 -0.2178  0.0089 -0.0517
 3974W        W19591  14.866   7.752   5.650 -0.0069 -0.3504 -0.2447
 3975W        W19592   4.562   5.467  12.639  0.0373 -0.0403 -0.2747
 3976W        W19593   3.590  12.444   4.629 -0.1182 -0.0024  0.0092
 3977W        W19594  10.001  14.158  15.262  0.2512 -0.1434  0.2345
 3978W        W19595   0.649   7.707  13.228  0.2304  0.2378  0.1753
 3979W        W19596  14.791   9.977   6.171 -0.1919  0.2492  0.1170
 3980W        W19597   4.276  14.310   0.029  0.2163  0.3834  0.4909
 3981W        W19598   6.685  14.105  16.357 -0.1350 -0.3083 -0.0096
 3982W        W19599  12.024   4.581  16.921  0.3240  0.1165 -0.0457
 3983W        W19600  10.668   4.734   6.094 -0.1143 -0.1002 -0.1297
 3984W        W19601   4.181  16.963   2.170 -0.0809  0.0173 -0.0605
 3985W        W19602  17.485   9.904  15.480  0.0847  0.0441 -0.3467
 3986W        W19603  12.135  14.736   6.161 -0.1582  0.1693  0.0855
 3987W        W19604   9.858  16.214  11.684 -0.2357  0.0608  0.2521
 3988W        W19605   0.518   2.473  13.485 -0.2935 -0.1853  0.0525
 3989W        W19606   6.722  16.511   1.901  0.0666 -0.0561 -0.0749
 3990W        W19607   6.569  16.491  12.573  0.1131 -0.0251  0.2489
 3991W        W19608  12.758   1.294  17.070 -0.1159  0.1534  0.0261
 3992W        W19609  16.858  16.910  14.947  0.1729 -0.1150 -0.2526
 3993W        W19610  12.909   0.310  17.155  0.0506 -0.1212 -0.0014
 3994W        W19611  13.977  14.542  16.906 -0.0953  0.3392  0.0355
 3995W        W19612  10.534   5.520   5.368 -0.2186  0.0825 -0.2917
 3996W        W19613  16.887  12.400   3.828 -0.1270 -0.0324 -0.2343
 3997W        W19614   9.362  14.898  12.919  0.1572  0.0365  0.2517
 3998W        W19615  17.449  15.143  12.642  0.2191 -0.0957 -0.1036
 3999W        W19616   1.200   4.735  15.856  0.1627 -0.0889 -0.1372
 4000W        W19617  13.902   9.580  13.320  0.4875  0.0612  0.0383
 4001W        W19618   9.093   3.848   5.017  0.0545 -0.2445 -0.0750
 4002W        W19619  11.367  10.346   3.094  0.3303 -0.3147  0.3828
 4003W        W19620   9.100  10.374  13.365  0.0327  0.1008  0.1872
 4004W        W19621   6.369   2.772   1.341  0.2309  0.0033 -0.0035
 4005W        W19622   9.762   1.446  12.336 -0.0480 -0.0875 -0.2335
 4006W        W19623   5.493   7.566   2.654 -0.2346 -0.1852  0.3380
 4007W        W19624  10.813   0.173   4.018 -0.4257  0.1323  0.1246
 4008W        W19625  12.987   3.035   4.364 -0.0512  0.0146  0.0724
 4009W        W19626   4.967   0.441   3.032 -0.1179  0.1692 -0.1926
 4010W        W19627  14.690   2.198   3.330  0.4473 -0.0950  0.2780
 4011W        W19628  12.919   6.275  15.569 -0.0408 -0.0847 -0.0300
 4012W        W19629   9.560  17.131   3.018  0.1092 -0.0633 -0.2250
 4013W        W19630  13.095   7.546   1.322  0.1578  0.0019  0.2809
 4014W        W19631   6.921  16.064   1.569  0.1325  0.0175  0.0993
 4015W        W19632  15.534   6.870  12.981  0.0504 -0.1397  0.2904
 4016W        W19633   0.292   3.390   0.879 -0.1987 -0.2380 -0.0812
 4017W        W19634  13.868   1.057   5.354  0.0416  0.1803  0.3138
 4018W        W19635   0.760   2.340   5.945 -0.2620 -0.2068  0.0305
 4019W        W19636   2.718   9.637  13.180 -0.1287 -0.0676 -0.0188
 4020W        W19637  10.258   9.435   3.203 -0.1813 -0.1388  0.0121
 4021W        W19638   1.661  10.793   3.290  0.1023  0.1747  0.1842
 4022W        W19639  10.121   1.760   2.123 -0.0657  0.0033 -0.1439
 4023W        W19640  15.659  15.888   3.383  0.1815 -0.2470 -0.2318
 4024W        W19641  14.107  12.760   4.160  0.3823  0.1231  0.0805
 4025W        W19642   2.428   7.148   3.854 -0.1090  0.3153 -0.2503
 4026W        W19643   7.189  11.233  15.497 -0.0753 -0.0428 -0.2455
 4027W        W19644   1.242   3.734  13.303 -0.0798  0.1265 -0.1609
 4028W        W19645   4.976  13.446   4.140 -0.3585 -0.1541  0.0770
 4029W        W19646   3.423   0.718   5.108  0.4050 -0.0964  0.1911
 4030W        W19647   1.346  10.677   2.478  0.1204  0.1214 -0.0659
 4031W        W19648   8.450  13.326  17.067  0.1460  0.0593 -0.0554
 4032W        W19649   7.796   0.002  14.700 -0.0753  0.2567  0.4111
 4033W        W19650   3.295  13.563  15.264  0.0257 -0.2582  0.1896
 4034W        W19651   5.530   0.277  15.677 -0.2658  0.1763  0.0644
 4035W        W19652  13.715  12.491  11.984 -0.0668  0.0911 -0.2520
 4036W        W19653   3.555  10.882   5.349  0.1692 -0.2290 -0.1227
 4037W        W19654  10.348  11.691  15.322 -0.0052 -0.1792 -0.3605
 4038W        W19655   8.315   6.711  14.597  0.2937  0.2662  0.3539
 4039W        W19656   5.254  13.279   0.485  0.1195  0.1539  0.0255
 4040W        W19657  12.506   9.571   5.110  0.0468  0.1886  0.1439
 4041W        W19658  15.424   7.488  17.172 -0.2411  0.2665  0.0000
 4042W        W19659   8.799   9.722  12.047 -0.0755 -0.0069  0.1510
 4043W        W19660   1.600  11.738   5.138 -0.1047  0.0051  0.0133
 4044W        W19661   4.715  14.131   2.626 -0.1218 -0.1143  0.2403
 4045W        W19662   6.794   6.004   4.221  0.0477 -0.2510 -0.0215
 4046W        W19663   4.379   5.086  12.311  0.3290 -0.1506 -0.0549
 4047W        W19664   1.498  14.369   2.184  0.0415  0.0241  0.1423
 4048W        W19665   7.536  16.041  12.845 -0.2114  0.2612  0.0997
 4049W        W19666   1.829   9.668   3.449  0.0001 -0.0028  0.2875
 4050W        W19667   6.082   4.414  15.805  0.2425  0.0742  0.2557
 4051W        W19668   3.283   0.554   5.985 -0.0002 -0.3083 -0.0519
 4052W        W19669   4.774  14.701  14.235  0.4530 -0.5504  0.4292
 4053W        W19670  17.058   1.132  11.455  0.1493 -0.1560  0.2497
 4054W        W19671   0.077  15.534   3.727  0.1636 -0.3543 -0.1865
 4055W        W19672   2.162  15.551   1.094 -0.2312 -0.3506 -0.1785
 4056W        W19673  16.845  17.558  15.569 -0.0686  0.0009 -0.0205
 4057W        W19674  11.996  13.281  16.748  0.1990 -0.1294  0.0463
 4058W        W19675  17.318   5.211  14.915 -0.0433 -0.1203  0.1000
 4059W        W19676   0.276   1.113  12.251 -0.1471 -0.3439  0.0707
 4060W        W19677  16.677   1.592   2.694 -0.0274  0.2657 -0.1282
 4061W        W19678   2.568  12.263   1.964 -0.2051  0.1605 -0.3409
 4062W        W19679  11.539   3.819  15.523  0.2480 -0.2020  0.0112
 4063W        W19680  10.213  15.074   1.740 -0.3424 -0.1932 -0.2896
 4064W        W19681  11.114   1.233  14.287 -0.1200  0.1139 -0.1326
 4065W        W19682  12.254  13.089  14.137  0.0472  0.3207 -0.1538
 4066W        W19683  12.387   3.088  15.036  0.0087 -0.0114 -0.0967
 4067W        W19684  13.705   7.661  12.449  0.0550  0.0057  0.1442
 4068W        W19685   5.731  11.456   5.429  0.2340 -0.0998 -0.0738
 4069W        W19686  14.246   7.279   1.537  0.1431  0.1220  0.1445
 4070W        W19687  10.835  17.392  14.775 -0.0800 -0.3333  0.0393
 4071W        W19688  15.714  16.509   5.641  0.0511 -0.0423 -0.0617
 4072W        W19689  14.592   1.614  15.139 -0.0875 -0.0534 -0.1103
 4073W        W19690  11.739   2.639   1.748 -0.0304 -0.1109 -0.1744
 4074W        W19691   7.956   4.464  11.993 -0.1745 -0.1757 -0.1863
 4075W        W19692   3.027   0.726   5.528  0.0068 -0.0125 -0.0135
 4076W        W19693   5.259   4.940   3.826  0.0583  0.0563 -0.3314
 4077W        W19694  10.370   7.337  14.533  0.5756 -0.1361 -0.0819
 4078W        W19695   8.747   1.906   4.803 -0.0314  0.0570 -0.2131
 4079W        W19696  16.474   2.182  11.971  0.2647 -0.0256 -0.1678
 4080W        W19697   9.027   4.057  15.081 -0.3375 -0.3301  0.3296
 4081W        W19698   8.262  16.503   2.815  0.2037 -0.3635 -0.2157
 4082W        W19699   7.752   6.133  13.739  0.0909 -0.0408 -0.0883
 4083W        W19700  11.008  12.543  17.186  0.2249 -0.1352 -0.2162
 4084W        W19701  12.874   4.162   3.946  0.2089  0.0786 -0.0896
 4085W        W19702   3.319  10.299   2.734 -0.2910 -0.2556  0.1150
 4086W        W19703  16.186  13.099   1.286 -0.0205 -0.0238 -0.0219
 4087W        W19704  11.050   3.260   2.830  0.0469  0.0937 -0.1899
 4088W        W19705   0.448  11.651   4.770 -0.0565  0.0436  0.2729
 4089W        W19706   3.046   0.133  14.645  0.0107 -0.2547  0.0726
 4090W        W19707  15.987   3.217  17.291 -0.2592 -0.0489 -0.0120
 4091W        W19708   1.160   8.024  13.421  0.2341 -0.0167  0.1417
 4092W        W19709   4.912  16.611   4.768  0.5017 -0.1739 -0.3954
 4093W        W19710  11.194  15.351  13.996  0.3437  0.1185 -0.1105
 4094W        W19711   9.908  11.808   1.383 -0.0129 -0.3409 -0.0842
 4095W        W19712  10.430  12.651  16.945  0.1212  0.3662 -0.3068
 4096W        W19713  17.004   2.400   3.097 -0.5118  0.0103  0.0002
 4097W        W19714   8.801   4.906   3.981 -0.0093 -0.0467 -0.0465
 4098W        W19715   5.983   6.736  12.425  0.1302 -0.0402 -0.0158
 4099W        W19716  12.680   2.388   4.813 -0.0508  0.1460  0.1466
 4100W        W19717  14.461   7.708   2.274  0.0017  0.1158  0.0333
 4101W        W19718  16.837  12.584   1.635 -0.1682  0.0280  0.0386
 4102W        W19719   6.165   9.180  12.298  0.0937 -0.3012  0.2168
 4103W        W19720   3.975  16.022   0.792  0.0049  0.0407 -0.2980
 4104W        W19721  16.627   2.906  14.603  0.0281 -0.0934  0.2129
 4105W        W19722  12.835   0.895  14.207 -0.3113  0.0841 -0.0004
 4106W        W19723   8.518  12.152  11.771 -0.1747  0.3025  0.1022
 4107W        W19724   5.202  11.824   3.094 -0.2795  0.0832 -0.2716
 4108W        W19725   6.780   5.845   1.789  0.1049  0.0697  0.3599
 4109W        W19726   4.597   6.613   1.411 -0.4051 -0.2070 -0.0538
 4110W        W19727   8.147   2.611  13.211  0.1007 -0.1501 -0.1937
 4111W        W19728  14.541  12.796   2.775 -0.2280  0.1579  0.1497
 4112W        W19729  11.106  14.311   4.993  0.1932  0.0580  0.2231
 4113W        W19730   2.342  12.058   3.865 -0.3617 -0.3653 -0.0608
 4114W        W19731   6.829   8.561  16.197  0.0814 -0.0807  0.0509
 4115W        W19732  11.394   2.919   0.137 -0.3166 -0.2565 -0.0290
 4116W        W19733  15.592  15.637  16.043  0.1108 -0.1116  0.1736
 4117W        W19734  13.896  16.385   5.667 -0.1388 -0.1546  0.1352
 4118W        W19735  12.167  12.941  16.444 -0.2258  0.0156  0.0666
 4119W        W19736   8.769  14.921   0.306 -0.0336 -0.1123  0.0097
 4120W        W19737  13.411   4.210  13.014  0.5595  0.1865 -0.0726
 4121W        W19738  12.576  15.175  12.234  0.0298  0.1903 -0.0325
 4122W        W19739  14.811  10.001   0.981 -0.1051 -0.1048 -0.1939
 4123W        W19740  13.149  12.002  14.987 -0.0829  0.2110  0.1234
 4124W        W19741   0.882  10.014  14.514  0.0492 -0.0642 -0.0066
 4125W        W19742   0.300  10.276   0.234  0.0829  0.1599 -0.1666
 4126W        W19743  10.989   8.112  14.500  0.2439  0.0783 -0.0118
 4127W        W19744   1.882   5.091  14.656 -0.0452  0.1145  0.0125
 4128W        W19745  11.747  11.630  16.429 -0.3321 -0.0449  0.2656
 4129W        W19746  15.520  10.953   3.508 -0.1638 -0.1451  0.1244
 4130W        W19747   5.180  16.577   5.193 -0.2236 -0.1892 -0.0431
 4131W        W19748   3.057   5.296  12.352 -0.2048  0.0443 -0.1481
 4132W        W19749  16.668  11.861  15.047  0.1147  0.1317  0.2966
 4133W        W19750   0.083   6.092  13.312  0.0214  0.1915  0.3928
 4134W        W19751   3.415  14.708   4.144  0.1263 -0.0379  0.1346
 4135W        W19752   1.495   9.585  16.697 -0.1120  0.1391  0.1315
 4136W        W19753   1.982   7.182  15.144 -0.0914 -0.3102 -0.0066
 4137W        W19754  13.326   0.215  12.575 -0.1094 -0.0493 -0.1906
 4138W        W19755   5.737  12.113   2.704 -0.0662  0.1139  0.2209
 4139W        W19756   9.105  14.699  13.304 -0.0436  0.0021  0.1155
 4140W        W19757  12.892   8.062   1.389  0.1244 -0.0848 -0.0269
 4141W        W19758   5.887   8.739   5.771 -0.3398 -0.0523 -0.1338
 4142W        W19759  10.703   6.908  14.400  0.3063 -0.1223  0.1588
 4143W        W19760   5.572   5.420  17.017 -0.1003 -0.2219  0.0454
 4144W        W19761  15.264  11.005   5.929  0.0013 -0.3764  0.0081
 4145W        W19762   8.154  11.989  13.480 -0.0158 -0.0801 -0.2010
 4146W        W19763  13.058  17.443  12.915 -0.4512 -0.0510  0.0637
 4147W        W19764  12.142   2.597  14.460 -0.1202 -0.0869  0.3141
 4148W        W19765   8.173  14.158   3.872 -0.0457 -0.2299 -0.1868
 4149W        W19766  11.918   2.098   4.478  0.0502 -0.1937  0.0159
 4150W        W19767  15.495   4.508   1.923 -0.1020 -0.0372  0.0918
 4151W        W19768  12.581  16.040   2.615 -0.0961  0.0289  0.1654
 4152W        W19769  13.113   7.446  13.422  0.2760  0.2170  0.2194
 4153W        W19770   2.195   1.452   5.383 -0.0650 -0.3582  0.1412
 4154W        W19771   3.229   8.847   2.627 -0.0195 -0.1210  0.0571
 4155W        W19772  16.904   4.402   4.064 -0.1178 -0.2771  0.0374
 4156W        W19773   3.094   8.356  15.094  0.1659  0.1017 -0.0006
 4157W        W19774  10.233   1.400  14.539  0.1057  0.0207 -0.0811
 4158W        W19775  16.005   4.465  16.012  0.0792  0.0966 -0.0795
 4159W        W19776  16.630   3.505   4.229 -0.1767 -0.1777 -0.1059
 4160W        W19777   3.813  14.310  15.373 -0.0492  0.0702 -0.2977
 4161W        W19778  14.952   9.441   1.848 -0.0122  0.2263 -0.2539
 4162W        W19779  12.799  12.983  16.428  0.0734 -0.3273  0.0903
 4163W        W19780  15.395   9.785  16.834 -0.1798 -0.0464  0.5809
 4164W        W19781   1.932  16.279   2.980 -0.0961  0.0144 -0.0121
 4165W        W19782  12.019   7.951   1.130  0.2147 -0.1009 -0.1184
 4166W        W19783  13.473  16.729   1.283 -0.0191 -0.1160  0.0512
 4167W        W19784   5.588   1.299  12.870 -0.0478  0.0271  0.0252
 4168W        W19785   9.921  14.890   4.653 -0.3583  0.2616 -0.0389
 4169W        W19786   9.513   2.177  15.872  0.1119  0.3088  0.2185
 4170W        W19787  12.791  11.654  14.158  0.1504  0.4124  0.4637
 4171W        W19788  12.953   7.599   3.304 -0.0728 -0.0134 -0.0676
 4172W        W19789   9.428   8.865   4.355 -0.1829  0.0230 -0.2037
 4173W        W19790   2.399   8.611   4.886 -0.0212 -0.1606  0.0345
 4174W        W19791  10.076   3.453   3.753 -0.2462 -0.2074 -0.1339
 4175W        W19792   9.252   8.574   5.590  0.1189 -0.1724  0.0470
 4176W        W19793  14.869   0.455   1.083 -0.0025  0.0460 -0.2649
 4177W        W19794   7.197  12.240   0.158 -0.2619 -0.0311 -0.2700
 4178W        W19795   0.871   0.088  15.918 -0.0423 -0.2821 -0.0688
 4179W        W19796   3.673  12.210   0.465 -0.3109 -0.0491 -0.0164
 4180W        W19797   1.307   2.188   6.063  0.2144  0.1622  0.2095
 4181W        W19798   8.066   1.234   5.255 -0.1607 -0.2681  0.1135
 4182W        W19799  13.485  16.022  13.163  0.2260  0.0924  0.1033
 4183W        W19800   9.180   7.774   1.105 -0.1787  0.1589  0.0699
 4184W        W19801   9.624   7.791   0.596  0.0595  0.2416 -0.0709
 4185W        W19802   8.088   4.219  15.703 -0.4499 -0.3857  0.0001
 4186W        W19803   1.802   8.375   0.258 -0.1221  0.2124  0.1252
 4187W        W19804   6.468  12.263   1.373  0.1747  0.1007 -0.3244
 4188W        W19805   6.945   5.428  12.981 -0.2519 -0.0408  0.1836
 4189W        W19806   4.001   2.366  14.383 -0.0867  0.0586 -0.1299
 4190W        W19807   8.687   3.933   5.316 -0.0725 -0.4146  0.0337
 4191W        W19808   3.269  17.407   1.413 -0.4381  0.2451  0.3973
 4192W        W19809  10.267  15.583  12.606 -0.0027 -0.0183  0.1592
 4193W        W19810  16.735   9.511   4.751 -0.1625  0.0476  0.2556
 4194W        W19811  10.424   3.915   3.553 -0.1881  0.1378  0.0883
 4195W        W19812  11.539  13.260   4.770 -0.2219  0.2728 -0.0167
 4196W        W19813   7.647   6.384  15.403 -0.2462 -0.2187  0.1399
 4197W        W19814   1.440   3.022  14.421 -0.1689  0.2834  0.1659
 4198W        W19815   6.095   6.709   0.100 -0.3312 -0.1335 -0.2131
 4199W        W19816   0.187  17.459  15.954 -0.0906  0.1386 -0.0500
 4200W        W19817  11.878  16.410   4.756 -0.1356  0.0374 -0.1246
 4201W        W19818  16.562   5.710   2.889  0.1761 -0.2083  0.2193
 4202W        W19819  16.054  12.675  12.526 -0.2988  0.1871 -0.1076
 4203W        W19820  11.757  12.589   1.294 -0.0355  0.0399 -0.3249
 4204W        W19821  11.178   0.957   2.302  0.4927 -0.3200 -0.0784
 4205W        W19822  13.014  12.004   3.466 -0.1025  0.3905  0.1191
 4206W        W19823   2.927   1.096   2.011  0.1510 -0.1034  0.0194
 4207W        W19824  12.967   0.158  15.582  0.4936 -0.0212 -0.2767
 4208W        W19825  13.287  16.100   0.912  0.0010 -0.2679  0.0370
 4209W        W19826   2.893  12.973   2.833 -0.0217 -0.1480  0.4165
 4210W        W19827  15.948   9.702  14.008  0.1766  0.1080 -0.1666
 4211W        W19828  13.721  10.625   0.501 -0.0462 -0.0849  0.2130
 4212W        W19829  13.351   1.002  14.173 -0.0288 -0.0227  0.0885
 4213W        W19830  16.906  17.050   4.056 -0.0745 -0.1198  0.3576
 4214W        W19831   7.912  11.607  12.838 -0.1753 -0.1266  0.0702
 4215W        W19832  11.425   8.620  12.976 -0.0538  0.0214  0.1855
 4216W        W19833   1.934   5.201  12.943  0.3207 -0.1272 -0.1976
 4217W        W19834   2.316   0.770   0.236  0.0226 -0.0633 -0.0320
 4218W        W19835  11.517   7.792   5.901  0.0480  0.5474  0.1790
 4219W        W19836  15.713   1.891  11.819 -0.0539 -0.0688 -0.0710
 4220W        W19837  15.854   1.098  16.473  0.0411 -0.1296 -0.0513
 4221W        W19838   6.976   3.162   0.558  0.1602 -0.3417  0.0276
 4222W        W19839   3.308   5.132   3.413 -0.0220  0.1371 -0.0974
 4223W        W19840  11.340   0.250  15.817 -0.2809 -0.0905 -0.0191
 4224W        W19841  10.114  11.575  12.416 -0.0075  0.3820 -0.1384
 4225W        W19842   4.920   9.236  15.591 -0.0679 -0.1309 -0.1254
 4226W        W19843  11.457   0.946   3.082  0.1959  0.2516  0.0428
 4227W        W19844   3.635  15.536  11.712  0.2703  0.3181  0.0959
 4228W        W19845   7.970   6.398  14.964  0.0029 -0.0132  0.1107
 4229W        W19846   5.284   3.398  12.287  0.0883  0.2229  0.1027
 4230W        W19847   9.907   9.326   2.707  0.0874 -0.0412  0.1083
 4231W        W19848   9.998  14.841   1.340 -0.0504  0.2189 -0.0253
 4232W        W19849   4.924   4.309   4.293 -0.1493  0.1810  0.1738
 4233W        W19850  12.443  16.185  15.751  0.2774  0.0021  0.1719
 4234W        W19851  12.685   1.332   4.578  0.1183 -0.1166  0.1191
 4235W        W19852  10.615  12.975  11.679  0.2569 -0.0749  0.1108
 4236W        W19853   2.944   0.362  16.369 -0.0814  0.3327 -0.0383
 4237W        W19854  14.113  11.088   4.694  0.5513 -0.0443 -0.0365
 4238W        W19855   3.916   0.737   3.341  0.0417  0.0232  0.0725
 4239W        W19856   9.090   9.395   2.885  0.2118  0.1262  0.0783
 4240W        W19857   7.413  13.699   3.863 -0.6153 -0.2645 -0.0565
 4241W        W19858  13.390   3.847  15.949  0.1452  0.0673  0.0698
 4242W        W19859   8.929   9.084   1.007  0.0154 -0.2295 -0.1156
 4243W        W19860   4.163  10.241   1.355 -0.3230  0.2248  0.2421
 4244W        W19861   0.021   9.470  14.156  0.2346 -0.2579  0.1397
 4245W        W19862  16.129  17.129   4.751 -0.0013 -0.3838  0.0052
 4246W        W19863  17.475  12.404  16.830  0.1840 -0.0394  0.2358
 4247W        W19864  14.429  17.189   2.462  0.0478  0.1501  0.0084
 4248W        W19865  14.211  17.240  16.814  0.1065  0.0140  0.1095
 4249W        W19866  13.452  15.236  14.518 -0.4109 -0.0626  0.2287
 4250W        W19867  10.802  12.656   4.630  0.1864 -0.2581  0.0231
 4251W        W19868  10.670  13.780  16.945 -0.3726  0.2567 -0.0652
 4252W        W19869   3.565   0.971  12.750 -0.1450  0.1153  0.0058
 4253W        W19870  17.548  11.503   4.642 -0.1268  0.1543  0.1654
 4254W        W19871  11.875   0.569  14.124 -0.0659  0.2090  0.0178
 4255W        W19872  10.128  14.393   0.589  0.0517  0.0493 -0.2525
 4256W        W19873   2.981  14.539   3.931 -0.0537  0.2449  0.1824
 4257W        W19874   0.742  10.519  17.005  0.0162 -0.2101  0.1939
 4258W        W19875   3.567   7.217   4.059 -0.0336 -0.0212 -0.0426
 4259W        W19876   2.792  11.891   3.515  0.1117 -0.0811  0.0037
 4260W        W19877   2.490  10.665   3.610  0.0092  0.1421  0.0831
 4261W        W19878   9.572  14.386  16.668  0.1892 -0.2431 -0.1425
 4262W        W19879  13.156   2.134  14.191  0.1355 -0.1057  0.3232
 4263W        W19880   9.965   5.456  13.455  0.2708 -0.0315 -0.1439
 4264W        W19881  13.538   2.120   3.562  0.1498  0.3635  0.1864
 4265W        W19882   5.188  13.248   5.494 -0.1909  0.0877 -0.2363
 4266W        W19883  13.730   9.126  14.020 -0.2117  0.2253 -0.0010
 4267W        W19884  15.607   1.825  15.318 -0.2480  0.0175 -0.0937
 4268W        W19885  12.103  16.996   3.657  0.1690 -0.0296  0.0419
 4269W        W19886   8.740  12.542  13.758  0.1591 -0.3329  0.0145
 4270W        W19887  12.530  14.566  12.406 -0.3881  0.1924  0.3890
 4271W        W19888   9.308  13.427  14.826 -0.2457  0.0525  0.1330
 4272W        W19889  16.438  16.733   3.858  0.1872  0.1239  0.1137
 4273W        W19890   1.836   9.443  15.473 -0.0800 -0.0628  0.5320
 4274W        W19891  15.442  10.872   1.087 -0.1091 -0.3027 -0.0620
 4275W        W19892   6.504  11.866   5.916  0.0911 -0.1486  0.2520
 4276W        W19893   7.292  17.335   3.797 -0.1839  0.0351  0.2841
 4277W        W19894  12.280   0.947   5.416  0.2123 -0.0359 -0.0861
 4278W        W19895   2.281   2.009   2.905 -0.0573 -0.2343  0.0449
 4279W        W19896  15.640   8.586   3.489 -0.0440  0.0646  0.3010
 4280W        W19897   2.961   0.985   5.931 -0.0023  0.0853 -0.0878
 4281W        W19898   2.364  11.091  14.511  0.2191  0.2836 -0.0185
 4282W        W19899   7.888  16.563   1.392 -0.0682  0.1054 -0.1427
 4283W        W19900  17.315  16.843   4.174  0.2042  0.0903 -0.1942
 4284W        W19901   5.414   3.232   3.643  0.1507  0.1492  0.0885
 4285W        W19902   7.057  14.795   5.005  0.2456  0.1079 -0.2073
 4286W        W19903   9.506   0.710  16.217 -0.3164  0.1239  0.3151
 4287W        W19904  14.490  13.426   0.562 -0.1129 -0.3221  0.3242
 4288W        W19905   8.859   5.435   1.991 -0.0221  0.0925 -0.1682
 4289W        W19906  13.922  15.296  17.206 -0.0916  0.3810  0.3279
 4290W        W19907   4.788   8.276   4.755  0.0344  0.1590 -0.2249
 4291W        W19908  15.067  13.826  12.662  0.1293  0.0789 -0.0961
 4292W        W19909   6.854   1.639   3.924 -0.2007  0.0386 -0.0979
 4293W        W19910   5.899   1.284   2.760  0.1036 -0.0807 -0.1268
 4294W        W19911   4.260  16.896  11.489 -0.1811  0.0745 -0.0966
 4295W        W19912  16.788   2.400  12.777  0.2387 -0.2192  0.1254
 4296W        W19913  14.884   8.309  16.363  0.1129  0.1478  0.0029
 4297W        W19914  15.233   4.170   4.873  0.2283  0.1218 -0.0412
 4298W        W19915   7.900  11.669  16.340 -0.1927  0.2507  0.0412
 4299W        W19916   8.272  13.631   5.399  0.0179 -0.0226  0.1223
 4300W        W19917   7.269   4.997   4.401 -0.0449 -0.4703 -0.0417
 4301W        W19918   5.592  10.145   0.084  0.1048  0.1719 -0.1848
 4302W        W19919  14.827  11.419   2.140 -0.0395  0.1882  0.5532
 4303W        W19920  16.578  13.456  16.125 -0.0082  0.0627 -0.1798
 4304W        W19921   1.549   4.888  11.404  0.0606  0.2327 -0.1725
 4305W        W19922   0.094   4.123  16.888 -0.2656  0.0705 -0.2470
 4306W        W19923   8.215   4.176  10.394 -0.2149 -0.1145  0.0989
 4307W        W19924  15.220  11.302   2.511  0.2956 -0.1142 -0.0886
 4308W        W19925  14.302   0.823  13.369  0.1904 -0.2497 -0.0630
 4309W        W19926  14.096   7.135   6.388  0.3943  0.3548  0.0543
 4310W        W19927  15.189  15.716  13.923 -0.2098  0.0332 -0.2097
 4311W        W19928  14.421   2.675  15.438  0.1351  0.0036  0.0913
 4312W        W19929  10.392   0.323  12.277 -0.0030 -0.1980 -0.0264
 4313W        W19930   0.531   5.537  12.649 -0.2616 -0.0851  0.1752
 4314W        W19931  10.814   4.135   2.919 -0.1604  0.2409  0.1022
 4315W        W19932   8.196  15.290  17.193  0.0213  0.1425  0.1013
 4316W        W19933   5.285   8.077   4.605  0.1895  0.1629  0.0131
 4317W        W19934   1.450   8.170   2.092  0.2269  0.0470 -0.4726
 4318W        W19935  13.905   8.717  16.709  0.0552  0.5048  0.0157
 4319W        W19936   2.263  11.917   5.099 -0.1386  0.1632  0.3243
 4320W        W19937   6.275  13.126   1.555 -0.2588  0.0310 -0.2211
 4321W        W19938   8.141   8.240   4.692  0.1868 -0.0423 -0.0360
 4322W        W19939   0.774  13.877  11.839  0.0792  0.1352 -0.1521
 4323W        W19940  16.066  14.578   5.954 -0.2110  0.1772  0.2070
 4324W        W19941  10.942  11.221   2.119  0.0505 -0.0033 -0.0817
 4325W        W19942  12.532  11.768   4.233  0.0133 -0.4196 -0.0197
 4326W        W19943   2.218   0.345   0.567  0.0853  0.2446  0.2564
 4327W        W19944  11.242   9.498  15.262 -0.1110  0.0533  0.0112
 4328W        W19945   9.461   6.771   3.790  0.4488 -0.1775  0.0080
 4329W        W19946   4.710   1.215  12.157  0.0221 -0.3354 -0.2062
 4330W        W19947  13.624   8.401   6.114 -0.2115  0.2292 -0.1374
 4331W        W19948  14.412   8.616  15.660 -0.1754  0.0176 -0.1631
 4332W        W19949  12.983   1.274  12.326  0.3003  0.0377  0.0158
 4333W        W19950   8.869   8.287   5.747 -0.0383 -0.1311 -0.3357
 4334W        W19951  11.855  14.425   0.316  0.0626  0.0722  0.3534
 4335W        W19952  10.763   0.519   0.595 -0.1920 -0.0657 -0.0141
 4336W        W19953   8.197   9.305  13.687  0.0571 -0.0366  0.0200
 4337W        W19954  11.479   1.298  14.714  0.2588  0.0425 -0.4206
 4338W        W19955   6.909   8.844   1.552  0.1434  0.2664  0.0663
 4339W        W19956  10.914   6.475  16.313  0.2400 -0.1219 -0.1567
 4340W        W19957  16.347  16.135  14.032  0.0591 -0.1343 -0.2550
 4341W        W19958   6.718   8.445   2.369  0.0296  0.0717 -0.1675
 4342W        W19959  11.547  12.295   4.410 -0.2810 -0.0113  0.2366
 4343W        W19960  13.591  12.366   2.963  0.1513 -0.0693 -0.0334
 4344W        W19961  13.755   7.170  14.180  0.0851  0.4082 -0.1429
 4345W        W19962  14.719   0.885  16.179 -0.1471  0.1047  0.1241
 4346W        W19963  17.079   5.057   1.339 -0.2954  0.3070  0.1580
 4347W        W19964  16.156   8.810   0.803  0.0039  0.1742 -0.3240
 4348W        W19965  14.345   5.955   2.420 -0.0198  0.0934 -0.3823
 4349W        W19966  16.076   6.755   2.831 -0.3478  0.0343 -0.1385
 4350W        W19967   7.448  15.429  14.360  0.1293  0.1519  0.0365
 4351W        W19968   7.490  10.567  15.084 -0.0311  0.0716  0.0645
 4352W        W19969   7.779  12.808   4.721  0.0336 -0.0173 -0.3940
 4353W        W19970  13.127   9.327  14.500 -0.1990  0.2290  0.1525
 4354W        W19971  15.427   2.910  13.575 -0.2974 -0.1131 -0.2277
 4355W        W19972  12.940   7.943   0.884 -0.3113 -0.2800 -0.0155
 4356W        W19973  11.047   3.663  15.303 -0.0881 -0.0061 -0.2088
 4357W        W19974   1.504  14.735  15.218  0.1916 -0.0653 -0.1090
 4358W        W19975  15.340   1.746   0.273 -0.1173 -0.4651 -0.3172
 4359W        W19976   1.852  12.780  16.009  0.1167 -0.2177  0.1003
 4360W        W19977   8.698   5.912  13.530  0.2939  0.3392 -0.1321
 4361W        W19978  14.081  14.967  16.528  0.1031 -0.0666  0.0079
 4362W        W19979   4.121  13.771  16.448  0.0917 -0.0072 -0.0590
 4363W        W19980   8.314  17.523  13.622 -0.1668  0.0450  0.4547
 4364W        W19981  13.796  13.730   5.378  0.2896 -0.1004 -0.2417
 4365W        W19982   5.169   5.589   3.058 -0.0214 -0.0365 -0.0585
 4366W        W19983   1.655   6.183  13.368 -0.4626  0.0921  0.0183
 4367W        W19984   2.014   0.229   3.504 -0.1874 -0.2179  0.3727
 4368W        W19985  17.191  14.815  16.183 -0.4727 -0.1966 -0.1786
 4369W        W19986  13.208  12.914  12.297 -0.1000  0.4002 -0.1415
 4370W        W19987  13.033   8.119   2.649 -0.1860 -0.1176 -0.0506
 4371W        W19988  14.353  17.317  13.426 -0.0049 -0.1530  0.0588
 4372W        W19989   2.626   2.414   6.114  0.2390  0.1032 -0.1134
 4373W        W19990   7.465  17.469   4.661  0.0873 -0.0667 -0.2760
 4374W        W19991  11.312   5.371  14.059  0.0144  0.1820  0.3978
 4375W        W19992   0.547  13.341   5.482  0.0901 -0.1298  0.1404
 4376W        W19993   6.414  11.408  12.465 -0.0801 -0.3797  0.2380
 4377W        W19994   5.283  15.721  11.849 -0.0609 -0.1143 -0.4421
 4378W        W19995   7.182  16.557   4.229  0.0131  0.1172  0.0239
 4379W        W19996   1.239   9.564  15.406 -0.1914  0.1055  0.0337
 4380W        W19997   7.349  13.200  14.174 -0.1012  0.1112  0.0652
 4381W        W19998   2.715  11.810  14.255  0.1366  0.3036  0.0120
 4382W        W19999   4.300  12.975   3.627  0.2221  0.3274 -0.2098
 4383W        W20000  14.670   9.974   4.545 -0.1345 -0.2705  0.0084
 4384W        W20001  14.755   1.815   5.816  0.0462  0.1247 -0.2298
 4385W        W20002   0.497   5.658   4.960  0.2117 -0.0711  0.3271
 4386W        W20003   6.200  12.290  13.658 -0.2546 -0.1417 -0.2604
 4387W        W20004  13.683  16.558   2.171  0.0042 -0.1620  0.3680
 4388W        W20005  10.752   6.277   5.125  0.2480 -0.1203  0.0220
 4389W        W20006   6.269  13.580   3.128 -0.0343  0.3101 -0.3232
 4390W        W20007   3.908   2.511  13.124 -0.1524  0.1903 -0.0515
 4391W        W20008   3.778  15.321  13.039  0.0440 -0.2792  0.2373
 4392W        W20009   7.820  17.608   3.143  0.0240 -0.1934 -0.0031
 4393W        W20010   9.546   1.167  15.625  0.1739  0.1192 -0.0830
 4394W        W20011   0.455  15.071  13.605 -0.2645  0.2667  0.1700
 4395W        W20012   7.178   9.910   2.257 -0.2952 -0.0074 -0.0678
 4396W        W20013  17.324   5.394  15.367  0.1452 -0.3186  0.3766
 4397W        W20014  12.990  14.881  11.824 -0.0770  0.0697  0.1011
 4398W        W20015   5.029  16.866  12.583  0.0736 -0.0194 -0.1439
 4399W        W20016   2.091  15.373  16.976 -0.1685 -0.2603 -0.1748
 4400W        W20017   6.967   9.712  12.134  0.3106  0.1811  0.1148
 4401W        W20018   4.872  17.383   0.356  0.1961  0.2243  0.2966
 4402W        W20019  10.924   5.786  12.584  0.1104  0.4269  0.4471
 4403W        W20020  11.384  14.596   1.231 -0.1571 -0.1180 -0.3249
 4404W        W20021   0.928  11.181   2.938  0.1869  0.0130 -0.1117
 4405W        W20022   9.292   7.989   5.505 -0.2175 -0.0220 -0.0825
 4406W        W20023  16.330  14.672  14.320 -0.1338 -0.0388 -0.0117
 4407W        W20024  15.706  15.158   4.464  0.0033 -0.0469  0.2549
 4408W        W20025  13.543   8.038   5.714 -0.2859  0.0067  0.2146
 4409W        W20026   0.364   9.890  13.717 -0.2126 -0.0376  0.0925
 4410W        W20027  16.581   4.429   2.686  0.1780 -0.3032  0.1298
 4411W        W20028   9.324  10.372  16.581  0.3374 -0.2593  0.0427
 4412W        W20029  14.817   3.047  15.192 -0.0445  0.2628 -0.0270
 4413W        W20030   1.150   0.706   3.194 -0.1524 -0.1673  0.1646
 4414W        W20031  17.553   7.327  12.940 -0.0160 -0.1444 -0.0767
 4415W        W20032  17.613  14.070   2.072  0.1189 -0.0053  0.1785
 4416W        W20033  16.518  16.000  13.513  0.0063 -0.2083  0.0986
 4417W        W20034   4.659  14.188  13.053  0.0015 -0.0461  0.0855
 4418W        W20035   9.652  12.768  15.333  0.1913 -0.2992 -0.0382
 4419W        W20036   3.166  14.968   2.891 -0.0011 -0.1715  0.0060
 4420W        W20037   1.572   7.694   4.446  0.1507  0.1410 -0.0432
 4421W        W20038  14.137  13.773  14.673  0.0510 -0.2939  0.3165
 4422W        W20039  14.372  10.017  12.100  0.0089  0.3085 -0.3144
 4423W        W20040   8.277   1.680   4.560  0.0300  0.1149  0.2682
 4424W        W20041   1.231   9.114  14.561 -0.2095 -0.0532 -0.4166
 4425W        W20042  13.872  16.516  16.853  0.2105 -0.1606  0.3252
 4426W        W20043  14.264   0.120  16.460  0.1278  0.4657 -0.2697
 4427W        W20044   8.030  16.192   5.433 -0.3559 -0.0930 -0.0475
 4428W        W20045   8.366  10.257  16.501  0.2678 -0.2699  0.1356
 4429W        W20046  12.171  12.726   3.163 -0.0106 -0.0509  0.1078
 4430W        W20047   7.592   2.371  16.785 -0.2089 -0.3384  0.1866
 4431W        W20048   0.446  16.195  16.310 -0.3558 -0.0464  0.1237
 4432W        W20049   7.112  12.227  13.941  0.0079 -0.1610 -0.1241
 4433W        W20050   9.229  12.292   3.160 -0.1183 -0.3078  0.1182
 4434W        W20051   9.558   5.927   5.108 -0.1604 -0.0207 -0.1187
 4435W        W20052  12.631   8.537  11.839  0.1062  0.0183 -0.3088
 4436W        W20053  12.611   6.389  12.962  0.2478  0.0008  0.0485
 4437W        W20054  14.516   4.773  14.891  0.4906 -0.3409 -0.1837
 4438W        W20055   5.964  14.941  16.978  0.0994  0.1807 -0.0198
 4439W        W20056  13.057  17.018   1.181  0.2177  0.0391 -0.0636
 4440W        W20057   7.112   9.841   0.155 -0.2812 -0.2225  0.1161
 4441W        W20058   1.054   1.449   1.704 -0.1824  0.0806 -0.1861
 4442W        W20059   2.485   8.508  13.264 -0.0642 -0.2533  0.2279
 4443W        W20060  11.329  12.260   0.467  0.1762  0.2764  0.0210
 4444W        W20061   0.899   8.610  13.333 -0.2506 -0.1282  0.3566
 4445W        W20062   3.522  14.511  12.622 -0.0523 -0.0741  0.6295
 4446W        W20063   6.285   5.860  17.080  0.1999 -0.2173 -0.1621
 4447W        W20064   8.832   3.130   0.586 -0.0396 -0.1257  0.2781
 4448W        W20065  15.394   3.903   3.196 -0.0240 -0.0196  0.2674
 4449W        W20066   4.610   6.078   1.582 -0.1183  0.1041  0.1379
 4450W        W20067   9.734  12.768   3.320 -0.2187  0.0990  0.0485
 4451W        W20068   2.319   6.966  13.429  0.0343  0.3039  0.0954
 4452W        W20069   7.797   4.655   3.224 -0.1606  0.1262  0.0278
 4453W        W20070  13.368   7.857   5.296 -0.0475  0.0466  0.3892
 4454W        W20071  14.510   0.811   1.568 -0.0762  0.1500 -0.0177
 4455W        W20072   3.651   9.972  16.845 -0.1770 -0.3984  0.0298
 4456W        W20073   3.233   0.459  13.205 -0.1003 -0.1751 -0.0903
 4457W        W20074   6.287  13.522  13.183  0.1345 -0.0050  0.3883
 4458W        W20075  14.191   6.190   5.818 -0.0219  0.0895 -0.0607
 4459W        W20076   0.237   8.336   2.604  0.1744  0.0660  0.1598
 4460W        W20077  17.604   3.847  16.376 -0.3028 -0.2157 -0.0902
 4461W        W20078  13.761  13.236  12.566  0.1154  0.0468  0.1819
 4462W        W20079  10.814  10.660   3.161  0.0224  0.1691  0.3527
 4463W        W20080   4.469  14.964  15.027  0.0246  0.0321  0.2388
 4464W        W20081   3.391   2.591  15.390  0.1948  0.2082  0.0468
 4465W        W20082  11.587  12.019  15.453  0.1941  0.1278 -0.2272
 4466W        W20083  10.977  12.108   5.669 -0.0402 -0.1543  0.1115
 4467W        W20084  14.829  16.280  15.151 -0.1924 -0.2680  0.0087
 4468W        W20085  12.806   8.861   0.298 -0.1278 -0.1104  0.0248
 4469W        W20086   0.740   5.958  12.950  0.0992 -0.0437 -0.0842
 4470W        W20087   0.110  15.605  12.536  0.1660  0.2452  0.0804
 4471W        W20088  12.483   2.491  14.845  0.2659  0.3483  0.3525
 4472W        W20089  10.528  12.490   5.545  0.1313  0.1859  0.1123
 4473W        W20090   3.030  10.669  14.195  0.1909 -0.2631  0.0691
 4474W        W20091  13.764  14.985  14.815  0.2626 -0.1282  0.0047
 4475W        W20092   4.960  17.006   3.412  0.0825 -0.2390 -0.0065
 4476W        W20093  12.493   2.736   1.555 -0.0976 -0.2224  0.0615
 4477W        W20094  15.228  17.426   0.451 -0.0707  0.0539  0.0397
 4478W        W20095   7.067  11.679   2.691  0.1713 -0.1638 -0.0301
 4479W        W20096   0.721   4.171   2.314  0.0270 -0.0613 -0.1159
 4480W        W20097  14.460  14.369  12.078  0.1107  0.1504 -0.0373
 4481W        W20098   4.249   8.337   1.704 -0.0886 -0.2084 -0.0111
 4482W        W20099   2.801   1.557   4.160 -0.0865 -0.0024 -0.0559
 4483W        W20100  15.248   4.586  13.969  0.0916 -0.0856 -0.0470
 4484W        W20101   5.717  13.910   2.627 -0.1111 -0.1217  0.3202
 4485W        W20102   1.702  13.568   3.462  0.0629 -0.0862  0.1722
 4486W        W20103   4.519   3.491   0.880 -0.0779 -0.0506  0.0727
 4487W        W20104   4.405   5.477  14.601  0.0855 -0.1624  0.1038
 4488W        W20105  12.952  16.984   0.041 -0.0948  0.0027 -0.0244
 4489W        W20106   7.667   3.505  15.598 -0.3171 -0.0666  0.0928
 4490W        W20107   4.328  13.829   2.725  0.1627 -0.1766  0.1713
 4491W        W20108  15.298   7.946   0.126 -0.2637 -0.0850  0.0112
 4492W        W20109   0.483   1.887   6.087 -0.0208 -0.2096  0.0789
 4493W        W20110  15.654  14.094   4.264 -0.0144 -0.1517 -0.1159
 4494W        W20111   4.294  11.895  11.813 -0.0995  0.0208 -0.0572
 4495W        W20112   2.321  12.147   2.815  0.0870 -0.0241  0.0057
 4496W        W20113   6.901   3.517   4.849  0.4005  0.1097 -0.1907
 4497W        W20114   3.996   5.052  12.046 -0.0684  0.1804  0.3388
 4498W        W20115  16.898  15.708   4.997 -0.0852 -0.0526  0.1690
 4499W        W20116  16.735   8.374  14.031 -0.1486 -0.1844 -0.0311
 4500W        W20117   2.115   8.598  16.130  0.4623  0.0230  0.0776
 4501W        W20118   2.537  14.513   5.106  0.1399  0.0108 -0.1976
 4502W        W20119   6.751   3.654   1.435  0.1343  0.0260  0.0130
 4503W        W20120   3.615   6.077  12.880  0.1567 -0.1586 -0.1372
 4504W        W20121   7.829   7.280  12.254 -0.1777 -0.0291 -0.1659
 4505W        W20122   4.021  16.205  15.096  0.0059 -0.1170 -0.3870
 4506W        W20123  15.353   7.695   5.413 -0.2761 -0.0557  0.0039
 4507W        W20124  10.568   4.101  12.668 -0.2490  0.1365  0.0466
 4508W        W20125   4.405  13.042   2.430 -0.0230 -0.0063 -0.0162
 4509W        W20126  15.730  16.216   0.969 -0.0090 -0.1188 -0.0228
 4510W        W20127   1.867   7.513   1.831  0.1530  0.2054 -0.4342
 4511W        W20128   2.310   6.597   3.720  0.1494  0.1062  0.1803
 4512W        W20129   0.159   8.983   1.845 -0.1433  0.0176  0.1784
 4513W        W20130   4.539   6.998   3.956 -0.3303  0.0351 -0.0863
 4514W        W20131   2.223  15.450  13.976 -0.0322 -0.2322 -0.0599
 4515W        W20132   0.672  16.852   0.830 -0.0746 -0.0161 -0.0686
 4516W        W20133   5.984   3.006  15.934  0.0376  0.1119 -0.1468
 4517W        W20134  11.635   3.103   4.710  0.0054  0.1542 -0.2158
 4518W        W20135  15.009  10.486   3.071  0.1452  0.1586  0.1001
 4519W        W20136   9.299   1.120  16.145  0.2330  0.3659 -0.4565
 4520W        W20137   6.733   5.193  13.968 -0.0759  0.4354 -0.2418
 4521W        W20138  15.918   6.877  16.222 -0.2501 -0.0813 -0.1968
 4522W        W20139   4.597  17.609   1.497  0.0418 -0.1907  0.0529
 4523W        W20140   5.827   4.629  13.359  0.0855 -0.1066 -0.0991
 4524W        W20141   5.572  16.666  15.017  0.3314  0.2529  0.1453
 4525W        W20142   7.763   6.879  13.097 -0.0965  0.2603  0.0017
 4526W        W20143  10.259   6.038   4.355  0.3071 -0.0738 -0.0928
 4527W        W20144   3.708  10.646   2.807  0.0381 -0.2245  0.0083
 4528W        W20145   0.831   2.578  13.997 -0.0606  0.6531  0.0653
 4529W        W20146   8.927   9.390   2.302  0.1495 -0.1220 -0.2012
 4530W        W20147  15.973   0.600   4.548 -0.2442  0.0224 -0.0573
 4531W        W20148   3.838  15.649   4.280 -0.1869  0.0370  0.0550
 4532W        W20149   8.924   3.427  11.257  0.1491  0.0515 -0.1690
 4533W        W20150   9.608   2.433  11.303  0.0033  0.0265 -0.4559
 4534W        W20151   4.757  13.878   6.216 -0.1274  0.1289 -0.1461
 4535W        W20152   3.514   3.754  13.751 -0.2088  0.3432  0.1039
 4536W        W20153   5.118   0.374   5.590 -0.0997  0.2640  0.0463
 4537W        W20154   0.064  13.394  17.200 -0.0374  0.3832 -0.1779
 4538W        W20155   1.593  17.229   0.616 -0.2826 -0.0681  0.0098
 4539W        W20156   3.758  13.420   4.919  0.0141 -0.0181 -0.0163
 4540W        W20157  15.817   7.226   3.342  0.1522  0.3206  0.0946
 4541W        W20158  14.783  17.504   2.212 -0.5992 -0.2357  0.1601
 4542W        W20159  13.884  10.602   4.751  0.2238 -0.0147  0.0518
 4543W        W20160   4.959  14.515  15.694  0.0495  0.1971 -0.2873
 4544W        W20161  15.890   9.081   1.416 -0.0690 -0.3112  0.1725
 4545W        W20162   2.756   5.032   1.017 -0.1483  0.0189  0.0338
 4546W        W20163   9.403   0.234  12.663 -0.0624 -0.0100  0.0356
 4547W        W20164  17.526  13.839   4.615 -0.1553  0.1575 -0.0849
 4548W        W20165   5.144  14.452   2.906  0.3710  0.4038  0.1717
 4549W        W20166  13.409   5.590  14.963 -0.1101 -0.2736 -0.0017
 4550W        W20167   5.571   1.060  15.259 -0.0014  0.0525  0.2133
 4551W        W20168  11.090  13.064  16.467 -0.0090  0.2993  0.1457
 4552W        W20169   2.874  10.892   1.434 -0.2217 -0.0215  0.1154
 4553W        W20170   3.814  10.436  17.232  0.2601  0.1317  0.0872
 4554W        W20171  13.670  11.474  16.241  0.1370  0.0593 -0.0168
 4555W        W20172   4.965   9.919   5.086 -0.0327  0.1366  0.0433
 4556W        W20173  16.055  10.020   4.637  0.0262 -0.3233 -0.3858
 4557W        W20174  12.465   5.795  14.470 -0.0428  0.0283  0.0491
 4558W        W20175   5.484  11.872  16.900 -0.0713  0.0704 -0.1075
 4559W        W20176   7.217   3.804   2.768 -0.1214  0.2018  0.0445
 4560W        W20177  12.648  16.057  11.827  0.0091  0.2613  0.2189
 4561W        W20178   9.356   1.177   5.174  0.2007  0.3466  0.3225
 4562W        W20179   7.770  17.289  11.561 -0.0195  0.2293 -0.0041
 4563W        W20180   6.670  10.630   6.023 -0.2331  0.3097 -0.4341
 4564W        W20181  12.547   3.919   2.550 -0.0479  0.1935 -0.0995
 4565W        W20182   2.161  11.534  15.419 -0.0238  0.1357  0.0376
 4566W        W20183   0.333   5.556   0.370 -0.0724 -0.0376 -0.0816
 4567W        W20184   3.838   1.424  15.632 -0.1892 -0.1800 -0.0645
 4568W        W20185  16.662  14.898  14.000  0.3514  0.1437 -0.0261
 4569W        W20186   6.332  10.487  16.114 -0.2124  0.0427 -0.0628
 4570W        W20187  12.817  13.983  12.632 -0.0748 -0.4031  0.0442
 4571W        W20188  17.450  13.881   1.471  0.2919 -0.2399 -0.0086
 4572W        W20189  15.831   8.338   5.804  0.1219  0.0294 -0.0678
 4573W        W20190   4.017   4.870   1.887 -0.1167 -0.1535 -0.0456
 4574W        W20191   4.247  14.598  14.218  0.0528  0.0969 -0.2087
 4575W        W20192  14.761  16.040  11.180  0.3461 -0.3440 -0.0407
 4576W        W20193   7.668  13.235   3.788 -0.1581  0.2734  0.1237
 4577W        W20194  13.804   4.538   3.988  0.1983 -0.3069 -0.2634
 4578W        W20195   4.622   1.941  13.703  0.3333 -0.1843  0.1332
 4579W        W20196   2.744   8.905   2.650 -0.1673 -0.4245  0.0632
 4580W        W20197   5.132   4.160   3.877  0.3308 -0.1710 -0.1623
 4581W        W20198   3.409   2.255  14.999 -0.2319  0.0248  0.1460
 4582W        W20199   4.476  16.355  14.794  0.0525  0.2706  0.0146
 4583W        W20200  16.119   5.968   2.687 -0.2056  0.2543 -0.2847
 4584W        W20201  10.871  15.224  15.411  0.0099  0.2004  0.1009
 4585W        W20202  13.587   4.735  15.905  0.2751  0.1454  0.2128
 4586W        W20203   9.008   3.161   0.040  0.2505 -0.0675 -0.2548
 4587W        W20204  10.939  17.420  12.769 -0.5536 -0.1393 -0.0197
 4588W        W20205   4.256  12.024   2.728  0.2435 -0.0259  0.1696
 4589W        W20206   9.404   7.621  16.014 -0.1663  0.1803  0.0281
 4590W        W20207   5.861   8.490  14.578  0.2203  0.0647  0.1471
 4591W        W20208  14.645  13.351   2.045 -0.4104  0.1330  0.3002
 4592W        W20209   6.782   4.335  14.390  0.1280 -0.0441 -0.2152
 4593W        W20210  17.209  16.674   3.137  0.1631 -0.0869  0.1352
 4594W        W20211  16.793   4.216  16.729  0.1735  0.1970 -0.2923
 4595W        W20212   0.923   7.432   5.308  0.0850 -0.2019  0.1191
 4596W        W20213  16.044   3.904  14.042  0.2461  0.1137  0.0002
 4597W        W20214   3.386   3.833  14.473 -0.2091 -0.1543  0.0503
 4598W        W20215   7.464  13.106  13.681  0.1235 -0.3456  0.2630
 4599W        W20216   6.467  17.545  16.548  0.0105  0.0157  0.0137
 4600W        W20217  11.990   4.536  13.349 -0.0674  0.2224 -0.1824
 4601W        W20218  17.349   5.607  14.020 -0.0219 -0.2611  0.3522
 4602W        W20219   0.472   0.338  14.546  0.5055  0.0864  0.1230
 4603W        W20220   0.910  13.534  12.633 -0.3297  0.1116 -0.2560
 4604W        W20221   5.191  15.771   2.016  0.5121  0.2835 -0.1702
 4605W        W20222  17.612   2.118   1.644  0.0176 -0.0943  0.0809
 4606W        W20223  17.578   7.782   5.508 -0.1056  0.2120  0.3063
 4607W        W20224   2.082   6.847   4.174 -0.0358 -0.1412  0.4142
 4608W        W20225   2.265  10.858  13.237  0.2237  0.2356 -0.0140
 4609W        W20226  12.156   5.966  15.277  0.1675 -0.1252  0.1079
 4610W        W20227  11.406   9.558  12.970  0.1381 -0.0830 -0.0723
 4611W        W20228  15.653   9.295   0.483  0.2047  0.2089 -0.2185
 4612W        W20229   6.941   0.092   5.553  0.0834  0.1830  0.0665
 4613W        W20230   1.912  10.955  16.303 -0.1168 -0.6246  0.0483
 4614W        W20231   0.450  13.679  14.981 -0.2191 -0.1664  0.1692
 4615W        W20232  16.520  17.424   0.275 -0.1027  0.3356 -0.1550
 4616W        W20233  10.493  13.757  10.809  0.1214  0.1795 -0.0507
 4617W        W20234   7.758  14.585   1.012  0.1134  0.0679  0.3385
 4618W        W20235  12.827  10.684   0.427 -0.0053 -0.1351 -0.3351
 4619W        W20236   2.302  11.647   1.152 -0.0518 -0.1125  0.1526
 4620W        W20237  16.907   0.956  14.545 -0.0523  0.0953  0.1403
 4621W        W20238  11.717  15.999   2.534 -0.0238 -0.2032  0.2944
 4622W        W20239   6.198  17.261  15.296  0.0712  0.4104  0.1358
 4623W        W20240  16.673   4.214   2.248  0.0645  0.1468  0.0392
 4624W        W20241   9.923  13.227   2.382  0.2006 -0.0857  0.0410
 4625W        W20242  16.926  14.220   0.504  0.0278  0.0589 -0.0700
 4626W        W20243   9.980   2.294  16.599  0.3433  0.0089 -0.0901
 4627W        W20244   5.326   2.139  14.401  0.0576  0.0817 -0.0504
 4628W        W20245  10.650   3.102   2.576  0.0934 -0.0167  0.0741
 4629W        W20246   5.993  10.454   0.285 -0.0471  0.0451 -0.1434
 4630W        W20247   8.400  10.482   1.169 -0.0199 -0.0077 -0.5706
 4631W        W20248  15.891  15.017   2.967  0.0233 -0.1271  0.1931
 4632W        W20249   3.165   1.402   6.072 -0.1568  0.1398 -0.1261
 4633W        W20250  14.926  14.515  12.056  0.0272 -0.0931  0.3075
 4634W        W20251   4.456   1.762   3.843  0.3996  0.2988 -0.0556
 4635W        W20252   7.103  15.796  16.579 -0.0671 -0.0539 -0.0159
 4636W        W20253   4.426   1.943  16.404  0.1834 -0.2045 -0.1709
 4637W        W20254   4.405  17.247  16.949  0.2242  0.3546 -0.1423
 4638W        W20255   2.035  11.527   3.883  0.0214 -0.0035  0.1280
 4639W        W20256   8.274  11.319   3.289 -0.0538  0.2385  0.0251
 4640W        W20257  11.374  13.412  11.814 -0.0003  0.0560  0.0408
 4641W        W20258  16.837   5.910   3.921  0.1023  0.0083  0.3915
 4642W        W20259   3.564  13.227  14.131 -0.0041  0.0612 -0.1851
 4643W        W20260   0.431   7.425  13.635 -0.1488 -0.0963 -0.1124
 4644W        W20261  16.716   6.399   4.227 -0.0681  0.2929  0.0561
 4645W        W20262   7.030   1.286   3.553  0.0815 -0.0110 -0.1446
 4646W        W20263  16.170  17.475  14.433 -0.1617 -0.0670 -0.1633
 4647W        W20264   2.932   7.148   1.066 -0.0225  0.0610  0.2218
 4648W        W20265   7.785   3.942  11.985 -0.2145 -0.1132 -0.3783
 4649W        W20266  15.558  15.912  15.058  0.1140 -0.2455 -0.0545
 4650W        W20267  14.202   0.014   6.408  0.1894  0.1975  0.0515
 4651W        W20268  15.396   3.523   0.405 -0.3458 -0.1217  0.1260
 4652W        W20269   9.226   4.563   3.940 -0.1575  0.0946  0.3063
 4653W        W20270   8.237  16.966   0.814  0.4059 -0.2058 -0.2604
 4654W        W20271   1.342   9.968   2.396 -0.0126 -0.4669 -0.2589
 4655W        W20272   6.567  16.581   3.593 -0.1253  0.1403 -0.0989
 4656W        W20273   1.850  11.450   2.637  0.0429 -0.1502 -0.2979
 4657W        W20274  14.705   3.042   0.837  0.0364 -0.0006  0.0979
 4658W        W20275   0.902  13.866   3.663  0.0669 -0.1020  0.0492
 4659W        W20276  10.846   1.633   5.997  0.0468  0.0496  0.1110
 4660W        W20277   7.565  10.517  16.860 -0.0631 -0.0719  0.4475
 4661W        W20278   4.122   6.213  11.063  0.0284  0.0639 -0.2277
 4662W        W20279  14.392  10.863  16.412 -0.0399 -0.0199  0.1400
 4663W        W20280   0.308   3.682  16.772 -0.2025  0.2211  0.1970
 4664W        W20281   5.768   4.983   1.163 -0.2831  0.1708 -0.2437
 4665W        W20282   5.048  13.946  13.200  0.0248 -0.0350 -0.1940
 4666W        W20283   3.666  11.440  13.883  0.0984  0.3351  0.1954
 4667W        W20284   2.931   0.346  11.898  0.1877 -0.1614  0.1642
 4668W        W20285   5.962   0.300   3.718 -0.3314  0.2602  0.0462
 4669W        W20286  15.209  14.396   6.248 -0.2365  0.0740  0.1619
 4670W        W20287   0.973  15.118   5.223 -0.4379  0.0844  0.1919
 4671W        W20288   8.307   5.206   4.851  0.2180 -0.0373  0.1092
 4672W        W20289   9.618   8.129   0.170 -0.1444  0.0583 -0.0670
 4673W        W20290  15.480  15.913   4.955  0.0774 -0.0560  0.2630
 4674W        W20291  17.254   5.495   5.624 -0.0852 -0.0076  0.2657
 4675W        W20292  10.544   5.677  15.956  0.4449  0.1206  0.0467
 4676W        W20293  16.884   3.371  14.460  0.1926 -0.0642 -0.0833
 4677W        W20294   0.469  14.541  15.576 -0.0440  0.3052 -0.0673
 4678W        W20295   0.343   2.850   2.870 -0.0671  0.1447 -0.0579
 4679W        W20296   7.592   5.461  14.369  0.2639 -0.0753  0.0935
 4680W        W20297  12.753   2.083  14.722  0.1425  0.3447  0.3416
 4681W        W20298  12.495   1.223  11.126 -0.2945 -0.0758 -0.0733
 4682W        W20299  16.609   8.568   1.045 -0.0066  0.2475 -0.1533
 4683W        W20300   7.155   8.210   2.085  0.3403  0.0249  0.0271
 4684W        W20301   8.770  13.877  13.296 -0.1437  0.0706  0.2011
 4685W        W20302   3.705   8.762   2.795  0.0038 -0.1868  0.1228
 4686W        W20303   0.727   7.476   4.145  0.2209 -0.1521 -0.4148
 4687W        W20304  16.517   0.788  16.943 -0.1112 -0.1303  0.3598
 4688W        W20305  17.519   5.097   0.186  0.1254 -0.1487 -0.0966
 4689W        W20306  17.594  12.265   1.963 -0.1831  0.1826  0.2856
 4690W        W20307  15.270   5.345  15.162 -0.0306  0.1342  0.3695
 4691W        W20308   6.844  11.240   2.472  0.3401  0.2776 -0.1921
 4692W        W20309   8.066   0.255  13.394  0.2711  0.1175 -0.0719
 4693W        W20310  13.365   4.959   4.782  0.2151 -0.1728  0.2330
 4694W        W20311   7.970  15.028  14.168 -0.0058  0.0702  0.0519
 4695W        W20312   2.492   3.989   5.427  0.1947 -0.0075 -0.2775
 4696W        W20313  15.785   9.854   2.939 -0.0682  0.0380 -0.1734
 4697W        W20314   6.319  10.506  12.944 -0.2265 -0.0502  0.1001
 4698W        W20315  16.014  17.220  11.496 -0.2728 -0.0304 -0.1227
 4699W        W20316   5.754   2.205  17.068 -0.0393 -0.0202  0.0227
 4700W        W20317  13.365   9.803   4.479  0.2176  0.0220 -0.0273
 4701W        W20318  13.150   9.191  15.202  0.1942  0.2681  0.0710
 4702W        W20319   1.464  11.497   4.724 -0.2254  0.1802 -0.0897
 4703W        W20320   0.722   3.664   2.380  0.0802  0.2921 -0.2158
 4704W        W20321   0.769  14.828  13.900  0.3705  0.3383 -0.3421
 4705W        W20322   3.173   6.022  15.858 -0.4053 -0.4290  0.0734
 4706W        W20323  13.484   5.669  17.165 -0.3863 -0.1590  0.1430
 4707W        W20324  11.691  11.747  13.788  0.2623 -0.2514 -0.1895
 4708W        W20325   3.282  15.519  12.879 -0.2874 -0.0772 -0.0273
 4709W        W20326  11.011  12.756  14.119  0.3147  0.3804  0.0437
 4710W        W20327   6.005   7.379   6.084  0.0191  0.0551 -0.0789
 4711W        W20328   8.214  14.566  15.632 -0.1131 -0.0149  0.3173
 4712W        W20329   8.390   0.023   1.724  0.0306  0.1861 -0.2015
 4713W        W20330  16.492   8.736   3.873  0.5229  0.3217 -0.0771
 4714W        W20331  10.920   0.151  15.589  0.0583 -0.2669  0.2502
 4715W        W20332  16.131   4.172  13.623  0.0281  0.0473  0.1714
 4716W        W20333  12.825   0.148   5.015  0.0764 -0.2343  0.1335
 4717W        W20334  11.537  17.181   1.253  0.0263 -0.0137 -0.0952
 4718W        W20335   6.223  11.773  14.952 -0.1771 -0.2975 -0.0139
 4719W        W20336   8.475   0.475  14.542  0.1160 -0.2260  0.0597
 4720W        W20337  16.990   9.660  12.610  0.0966 -0.1312  0.3510
 4721W        W20338   9.229  10.258   3.081 -0.0356 -0.0658  0.1773
 4722W        W20339   1.277   1.252  12.191 -0.1707 -0.1602  0.2637
 4723W        W20340   3.781   4.803   5.370 -0.0882 -0.0700  0.2998
 4724W        W20341  12.012  11.374  13.617 -0.0303 -0.0690 -0.0791
 4725W        W20342  12.143  11.680  12.743 -0.3285 -0.1442 -0.2398
 4726W        W20343   3.402   6.567   5.147  0.1632  0.3805  0.1494
 4727W        W20344   7.066   1.714  11.602  0.3535  0.0451  0.2608
 4728W        W20345   9.587  12.361   0.208  0.2487 -0.1922  0.2249
 4729W        W20346   3.993   3.464  12.144  0.1160  0.0908 -0.2134
 4730W        W20347   6.141   7.514   4.444  0.0550 -0.1650 -0.2153
 4731W        W20348  14.006   9.168  14.886  0.0356 -0.1001 -0.2426
 4732W        W20349   6.366   8.004   2.309  0.0342  0.1789 -0.2526
 4733W        W20350   8.900  14.511  14.487  0.0259 -0.0293 -0.2414
 4734W        W20351   3.399  14.805  12.247 -0.4024  0.0275  0.0860
 4735W        W20352  13.699   2.460   5.441 -0.2503  0.2014 -0.1773
 4736W        W20353   7.939   6.154   4.984  0.0250  0.1111  0.0137
 4737W        W20354   1.614   9.368  11.106  0.0685 -0.0607  0.1571
 4738W        W20355   1.151   2.867   5.117  0.2985  0.0648  0.2704
 4739W        W20356   7.408   7.962   1.056  0.0145  0.1814  0.2778
 4740W        W20357  17.521  15.006   1.654 -0.2254 -0.1042  0.0930
 4741W        W20358  12.532   6.510   5.917  0.2453 -0.1864 -0.0408
 4742W        W20359  14.756  11.064   1.774  0.1243 -0.1301  0.0733
 4743W        W20360   5.796  15.837  12.486 -0.4058 -0.0383 -0.1052
 4744W        W20361  12.286   4.957   3.757 -0.2249  0.1082 -0.0362
 4745W        W20362   1.888  12.815   2.319  0.0969  0.2945  0.1803
 4746W        W20363   0.385   6.772   4.901  0.1211 -0.0091 -0.4535
 4747W        W20364  14.673  13.964  16.496  0.1298  0.3255  0.0792
 4748W        W20365  11.036   1.762   0.246  0.0726  0.1121  0.1919
 4749W        W20366  13.424  16.542   2.675  0.3752  0.0679  0.3118
 4750W        W20367  11.667  10.958  13.322  0.2232  0.0381 -0.0619
 4751W        W20368  14.362   4.328  15.131 -0.0853  0.1153 -0.2449
 4752W        W20369   3.218   0.315   4.180 -0.0330 -0.1135  0.2130
 4753W        W20370   9.020   9.812  15.534 -0.0323 -0.0461  0.3809
 4754W        W20371   0.416  15.131  14.178  0.2847 -0.3989 -0.1559
 4755W        W20372   8.354  12.802  16.946 -0.1244 -0.2235 -0.0529
 4756W        W20373   2.250  12.730  15.289 -0.0676  0.2395 -0.2163
 4757W        W20374   4.537   0.149  15.668  0.1532 -0.0625 -0.0447
 4758W        W20375  11.446  15.295   0.022  0.0978 -0.3508  0.0014
 4759W        W20376  12.958   7.129   1.737  0.0364  0.0611 -0.0209
 4760W        W20377   3.515  11.116   2.662  0.0990 -0.0848  0.1716
 4761W        W20378  16.340   7.193  14.803 -0.2128 -0.0173 -0.3098
 4762W        W20379   7.442   8.757  16.840 -0.1346  0.0138  0.3674
 4763W        W20380   5.275  10.408   3.845 -0.0089 -0.2334 -0.2376
 4764W        W20381   6.119  12.205  13.156 -0.3582 -0.1001  0.1182
 4765W        W20382   6.219   7.381  12.787  0.1259  0.2664  0.2363
 4766W        W20383  10.734  13.682  12.454 -0.0173 -0.1149  0.1856
 4767W        W20384   9.577   5.696   0.546 -0.2034  0.2460 -0.1686
 4768W        W20385   0.599   0.111   3.898 -0.0509  0.0410  0.0691
 4769W        W20386   7.211   4.316   0.780  0.1419 -0.1038  0.0229
 4770W        W20387   7.959  16.080   0.680  0.0204 -0.1415 -0.1537
 4771W        W20388   2.835   5.290   3.273  0.0507 -0.0856  0.0765
 4772W        W20389  14.998   6.035  16.906  0.1570  0.0233 -0.1239
 4773W        W20390  15.395  13.387  17.026  0.1247 -0.0983 -0.0202
 4774W        W20391  16.212  17.126   3.407  0.1534 -0.2187  0.0865
 4775W        W20392   0.904   7.214   1.540  0.2057  0.1928  0.1771
 4776W        W20393  17.068   8.261  16.140  0.1016  0.0212  0.2013
 4777W        W20394   1.833  16.588   6.572  0.1233 -0.5001  0.0565
 4778W        W20395  11.024  15.943   0.991 -0.0217  0.0410 -0.1821
 4779W        W20396   7.342   9.203   1.135  0.2662  0.2260 -0.1799
 4780W        W20397   2.590  16.513  14.820  0.1707  0.1432 -0.0372
 4781W        W20398  10.658  15.007  10.907  0.0203 -0.2572  0.1896
 4782W        W20399  10.495  14.866  14.703 -0.0418 -0.2760  0.1625
 4783W        W20400  16.089   9.358  16.024  0.0906 -0.0319  0.1299
 4784W        W20401   3.762   0.079  13.928 -0.0520  0.1321  0.1127
 4785W        W20402   1.115   3.873   3.477  0.0523 -0.0862  0.0277
 4786W        W20403   4.345   2.554  13.433  0.1163  0.2033 -0.3229
 4787W        W20404   8.036   1.781  10.789  0.1321 -0.1522  0.0027
 4788W        W20405  13.218  12.940  14.499 -0.2085 -0.2781 -0.0794
 4789W        W20406   8.312  12.209   3.127 -0.0890  0.0249  0.2438
 4790W        W20407   1.288  10.847   5.433 -0.1286 -0.0596 -0.2014
 4791W        W20408  15.678  14.434   3.899 -0.0479  0.2205  0.0436
 4792W        W20409  14.334  15.562  17.175 -0.0193 -0.1462 -0.2666
 4793W        W20410  12.790  11.027  16.629  0.2410 -0.3622  0.1541
 4794W        W20411  11.124   3.710   2.708 -0.1945 -0.3260  0.0166
 4795W        W20412   6.097  16.012  14.421  0.0519  0.1203  0.0910
 4796W        W20413   1.058  11.436  14.485 -0.1669  0.0555  0.1107
 4797W        W20414   3.954   2.463   5.984  0.1282 -0.2265  0.0396
 4798W        W20415  17.556  10.666   1.649  0.1133 -0.2353 -0.6365
 4799W        W20416   4.407  16.388   1.100  0.0516  0.2503  0.1892
 4800W        W20417   1.721   9.204   1.778 -0.1492  0.2160 -0.1605
 4801W        W20418  12.720  14.016   3.574 -0.3224 -0.0058  0.1223
 4802W        W20419   1.242  14.580   4.080 -0.2066  0.1909 -0.1737
 4803W        W20420   2.167  10.176   4.544  0.0978  0.0507 -0.0790
 4804W        W20421   6.138  15.448   1.405 -0.0748 -0.2500 -0.2267
 4805W        W20422   1.438   0.930   1.067 -0.1411  0.1144  0.0921
 4806W        W20423   2.863   2.606  14.146  0.0675 -0.1611  0.1980
 4807W        W20424  14.768  11.416  12.342 -0.1795  0.0541 -0.3170
 4808W        W20425   4.324   2.430  12.882  0.1759  0.3347  0.2612
 4809W        W20426   3.016   8.787   5.595  0.0587  0.1938 -0.2130
 4810W        W20427  16.934   5.076  15.350  0.0154  0.1718  0.2209
 4811W        W20428   7.162  11.547   1.416 -0.3741  0.0726  0.0120
 4812W        W20429  11.753  14.737  12.810 -0.1268  0.2802 -0.0221
 4813W        W20430  15.339   9.710  13.305 -0.4059 -0.1168 -0.1297
 4814W        W20431  12.087   0.046  15.108 -0.1030  0.3121 -0.3286
 4815W        W20432  12.511   2.467  15.699 -0.2162  0.1285 -0.1197
 4816W        W20433   7.617   3.528   2.483 -0.0649  0.2432 -0.0360
 4817W        W20434  12.144  12.021   4.451  0.1246 -0.0020  0.1426
 4818W        W20435   7.881   7.403  14.471  0.0466  0.0340 -0.1310
 4819W        W20436  12.586   6.280  16.747  0.3347  0.2406  0.0074
 4820W        W20437  14.188  13.183   2.247  0.0878 -0.0506  0.1414
 4821W        W20438   0.503   3.076  11.872 -0.2368  0.0984  0.0913
 4822W        W20439   8.346   6.098  16.045  0.1902 -0.2051 -0.1258
 4823W        W20440  17.202   6.164  16.687  0.0212 -0.1240  0.0038
 4824W        W20441   4.354   9.159   1.910 -0.1617 -0.0870  0.3991
 4825W        W20442  11.451   7.222   5.958 -0.0098 -0.0319  0.1512
 4826W        W20443  17.283  12.339  13.486  0.0376  0.0001 -0.2715
 4827W        W20444   8.049   3.791   1.151  0.0239 -0.1617 -0.1152
 4828W        W20445  13.532  12.591   4.078  0.0941  0.0458 -0.2108
 4829W        W20446   2.826   5.174   0.010 -0.0709 -0.0503  0.2418
 4830W        W20447  10.216  12.007  13.382 -0.0501  0.3188 -0.1103
 4831W        W20448  13.783   8.283  14.696  0.1771  0.3154 -0.3174
 4832W        W20449  11.617   5.743  14.700  0.0341 -0.1081 -0.1166
 4833W        W20450  16.283  14.303   3.267 -0.2585 -0.0790  0.2928
 4834W        W20451   7.816   0.124  16.544  0.0301  0.0340 -0.1361
 4835W        W20452  11.222   9.248   3.715 -0.0381 -0.1366  0.2512
 4836W        W20453   2.057   1.209   2.116 -0.1369  0.1058  0.2501
 4837W        W20454   3.220   8.225   5.678  0.0075 -0.0580  0.1048
 4838W        W20455   2.380  17.221   1.159  0.2874  0.1060 -0.3048
 4839W        W20456  16.292   9.866   0.699 -0.0016 -0.2825  0.1947
 4840W        W20457  13.528  10.734   3.166 -0.0328 -0.1566  0.0503
 4841W        W20458   1.627   6.756   4.416  0.2710  0.1116  0.1761
 4842W        W20459  15.130  10.498  15.799 -0.1187  0.3495  0.2389
 4843W        W20460   8.718  12.408  16.650  0.0980  0.0804  0.2209
 4844W        W20461   8.373   2.054  15.152 -0.1597  0.1324 -0.0222
 4845W        W20462  16.975  11.487   1.732  0.0134 -0.0283  0.1610
 4846W        W20463   3.873   9.550   2.875  0.2195  0.2258 -0.2581
 4847W        W20464   2.709   7.185   6.348  0.2440 -0.2006  0.1161
 4848W        W20465  10.691   8.300  14.868  0.2392  0.0035  0.2317
 4849W        W20466  14.593   0.143   0.793  0.2456  0.1523 -0.1717
 4850W        W20467  13.783   5.058  12.790 -0.1685  0.0183 -0.0443
 4851W        W20468   4.874   1.940  14.120 -0.2815  0.0558  0.2607
 4852W        W20469   9.105  17.311  14.901 -0.1195  0.2301  0.2301
 4853W        W20470  16.244   4.687  14.506 -0.2955  0.0424  0.0290
 4854W        W20471  14.185   3.849  16.582 -0.1507 -0.0683  0.1938
 4855W        W20472  14.928  15.855   1.932 -0.0115 -0.1530 -0.1762
 4856W        W20473  14.747   7.441  16.435  0.5456 -0.1710 -0.1742
 4857W        W20474  13.630   5.481  13.662 -0.1760  0.2203  0.2127
 4858W        W20475   9.514   0.404  14.453  0.0423 -0.1318 -0.2198
 4859W        W20476  10.823  11.391  15.625  0.0914  0.0871  0.1769
 4860W        W20477   4.593  13.094   4.751  0.0792  0.1695  0.3297
 4861W        W20478  12.030   6.483   0.200 -0.3711  0.0188 -0.0532
 4862W        W20479  14.424   1.850   4.881 -0.0357  0.1270 -0.0234
 4863W        W20480   0.530  15.178   2.595 -0.1398 -0.0746  0.1421
 4864W        W20481   2.756  10.009   0.911  0.1124  0.1786 -0.2091
 4865W        W20482   9.006  17.193   0.182 -0.1554  0.0822 -0.0442
 4866W        W20483  15.583   3.320  14.599 -0.0713 -0.2527 -0.0123
 4867W        W20484   2.582  14.328  13.897 -0.1839 -0.0082  0.1669
 4868W        W20485   5.410   4.803  16.986 -0.1902  0.0409  0.0897
 4869W        W20486  15.084   2.204  15.811 -0.2432  0.4539  0.0161
 4870W        W20487  11.057  13.094  12.034 -0.0273  0.1835  0.1598
 4871W        W20488   4.344   0.837  14.052  0.0659 -0.3583  0.0071
 4872W        W20489  10.642   2.030   4.130  0.1581 -0.1174 -0.0009
 4873W        W20490   1.275   5.464   2.997 -0.1075 -0.0471 -0.0937
 4874W        W20491   4.492   7.336   2.733 -0.2262  0.0470  0.0275
 4875W        W20492   7.411  11.029  16.744  0.2652  0.1528 -0.0412
 4876W        W20493  14.804   0.306   2.920 -0.1462  0.1335 -0.3756
 4877W        W20494   6.033   1.067  13.091 -0.0421 -0.0219  0.2132
 4878W        W20495  12.580   6.421   2.067 -0.1702 -0.0569  0.4308
 4879W        W20496   6.406   8.047   1.682 -0.0767 -0.3170  0.1055
 4880W        W20497  15.230  11.374   0.825  0.0010  0.2689 -0.0892
 4881W        W20498   5.171   5.041  14.216 -0.1384 -0.1271  0.0512
 4882W        W20499   0.759   1.029  16.300 -0.1791 -0.1455  0.0975
 4883W        W20500   1.551   2.985  12.785  0.1911  0.0221  0.0192
 4884W        W20501  11.510   1.448   2.086 -0.1230 -0.4370  0.2128
 4885W        W20502   5.966   5.347   3.517  0.0737 -0.3205  0.1156
 4886W        W20503  14.827  10.197   5.765  0.4513 -0.0640  0.2533
 4887W        W20504   5.172   0.347  13.122  0.1909 -0.0025  0.1066
 4888W        W20505   0.984   0.042  13.870 -0.4676  0.0624  0.1027
 4889W        W20506  17.306   2.381  15.467  0.1623  0.1079  0.3545
 4890W        W20507   3.540  14.998   0.787  0.0214  0.1233  0.3120
 4891W        W20508  12.074  13.673  14.819  0.1100 -0.3136 -0.2153
 4892W        W20509   0.673  11.416   4.369  0.1798 -0.4137  0.0558
 4893W        W20510   4.957   8.364  12.580 -0.0596 -0.1580  0.3430
 4894W        W20511  11.425   5.060  12.062 -0.2152  0.2190 -0.1932
 4895W        W20512   9.327  16.729  10.798  0.1976  0.1009 -0.3973
 4896W        W20513  16.263  13.118   3.184  0.2453 -0.0309 -0.2027
 4897W        W20514  17.456   1.260   2.505  0.1008  0.0117 -0.1266
 4898W        W20515  15.073   9.074   2.521  0.1305  0.0148 -0.0982
 4899W        W20516  15.696   8.427   2.879  0.0082 -0.0965 -0.2483
 4900W        W20517  12.521  14.141   0.878  0.2262 -0.0152  0.1152
 4901W        W20518  11.767  16.017   0.560 -0.0223  0.0388 -0.0345
 4902W        W20519  13.370   4.916   6.059  0.2420 -0.0352 -0.0189
 4903W        W20520   6.013   2.610   0.484  0.0286  0.0580  0.0111
 4904W        W20521   9.466   0.194  15.907  0.0793 -0.0992  0.0400
 4905W        W20522   2.019   1.578  15.860  0.3785  0.1853 -0.2051
 4906W        W20523  13.549  10.835  14.560 -0.1320 -0.2073 -0.1440
 4907W        W20524   0.407   6.902   1.526  0.0334  0.0194 -0.0964
 4908W        W20525   1.350  12.114  13.737  0.3803 -0.0001 -0.0667
 4909W        W20526   3.772  16.025  11.734 -0.2268 -0.0546 -0.1806
 4910W        W20527   8.250   9.587  15.994 -0.3671  0.1571  0.1141
 4911W        W20528   4.601  11.782   4.024 -0.0223 -0.0551 -0.2427
 4912W        W20529  11.350   9.266  13.628  0.0801  0.5286 -0.1262
 4913W        W20530   0.168  16.941   0.605  0.0921 -0.2201 -0.1910
 4914W        W20531   7.963   6.545   2.821  0.2233 -0.1161 -0.2750
 4915W        W20532  16.011   6.438  15.126  0.0370  0.0249 -0.3030
 4916W        W20533   8.495   8.087  14.575  0.0840 -0.0259  0.0765
 4917W        W20534   1.465  11.733  16.556 -0.1535 -0.0720 -0.0407
 4918W        W20535  11.897  11.629   4.955  0.0917 -0.2553 -0.0863
 4919W        W20536   3.180   3.662  16.284 -0.0312 -0.1530 -0.0847
 4920W        W20537   8.653  13.336   3.379 -0.2157 -0.0819  0.0185
 4921W        W20538   1.769  12.677  15.018 -0.1993 -0.1019  0.2843
 4922W        W20539  15.919  15.924  14.641  0.0329  0.1587  0.0529
 4923W        W20540   6.644   2.983  11.866  0.0393  0.2726 -0.0476
 4924W        W20541   6.138   7.710   4.920 -0.0517  0.0286  0.0568
 4925W        W20542   3.651  15.296   3.633 -0.0415  0.2406  0.1601
 4926W        W20543  11.425   0.066   2.703  0.0822  0.1383 -0.1241
 4927W        W20544   0.989  16.732   6.330 -0.0476  0.0571 -0.0302
 4928W        W20545   2.273   0.433   4.387 -0.1032 -0.4006  0.2374
 4929W        W20546   7.854  10.197   5.392 -0.1962 -0.0882 -0.0892
 4930W        W20547  12.739   7.766  16.790  0.0395  0.1982  0.1063
 4931W        W20548  17.290  11.845   1.476  0.0756 -0.0227  0.2172
 4932W        W20549  13.889  11.392   0.438 -0.1718 -0.2293  0.1873
 4933W        W20550  10.310   5.528  13.070  0.0487 -0.1174 -0.0244
 4934W        W20551   2.033  16.671   2.492  0.2152  0.4022  0.0144
 4935W        W20552  16.094  14.445  13.340  0.2076  0.1208  0.3217
 4936W        W20553  16.169   0.104  16.789 -0.1524  0.2360 -0.1290
 4937W        W20554   8.745   0.359   0.042 -0.0012  0.3808  0.0866
 4938W        W20555  15.707   8.318  12.633 -0.1862  0.1347  0.4298
 4939W        W20556   3.304   3.363   2.229  0.3265 -0.0043  0.1693
 4940W        W20557  16.767   7.033   3.204  0.3924  0.2319 -0.0619
 4941W        W20558   9.766   7.577   5.563  0.0204  0.0517 -0.3205
 4942W        W20559   6.238   8.928  14.467 -0.0543 -0.3346 -0.2777
 4943W        W20560   2.206   7.253  13.044 -0.3220 -0.0053  0.2106
 4944W        W20561  12.127   3.766   2.150 -0.0015  0.3279 -0.2513
 4945W        W20562  14.763   1.792   4.518  0.0300 -0.1045 -0.0676
 4946W        W20563   0.457   9.831   2.071 -0.0272 -0.1214  0.2256
 4947W        W20564  15.503  12.760   0.357 -0.2065  0.1642  0.0521
 4948W        W20565  13.808   0.248  13.909 -0.1569 -0.1468  0.0205
 4949W        W20566   2.935   6.375  15.552 -0.0828 -0.0754 -0.1464
 4950W        W20567  15.078  16.977  13.760 -0.2089  0.0119 -0.4327
 4951W        W20568  15.068  16.673   5.137  0.2036 -0.1553 -0.0263
 4952W        W20569   5.273   3.705   3.434  0.1469  0.1223 -0.0730
 4953W        W20570   7.237  15.808  14.667  0.2120  0.0489 -0.0754
 4954W        W20571   8.039   0.469   3.056  0.0472 -0.2253 -0.2840
 4955W        W20572  15.090  15.019  15.556  0.1242 -0.2029 -0.3664
 4956W        W20573   2.964  12.862  15.093  0.0494 -0.1671  0.0406
 4957W        W20574   4.684  16.868   2.084  0.2066 -0.1930  0.2909
 4958W        W20575   6.227  16.681   5.438 -0.0236  0.1331 -0.0325
 4959W        W20576   0.599   8.266   5.534 -0.0454 -0.0707 -0.2066
 4960W        W20577   3.989   1.100  13.141  0.2026  0.0171  0.1119
 4961W        W20578  14.734  14.375   0.493  0.2409  0.2454 -0.0238
 4962W        W20579  17.294   8.837   4.376 -0.2879  0.0018 -0.2388
 4963W        W20580  13.073  12.822   1.214 -0.0008  0.1125 -0.1961
 4964W        W20581   8.177   9.555  14.524 -0.1565 -0.0366 -0.2345
 4965W        W20582   9.136   9.397  13.285  0.1726 -0.0838  0.2457
 4966W        W20583  16.104  13.584  16.098 -0.0178 -0.0071  0.3976
 4967W        W20584  10.836   2.463   0.828  0.0466  0.1436  0.2119
 4968W        W20585   3.019  14.451  14.896  0.2578  0.1572 -0.1516
 4969W        W20586  10.569   5.511  14.344  0.1265 -0.2043 -0.4677
 4970W        W20587   4.746  16.661   3.837  0.0066 -0.2633 -0.0884
 4971W        W20588   3.473  13.469   1.793 -0.3133 -0.3034 -0.2682
 4972W        W20589  13.656   3.720   1.235  0.3826  0.1999  0.1676
 4973W        W20590   4.359   6.330  15.692  0.3437  0.0130  0.0666
 4974W        W20591   8.298  15.704  14.539 -0.1645  0.0020  0.1448
 4975W        W20592   5.334   8.418   5.000 -0.0945 -0.0408  0.1808
 4976W        W20593  13.549   7.791  11.094  0.0303  0.1748  0.2955
 4977W        W20594  13.408  13.254   3.516 -0.0701 -0.3273 -0.2087
 4978W        W20595   6.353   0.677  12.942 -0.1589  0.1590  0.0238
 4979W        W20596   1.655  16.081   3.922 -0.2667  0.1134 -0.1321
 4980W        W20597  10.967   8.886  14.393 -0.1736  0.3260  0.1715
 4981W        W20598   9.644  13.291   3.453  0.2911  0.1589 -0.1274
 4982W        W20599  11.119   9.108   2.800  0.1017 -0.0156  0.6244
 4983W        W20600  10.978   9.315  14.089 -0.0220  0.2394 -0.3450
 4984W        W20601   6.593   5.875  16.441  0.3798 -0.4081  0.0481
 4985W        W20602  11.011  12.645   1.899 -0.3175  0.3161  0.1633
 4986W        W20603   0.784   6.192   2.841  0.0121 -0.1076  0.2417
 4987W        W20604  15.246   7.814  15.301  0.2146  0.0875 -0.1881
 4988W        W20605   8.712   8.871  16.831  0.0648  0.1149 -0.2338
 4989W        W20606  13.252  15.124   3.161  0.3117  0.2945  0.1204
 4990W        W20607  13.558   2.228  13.142 -0.0596 -0.1481 -0.2687
 4991W        W20608   1.467   1.456   2.956 -0.0164 -0.1594 -0.0882
 4992W        W20609   4.596  12.505  15.847 -0.4666  0.0528 -0.1326
 4993W        W20610   9.185   6.164  15.001 -0.1870  0.1430 -0.1357
 4994W        W20611   0.097  17.583   2.880  0.0873  0.3015  0.1698
 4995W        W20612  12.426   7.314  12.771 -0.2451  0.0679 -0.2733
 4996W        W20613   6.398   3.557  14.780 -0.1262 -0.1039 -0.0563
 4997W        W20614   0.632  10.100   1.291  0.1117 -0.2483 -0.1222
 4998W        W20615   2.592   2.586   1.301  0.1904  0.1502  0.3778
 4999W        W20616  10.450   9.324   0.095 -0.2133 -0.0398 -0.0086
 5000W        W20617  14.564   9.898   2.661  0.0076  0.1246  0.1127
 5001W        W20618   6.005   6.567   3.023  0.1748  0.0328  0.2619
 5002W        W20619   2.961  15.094   4.283 -0.0576  0.0762 -0.1058
 5003W        W20620   6.667   7.861  14.664 -0.0227 -0.1159  0.1800
 5004W        W20621  16.149  11.194  14.186 -0.4090 -0.1491  0.1401
 5005W        W20622   2.200  10.465   6.416 -0.1377  0.0618 -0.0997
 5006W        W20623   4.167  17.499   3.423 -0.3174  0.2061 -0.2902
 5007W        W20624  13.005  11.389  13.757 -0.2495 -0.0972 -0.0280
 5008W        W20625  13.276   9.135  12.289 -0.1639 -0.2335 -0.1570
 5009W        W20626  12.229   2.442   2.418 -0.4587  0.0174 -0.0807
 5010W        W20627  11.886   1.244  15.483 -0.3835  0.0935  0.1888
 5011W        W20628  12.452  12.615  13.893 -0.2132  0.0549 -0.1758
 5012W        W20629   8.586   3.872   6.251 -0.3143  0.0757 -0.1891
 5013W        W20630   7.592   4.764   5.228 -0.0227  0.1087  0.4059
 5014W        W20631   1.958   7.503  14.728  0.0451 -0.1959  0.2199
 5015W        W20632  11.358  10.218  14.072 -0.0805 -0.1925 -0.0070
 5016W        W20633  12.956   7.123  12.708 -0.0228 -0.0889  0.1150
 5017W        W20634   5.842  15.474   4.542 -0.1238  0.0717  0.2216
 5018W        W20635  15.965   0.481   5.428  0.1268  0.0628 -0.0250
 5019W        W20636   3.719   7.036  15.874  0.1315 -0.1417  0.2015
 5020W        W20637   5.689   9.932  15.469 -0.1684 -0.2227 -0.0871
 5021W        W20638  17.318  13.727  17.257 -0.0597  0.1366 -0.1557
 5022W        W20639  13.592   7.708   1.012 -0.2282 -0.2457 -0.0558
 5023W        W20640   6.503   3.723  15.272 -0.2294 -0.1203 -0.1315
 5024W        W20641  15.343   9.046   3.322 -0.1091  0.2008  0.1197
 5025W        W20642   0.228   5.337  15.179 -0.1282 -0.2062 -0.1638
 5026W        W20643  15.918  17.590  15.273 -0.2159 -0.0254 -0.0363
 5027W        W20644   9.395   1.566  11.394  0.1686  0.0422 -0.0842
 5028W        W20645  12.278   5.824   1.421 -0.1022 -0.0797 -0.0195
 5029W        W20646   6.734   5.310   2.322 -0.2671 -0.2902 -0.2605
 5030W        W20647   3.894  13.948   2.504 -0.0072  0.0188  0.2869
 5031W        W20648  10.569  15.234  12.952  0.0148  0.1861  0.2351
 5032W        W20649   2.665   2.219   0.536 -0.0168 -0.1647 -0.2804
 5033W        W20650  17.432  17.510  16.910 -0.1874 -0.2139  0.0199
 5034W        W20651   3.584   3.277   3.202  0.0549  0.0284 -0.1086
 5035W        W20652   5.972   5.116  12.968  0.1108  0.1938  0.0232
 5036W        W20653  17.425   1.269   2.016  0.0189  0.2776 -0.2388
 5037W        W20654   6.998  17.458  16.923 -0.2982  0.1730  0.0042
 5038W        W20655  14.832  12.319  13.456  0.1468  0.1159 -0.0180
 5039W        W20656   8.890  14.274  11.971 -0.0280 -0.2292 -0.2569
 5040W        W20657  16.004   3.405   3.615  0.1103 -0.2205  0.3638
 5041W        W20658  10.018   0.591   0.014  0.0398 -0.1085  0.3403
 5042W        W20659   1.006  16.552  15.106  0.4567  0.0220 -0.0167
 5043W        W20660  16.003   5.573   2.202  0.1688 -0.1327 -0.1869
 5044W        W20661   9.991  16.823   3.935  0.0545 -0.2191  0.0184
 5045W        W20662  14.890   2.951   4.463  0.4032 -0.1044  0.3083
 5046W        W20663   7.562  10.075   5.773 -0.0365  0.1063  0.0511
 5047W        W20664   1.098   4.567   3.052  0.4441 -0.0051 -0.0006
 5048W        W20665   9.247   1.108  13.503  0.0699  0.1157  0.0433
 5049W        W20666   1.601   9.984   1.440  0.2407  0.1080  0.2488
 5050W        W20667   5.509   3.663   5.634 -0.0903 -0.0183 -0.1125
 5051W        W20668   3.847  17.009  15.160 -0.0571  0.0789  0.0704
 5052W        W20669   6.278   4.561   2.967  0.0254  0.0799 -0.1121
 5053W        W20670  11.845   5.749  15.787 -0.1984  0.0035 -0.0038
 5054W        W20671  11.770   0.182  15.453  0.1930 -0.0870  0.1869
 5055W        W20672  10.552   2.075   4.659  0.0372 -0.2067  0.0508
 5056W        W20673   7.571  15.928  11.955 -0.1598  0.1927 -0.1310
 5057W        W20674   6.517   7.800   0.587 -0.2097  0.1426 -0.1269
 5058W        W20675  15.655   2.087   5.356 -0.0229  0.0643 -0.2260
 5059W        W20676  11.609  11.622   3.285 -0.1375  0.2026 -0.1952
 5060W        W20677  16.718   1.254   4.309  0.1771  0.0105  0.0804
 5061W        W20678   8.685  17.509   1.341 -0.1010  0.2481  0.1555
 5062W        W20679   8.722   5.887   4.470  0.2352 -0.2979  0.0013
 5063W        W20680  16.027   7.896   2.058 -0.1956 -0.0855 -0.1005
 5064W        W20681   7.212   4.678   1.599  0.0174  0.0644  0.0787
 5065W        W20682   7.732   5.251  13.656  0.0043 -0.0967 -0.2765
 5066W        W20683   8.837   6.402  12.375 -0.4051  0.1488  0.4751
 5067W        W20684  13.240   1.452   4.577 -0.1306  0.3156  0.0495
 5068W        W20685   4.826   2.835  15.430  0.0327 -0.0543 -0.0309
 5069W        W20686   7.431   4.462  14.037 -0.3148 -0.2925 -0.0736
 5070W        W20687   4.979   3.048   1.665  0.0611 -0.0350 -0.1482
 5071W        W20688  13.967  16.261   3.885  0.0277 -0.3480 -0.2449
 5072W        W20689  11.469  15.422   5.649  0.1593 -0.0960  0.0189
 5073W        W20690   9.126   3.342  13.710 -0.1908  0.2488  0.1050
 5074W        W20691  13.430  16.885  15.172 -0.0425 -0.0414 -0.0755
 5075W        W20692  16.918  10.653  13.250 -0.0718 -0.2105  0.3903
 5076W        W20693  17.299   6.904  13.256  0.1318 -0.1132 -0.0151
 5077W        W20694   3.621   6.644   3.520 -0.1191 -0.1892  0.0750
 5078W        W20695   7.547   2.954  14.373  0.2043 -0.1663 -0.1080
 5079W        W20696  17.569  10.079  16.609  0.1229 -0.1193 -0.2336
 5080W        W20697   6.090   0.972   3.754  0.1680 -0.0698 -0.0947
 5081W        W20698   6.545  16.962   0.583  0.1618 -0.0011  0.5567
 5082W        W20699   6.666   9.922   3.474 -0.4828 -0.3091 -0.0568
 5083W        W20700  10.756  11.987  12.156 -0.0154 -0.0682 -0.1528
 5084W        W20701   2.116  16.785   0.019  0.1563 -0.2108  0.3431
 5085W        W20702   7.055   6.815  15.834 -0.0340  0.1987 -0.1053
 5086W        W20703   8.636   2.284  13.159  0.0590  0.1175 -0.0645
 5087W        W20704  11.772  17.012   3.221 -0.1406  0.2205  0.1512
 5088W        W20705  14.595  14.269   5.668 -0.1062 -0.0455  0.1072
 5089W        W20706   5.370   6.560   4.916  0.1783 -0.3345 -0.1688
 5090W        W20707  11.066   1.888   5.368  0.0454  0.0936 -0.0851
 5091W        W20708   4.657  15.275  12.875 -0.3889  0.1144  0.0031
 5092W        W20709  14.551  12.404   5.875  0.0232  0.0027  0.3591
 5093W        W20710  11.797  15.878  12.501  0.0902  0.0191  0.0892
 5094W        W20711  16.496  13.551   4.485  0.1991  0.2571  0.0416
 5095W        W20712   9.916  12.641   1.491 -0.3511 -0.1223 -0.1319
 5096W        W20713   1.018   4.114  16.691  0.1113  0.1452 -0.0495
 5097W        W20714  15.384  17.504  14.848 -0.1533 -0.4016 -0.1388
 5098W        W20715   0.255  16.033   1.462 -0.2032 -0.0191 -0.1850
 5099W        W20716  13.433   8.115  12.723  0.1228  0.0239  0.0597
 5100W        W20717  14.882   6.617   3.559 -0.0134  0.0063  0.0680
 5101W        W20718  13.750  14.324  15.445 -0.2032  0.2774 -0.1543
 5102W        W20719  14.033   2.924  15.618 -0.0004  0.2251  0.0220
 5103W        W20720  16.079   6.196   3.578  0.2738  0.1373 -0.2767
 5104W        W20721  12.904  17.595  14.973  0.2774 -0.0814 -0.1475
 5105W        W20722   9.959   7.271  12.055 -0.0369 -0.2776  0.0850
 5106W        W20723   2.744   2.086   1.667  0.0913 -0.3312  0.2397
 5107W        W20724   6.554   6.147   3.698  0.1817  0.0375  0.1032
 5108W        W20725  14.684   4.088  12.028 -0.1000  0.0021  0.0345
 5109W        W20726   4.384   2.410  17.083 -0.0215 -0.3108 -0.0899
 5110W        W20727   6.473  12.904  15.704  0.0864  0.2567 -0.2742
 5111W        W20728  15.893   6.402   6.761 -0.3708  0.1050 -0.1649
 5112W        W20729  13.316  13.595  14.169  0.1782 -0.1432  0.0262
 5113W        W20730   9.892  10.060   4.318  0.0868 -0.0349  0.4852
 5114W        W20731  10.890   2.712   2.925 -0.0200 -0.1237 -0.0555
 5115W        W20732   0.866   9.215   5.181  0.0354  0.3985  0.0398
 5116W        W20733  10.677  14.116   5.184  0.0815 -0.0599  0.1628
 5117W        W20734   9.004  15.454   3.158 -0.0782 -0.0634  0.2873
 5118W        W20735   0.611   3.996  16.993  0.0492 -0.1171 -0.2048
 5119W        W20736   5.434  15.260  14.059  0.4363 -0.1434 -0.0703
 5120W        W20737   2.417   9.635   1.336  0.0758 -0.0195  0.1069
 5121W        W20738  15.113  13.302   1.644  0.3615  0.0847  0.3179
 5122W        W20739   1.373   5.965  14.036  0.0630  0.1332  0.0842
 5123W        W20740   5.985   1.478   3.548 -0.0891  0.0031  0.0463
 5124W        W20741   0.533  11.266  13.185 -0.1713  0.1105  0.1417
 5125W        W20742   4.241  10.425   4.924 -0.4370 -0.0912  0.0348
 5126W        W20743  17.173  13.669   4.325  0.2477  0.1406  0.0351
 5127W        W20744   4.989  17.422   2.456 -0.1198  0.0664 -0.2265
 5128W        W20745   7.885   7.482  12.902  0.3134  0.3345  0.0766
 5129W        W20746  12.575   8.708  16.745 -0.5570  0.0086 -0.2387
 5130W        W20747   2.320   9.197  15.419 -0.2922  0.3162 -0.2259
 5131W        W20748  16.855  12.957  14.636 -0.0286 -0.0472  0.1950
 5132W        W20749  16.821   3.024  16.249 -0.0006  0.1951  0.0826
 5133W        W20750   1.066  12.408   1.575 -0.0539  0.1184 -0.2130
 5134W        W20751  14.073   5.627  15.042 -0.2580 -0.0677 -0.0551
 5135W        W20752  15.309  12.361  13.883 -0.0383 -0.2276 -0.0272
 5136W        W20753   0.990   5.848   1.831  0.0554  0.0748 -0.2693
 5137W        W20754  11.028  13.412   1.728  0.1864 -0.2651  0.2466
 5138W        W20755  13.084  14.687  12.297 -0.0814 -0.3661  0.0116
 5139W        W20756  10.057  11.359   3.253  0.1061  0.3660  0.0107
 5140W        W20757  12.064  14.506  15.939 -0.0130 -0.3576  0.2991
 5141W        W20758   6.196   6.715  14.189 -0.0127  0.0563 -0.0606
 5142W        W20759   9.730  15.544  14.716  0.2201  0.0142 -0.1726
 5143W        W20760  15.823   3.438   6.567  0.1946 -0.2614  0.2509
 5144W        W20761   0.507   6.007  12.510  0.0044 -0.0579  0.1049
 5145W        W20762  13.506  10.435   2.546  0.3127  0.0963 -0.0282
 5146W        W20763  13.493  14.414   2.503  0.0455  0.2886 -0.0828
 5147W        W20764  14.031  17.089   4.922 -0.2266  0.1803 -0.1623
 5148W        W20765  11.015   7.224   2.551 -0.0415  0.1825  0.2588
 5149W        W20766   3.187   4.834   1.993  0.3735  0.0745 -0.0607
 5150W        W20767  15.400   2.048  13.066  0.0219  0.2633  0.0960
 5151W        W20768  12.783  11.380   4.061 -0.1519 -0.2313 -0.2012
 5152W        W20769  11.849  11.324  15.531 -0.1600 -0.2808  0.1960
 5153W        W20770   7.677   2.335   0.900 -0.0637 -0.1910 -0.1842
 5154W        W20771   7.113  16.605  17.167  0.2600  0.1292  0.1709
 5155W        W20772  10.437  11.583  14.851 -0.2350  0.2492 -0.0982
 5156W        W20773  13.480   0.850  16.969 -0.1303  0.0631  0.3763
 5157W        W20774   3.352  15.408   0.481  0.3937  0.0708 -0.3771
 5158W        W20775   6.593   9.420  17.018 -0.0512  0.2067 -0.1293
 5159W        W20776   3.254   5.333   2.045  0.0695  0.1214 -0.2956
 5160W        W20777   1.257  10.087  14.179  0.0957  0.2842 -0.0703
 5161W        W20778  10.330   8.765   4.518 -0.1324  0.2884  0.0011
 5162W        W20779   0.976  12.955  13.845  0.1056  0.3867 -0.0881
 5163W        W20780  12.238   6.204   5.113  0.0501 -0.1926 -0.0724
 5164W        W20781   8.946  15.253  15.470 -0.2303 -0.0508  0.0171
 5165W        W20782   7.029   5.370   4.188 -0.2139 -0.1236  0.1370
 5166W        W20783   7.106   2.836  11.671 -0.1561 -0.1111 -0.1728
 5167W        W20784   6.147   0.244  13.190 -0.3323 -0.3241 -0.1104
 5168W        W20785   2.762  14.184  12.983 -0.1754 -0.1719 -0.1234
 5169W        W20786  12.521  14.382  16.045 -0.2386  0.2823  0.2287
 5170W        W20787  13.489   5.489   4.719 -0.0306 -0.0778  0.0542
 5171W        W20788   6.495   8.783  12.105 -0.0818  0.1335  0.1323
 5172W        W20789   4.720   2.916  17.101 -0.1758  0.1320  0.1616
 5173W        W20790   9.766  15.192   3.744 -0.0063  0.1436  0.1576
 5174W        W20791   7.174   6.737  12.017  0.1889  0.4125 -0.1287
 5175W        W20792  11.278   5.846   2.356  0.3802 -0.0276  0.0850
 5176W        W20793   5.419   2.608  13.119  0.2725 -0.1539 -0.2115
 5177W        W20794   0.912  12.790   5.321  0.2943 -0.0717 -0.0040
 5178W        W20795   0.492   8.934   2.208  0.1964 -0.0621 -0.1514
 5179W        W20796   3.562   3.707   1.374  0.0717  0.3333  0.1082
 5180W        W20797  16.249   3.626  15.878 -0.1605 -0.0598 -0.0916
 5181W        W20798   0.104   6.787   4.371 -0.0008 -0.1223  0.0779
 5182W        W20799  11.851  13.775  11.746 -0.0110 -0.2212 -0.0565
 5183W        W20800   2.126   4.242  15.549 -0.0605  0.0320 -0.1170
 5184W        W20801   5.423   5.383   1.010  0.2326 -0.0965 -0.0820
 5185W        W20802   0.307   5.146   2.263 -0.1360  0.2076 -0.1298
 5186W        W20803   4.791   1.648   2.304 -0.1116  0.1911  0.0488
 5187W        W20804   8.479  15.347   2.420 -0.1427 -0.1383 -0.2780
 5188W        W20805  14.066  15.057   3.017  0.0822  0.2532 -0.0005
 5189W        W20806  13.970   1.568   2.490 -0.1189  0.0256 -0.0137
 5190W        W20807   0.748   2.606  14.782  0.1908 -0.1781 -0.5453
 5191W        W20808  11.839   6.960   2.833 -0.0281 -0.3358 -0.1053
 5192W        W20809  15.540  13.059  11.818 -0.1129  0.1208  0.4609
 5193W        W20810  15.661   1.992   2.466 -0.0163  0.0795  0.0743
 5194W        W20811  11.511  10.609  14.848 -0.2440 -0.1449 -0.0030
 5195W        W20812  14.031  11.041  12.860 -0.2994 -0.2745  0.1066
 5196W        W20813  16.078   9.472  13.523  0.1474 -0.2029  0.1885
 5197W        W20814  15.032  15.316   2.093  0.0262 -0.1598 -0.0215
 5198W        W20815  11.438   5.117   5.796 -0.1268  0.1644  0.1344
 5199W        W20816   3.845   1.326   2.246 -0.0925 -0.0770 -0.0417
 5200W        W20817  16.255  11.692  13.831  0.1507  0.0128 -0.2434
 5201W        W20818   4.985   2.379  15.233 -0.4186 -0.2076 -0.0943
 5202W        W20819  17.310   2.807   0.685 -0.2575 -0.0365  0.0458
 5203W        W20820   4.659  14.075  17.137 -0.5497  0.1397 -0.4040
 5204W        W20821  13.753   5.165  16.235 -0.0837  0.2599 -0.1315
 5205W        W20822  13.576  11.945  13.655  0.2616 -0.0285  0.0812
 5206W        W20823   7.522   4.217   3.538 -0.3188  0.1966  0.0277
 5207W        W20824  14.535   0.795   4.542 -0.0921 -0.1408  0.3228
 5208W        W20825   1.194  11.120   4.411 -0.2639 -0.3199 -0.0122
 5209W        W20826   6.427   9.157   4.059 -0.0981  0.0350 -0.1658
 5210W        W20827  16.988  14.045   2.531 -0.1901 -0.0399  0.1733
 5211W        W20828   1.179   1.803  17.021 -0.0024  0.2911  0.1076
 5212W        W20829  16.641  13.432  13.878 -0.0800  0.2236  0.3034
 5213W        W20830   4.819   2.305   0.001  0.0713  0.2379 -0.1486
 5214W        W20831   3.601   7.669  16.517  0.0748  0.1381  0.1090
 5215W        W20832   2.305   5.592   7.034  0.0740  0.0327 -0.1091
 5216W        W20833  13.234   1.278   4.062 -0.0020  0.0275  0.3013
 5217W        W20834   0.891   2.059   5.158  0.0298  0.1350 -0.0179
 5218W        W20835   9.859  14.776   6.277  0.1158  0.0015 -0.0810
 5219W        W20836   0.092   6.245   1.585 -0.3354 -0.1550 -0.0942
 5220W        W20837   9.440  10.714  14.388 -0.1252  0.0623  0.0347
 5221W        W20838   0.655   0.161   1.303 -0.0688  0.1744 -0.0038
 5222W        W20839   5.245   2.301  16.009 -0.2282 -0.3743  0.0180
 5223W        W20840   4.523   9.567   0.748 -0.0527 -0.3246  0.1431
 5224W        W20841   3.030  12.077   3.918  0.3018 -0.2673  0.2141
 5225W        W20842   9.449  12.972   0.765  0.1045 -0.4530  0.3137
 5226W        W20843   7.903  16.303  16.294 -0.1796 -0.2074 -0.3593
 5227W        W20844  15.603  10.587  12.581  0.1284  0.1962 -0.1616
 5228W        W20845   2.587   5.868   1.242  0.0163 -0.0604 -0.0723
 5229W        W20846   7.308   2.445   6.514  0.2714 -0.1778  0.1578
 5230W        W20847   9.307  16.394   0.241  0.0570 -0.1302  0.1279
 5231W        W20848   2.846   6.375   4.362  0.1584  0.0033 -0.2453
 5232W        W20849  10.886   7.787   4.058  0.0997  0.0673 -0.0514
 5233W        W20850  12.115   8.026  15.258  0.0738  0.1170 -0.1148
 5234W        W20851  11.886  15.587   5.364  0.3661  0.0534 -0.1111
 5235W        W20852   2.957   0.074  15.932 -0.0279  0.0328 -0.1850
 5236W        W20853   1.123   3.199   0.443 -0.1035 -0.0429  0.1385
 5237W        W20854   0.909   1.610   6.006  0.2146 -0.2737  0.1307
 5238W        W20855   9.865  11.228  12.702 -0.0995 -0.2793  0.2220
 5239W        W20856   5.995  11.727   2.972  0.2441 -0.2017  0.0705
 5240W        W20857   5.568  14.000   4.146 -0.2183  0.0983  0.1568
 5241W        W20858   9.739   4.102  12.676  0.0261 -0.1885  0.0566
 5242W        W20859   5.937  10.152  14.476  0.1422 -0.0037 -0.0962
 5243W        W20860  16.296  12.588  13.949  0.1506 -0.0757 -0.2967
 5244W        W20861   7.569  10.961   4.836  0.0397  0.0840  0.3212
 5245W        W20862  14.203   1.264  11.506  0.0320  0.0194  0.0713
 5246W        W20863  16.441   9.055  16.773  0.0207 -0.0202  0.2774
 5247W        W20864  11.587  15.101   2.437 -0.0291  0.0374 -0.2070
 5248W        W20865   6.476   3.268   4.580 -0.1525 -0.1655  0.1945
 5249W        W20866   1.508   0.333  11.753  0.3844 -0.1500 -0.1813
 5250W        W20867  14.238  12.202   4.328  0.2398 -0.2303 -0.0342
 5251W        W20868   1.341   6.123   1.569  0.0708 -0.2246 -0.0496
 5252W        W20869  10.951  16.493   4.783  0.0528 -0.0225 -0.0070
 5253W        W20870   2.646  14.655   1.746  0.1375 -0.1406  0.0405
 5254W        W20871  11.780  11.063  17.011 -0.1724 -0.3743  0.0055
 5255W        W20872   8.901  14.623  16.034  0.1803 -0.0095  0.0311
 5256W        W20873   3.794   7.556   4.351 -0.0607  0.1174  0.1023
 5257W        W20874  12.951  13.472   3.464  0.2809 -0.3050 -0.1500
 5258W        W20875   0.339   1.137   3.676 -0.0266  0.0042 -0.3263
 5259W        W20876   5.841  12.770   2.134 -0.3891  0.0282  0.0480
 5260W        W20877  16.318  15.705  14.338 -0.2501  0.3553 -0.1035
 5261W        W20878   2.416  17.560  14.262  0.0475 -0.1205 -0.1360
 5262W        W20879  15.110  15.134  11.704 -0.0110  0.0736 -0.2336
 5263W        W20880   1.175   8.868  15.970  0.0863  0.1912 -0.0959
 5264W        W20881  11.096   2.845   0.629  0.4282  0.3038  0.0668
 5265W        W20882  12.976   0.451  14.851  0.2042  0.0552  0.2988
 5266W        W20883  16.452   3.259  12.738  0.1852  0.0333  0.0516
 5267W        W20884   8.932   0.832  16.408  0.3302  0.0203  0.1455
 5268W        W20885   6.388  14.723  17.199  0.1085 -0.1278 -0.1970
 5269W        W20886  11.803  17.166  12.648 -0.0521 -0.2597  0.2344
 5270W        W20887   1.520   9.162   2.213  0.2546  0.2162 -0.0055
 5271W        W20888   3.364   6.372   4.322  0.0182 -0.0238 -0.1048
 5272W        W20889  11.827   8.028   6.310  0.0146 -0.0293  0.1436
 5273W        W20890   9.136   9.207  16.023  0.1383 -0.2107 -0.2116
 5274W        W20891   7.487   5.699  13.771  0.1981 -0.3093  0.0647
 5275W        W20892   7.330  16.342   0.255  0.0445  0.0551  0.1876
 5276W        W20893   7.726   6.229   4.472  0.0812  0.1526 -0.2885
 5277W        W20894   2.004   5.159  14.061 -0.0706 -0.0739 -0.2571
 5278W        W20895  11.686  14.684   3.031  0.3080  0.3182  0.0058
 5279W        W20896   9.069  11.277   1.487  0.2307  0.1972 -0.2572
 5280W        W20897  13.410   4.421   6.376  0.0366 -0.1165 -0.0181
 5281W        W20898   2.370   3.317   1.355 -0.2869  0.3207 -0.0649
 5282W        W20899  12.896  10.526   4.994 -0.2139 -0.0728 -0.0946
 5283W        W20900  16.478   2.436   5.846  0.0503 -0.1515 -0.1626
 5284W        W20901   5.676   5.696   4.300 -0.0918  0.0298 -0.0204
 5285W        W20902   9.867   5.079  14.476 -0.1151 -0.1341 -0.0809
 5286W        W20903  12.981   7.495  14.128 -0.3338 -0.2197 -0.0118
 5287W        W20904   5.225  13.597  15.415 -0.2103  0.1465 -0.1877
 5288W        W20905  13.066  13.668   1.705  0.0985  0.1438 -0.2019
 5289W        W20906   3.006  12.499  13.499  0.1956 -0.0276  0.1177
 5290W        W20907  13.292   7.983  13.780  0.1907 -0.0087  0.1871
 5291W        W20908   3.513  15.854   0.952  0.0731  0.1338 -0.3940
 5292W        W20909   5.686   5.312   3.070 -0.0335 -0.4731  0.1332
 5293W        W20910   7.721   0.290   5.316  0.3479 -0.1497 -0.1371
 5294W        W20911  10.126   2.683  16.843 -0.2344  0.1089 -0.0600
 5295W        W20912   9.227  10.648  15.437 -0.0005  0.0238  0.4836
 5296W        W20913   5.808   0.044  11.480 -0.2784 -0.0535 -0.1320
 5297W        W20914   8.556   9.801  14.127 -0.4557  0.0374  0.1056
 5298W        W20915   0.697  13.283   6.742  0.1659 -0.1090 -0.1755
 5299W        W20916   1.161   3.743   1.891  0.1565  0.0390 -0.0681
 5300W        W20917   2.121  14.325   3.412  0.2590  0.0300 -0.1128
 5301W        W20918   0.728   2.964   0.714 -0.0933 -0.3189 -0.3048
 5302W        W20919   7.638  12.886   1.294  0.2186  0.0722  0.1017
 5303W        W20920  11.521  14.447  13.681 -0.4624  0.1255  0.0450
 5304W        W20921   2.409  10.321  13.241 -0.0886 -0.0970 -0.1276
 5305W        W20922  17.337  17.470  16.368  0.1677 -0.0092  0.1234
 5306W        W20923   1.658   7.899  16.661 -0.1458  0.1996 -0.2458
 5307W        W20924   2.168  13.215  14.425  0.2506 -0.1394  0.2103
 5308W        W20925   3.467   1.454  17.056  0.2461 -0.1227 -0.0155
 5309W        W20926  10.784   6.181   3.251  0.2505 -0.0437  0.0979
 5310W        W20927   5.166   2.616   4.755  0.2612 -0.0469 -0.0317
 5311W        W20928  14.484   9.849  16.910  0.0006  0.0383  0.0189
 5312W        W20929  14.142   3.801   5.869 -0.0383  0.3755  0.0869
 5313W        W20930   6.902  11.629   6.048  0.1177  0.2261  0.0684
 5314W        W20931  13.916  16.740  15.107  0.2277  0.1571  0.0544
 5315W        W20932  10.629   0.609   5.142 -0.5999 -0.2364 -0.0421
 5316W        W20933   8.013   1.078  15.115  0.1517  0.1316 -0.2357
 5317W        W20934   5.668   9.638   0.111  0.0030  0.0720 -0.1527
 5318W        W20935   6.133  10.798   1.708 -0.2226 -0.1792  0.2090
 5319W        W20936   1.519  15.637  13.671 -0.0769  0.1459 -0.1720
 5320W        W20937   4.715  15.529  17.188 -0.0408  0.1683 -0.1808
 5321W        W20938   9.936   1.590   1.601 -0.0687  0.1853 -0.2337
 5322W        W20939  13.526   1.775  15.108 -0.4017 -0.3120 -0.0547
 5323W        W20940   2.771  15.140  15.717  0.3825 -0.1923 -0.0644
 5324W        W20941  15.631  13.475   2.394  0.0804  0.0231  0.2652
 5325W        W20942  10.866  15.605   2.335  0.2154 -0.1110  0.1481
 5326W        W20943  11.510  13.009   0.473 -0.1312 -0.0118 -0.1508
 5327W        W20944   8.525  15.341  15.239  0.3874  0.0601  0.1696
 5328W        W20945   2.723  13.291   3.477  0.2073  0.2697 -0.1928
 5329W        W20946  14.132   4.840   3.088 -0.2202  0.0310  0.2926
 5330W        W20947   1.863  10.467   4.235  0.2511 -0.1829 -0.3969
 5331W        W20948  15.320   3.865  15.860  0.1301  0.1077 -0.0883
 5332W        W20949  14.010   6.974   4.529 -0.0004  0.0915 -0.0433
 5333W        W20950   1.134   8.840  16.985 -0.1470  0.2059  0.2586
 5334W        W20951   1.488   3.215   4.778 -0.2700  0.3034  0.1065
 5335W        W20952   8.144  16.450  15.355 -0.1337 -0.2129 -0.0849
 5336W        W20953   3.512  12.591   2.944 -0.3637 -0.1085  0.0239
 5337W        W20954  11.627  11.874  16.905 -0.1851  0.1932  0.1538
 5338W        W20955  10.465   7.873   0.060 -0.2336 -0.0218  0.1247
 5339W        W20956   3.490  14.989  14.652 -0.1989 -0.2611 -0.2545
 5340W        W20957   6.832  13.584   3.158  0.1624 -0.0053 -0.0090
 5341W        W20958  11.197   4.195   0.232 -0.0857 -0.2235 -0.1853
 5342W        W20959  14.746  12.406   3.486  0.1778 -0.0448  0.0924
 5343W        W20960   0.747  10.756  13.310 -0.1062  0.1420 -0.0071
 5344W        W20961   9.682   6.897  14.089 -0.1165 -0.1948  0.0293
 5345W        W20962   4.092   9.569  15.169  0.1330  0.1554 -0.1054
 5346W        W20963   2.236  14.036  15.297  0.1733  0.1670 -0.0694
 5347W        W20964  12.172  16.652   3.157 -0.1632  0.2513 -0.0523
 5348W        W20965   8.911   6.800  15.876  0.1101 -0.1529  0.0878
 5349W        W20966   3.463  11.984  12.923  0.1058 -0.1244 -0.0212
 5350W        W20967   2.357  15.393   1.963 -0.5736  0.2806  0.1184
 5351W        W20968   3.593  13.569  16.370  0.0780 -0.0375  0.2192
 5352W        W20969   4.589  16.871  12.362 -0.2047  0.0008 -0.1591
 5353W        W20970   4.157   8.185  14.361  0.0099 -0.0915  0.0927
 5354W        W20971   3.805   3.554   2.364 -0.5257  0.0423 -0.1140
 5355W        W20972  16.634   5.134   2.611 -0.0435 -0.2351  0.0431
 5356W        W20973   0.742  15.900  13.301  0.0070  0.0767 -0.0455
 5357W        W20974  10.106   7.533   5.927  0.1064 -0.2705 -0.1122
 5358W        W20975   4.891   6.235  17.145  0.1494  0.1958 -0.0667
 5359W        W20976   9.286  16.433   3.032  0.1756  0.0954 -0.1532
 5360W        W20977  11.252   2.441   2.072 -0.2237  0.1556  0.0495
 5361W        W20978   7.259   3.743  12.049 -0.2230  0.1368  0.2185
 5362W        W20979  11.747   4.577   0.306 -0.0835  0.1246 -0.0561
 5363W        W20980   1.951   7.318   6.362 -0.0871  0.0640 -0.0991
 5364W        W20981   6.358   9.590  13.973 -0.0002 -0.2520 -0.0724
 5365W        W20982   2.351   0.244  12.481  0.3417  0.1886 -0.0616
 5366W        W20983   6.304  11.361   0.791 -0.0083 -0.0236  0.0284
 5367W        W20984  17.497  16.211   1.242  0.4110 -0.0712  0.1235
 5368W        W20985   4.305   7.694  14.167 -0.2691 -0.2589  0.1268
 5369W        W20986   9.386   3.972   1.161  0.1291 -0.0237 -0.0396
 5370W        W20987   4.391   5.249   1.049 -0.1351 -0.0478  0.3958
 5371W        W20988  13.816  13.357  14.779  0.1358 -0.1150  0.1212
 5372W        W20989  14.800   4.335   0.960 -0.0132 -0.0141 -0.1073
 5373W        W20990   7.630   4.337  15.835  0.0721 -0.0895  0.2651
 5374W        W20991   5.392   3.976  13.557  0.0998  0.1075 -0.1485
 5375W        W20992  12.758  16.969   4.465  0.2883  0.0497  0.2062
 5376W        W20993   8.912   6.291   3.090  0.2368 -0.2625  0.0332
 5377W        W20994  11.793   0.081   4.007  0.1024  0.1949 -0.1985
 5378W        W20995  12.246   0.191   0.905 -0.1100  0.0475 -0.2941
 5379W        W20996   6.959  16.747   0.901  0.4591 -0.2753  0.1194
 5380W        W20997   9.794  12.549   5.678 -0.2906 -0.2650 -0.1870
 5381W        W20998  13.797  15.619   1.369 -0.2137  0.3732  0.3778
 5382W        W20999   4.855  13.238  16.171 -0.0949  0.1855  0.3805
 5383W        W21000   1.810  15.120  12.969  0.3627 -0.1735 -0.2868
 5384W        W21001   4.990   4.412  13.465  0.0004 -0.5090 -0.0887
 5385W        W21002   7.475   7.584  16.874  0.0012 -0.0753 -0.3016
 5386W        W21003   2.548  10.494   3.173  0.3918 -0.4331 -0.1448
 5387W        W21004   3.826   2.386  15.273  0.1741 -0.1451  0.0075
 5388W        W21005   0.950   0.869  11.228  0.0472  0.1282 -0.3588
 5389W        W21006   5.055   9.729   5.971  0.1745 -0.0310 -0.1060
 5390W        W21007  11.155  16.778   6.595 -0.0925 -0.0419 -0.0580
 5391W        W21008   9.212  11.032  15.766 -0.0533 -0.0272 -0.2987
 5392W        W21009  13.532   9.643   0.761  0.1919  0.1201 -0.3764
 5393W        W21010   8.690   3.676  15.546  0.1859  0.4365  0.0810
 5394W        W21011  13.270  11.500  16.696  0.2592  0.0017 -0.1935
 5395W        W21012  12.363  13.984  15.166 -0.1906  0.2471  0.1477
 5396W        W21013   7.109   0.737  16.630 -0.0946 -0.3011  0.2127
 5397W        W21014   2.518  16.735  11.540 -0.1051 -0.1770  0.1934
 5398W        W21015  16.968   3.279   3.936  0.2546  0.1039  0.0834
 5399W        W21016  12.703  13.481  12.820  0.1216 -0.0850 -0.2500
 5400W        W21017   7.543  17.059   4.958 -0.1752 -0.0434 -0.2545
 5401W        W21018  16.407  14.353  15.705 -0.0968 -0.0677  0.0402
 5402W        W21019   0.518  10.877   4.181  0.0637 -0.2317  0.0452
 5403W        W21020  10.108   0.337  16.738 -0.1329 -0.0593  0.2489
 5404W        W21021   0.464  10.684   2.420 -0.1186 -0.0280 -0.2599
 5405W        W21022   9.345   9.484  16.876 -0.1299 -0.2628  0.3031
 5406W        W21023  15.762   5.726   5.644 -0.0061  0.3607  0.0073
 5407W        W21024  10.569  14.795   3.673 -0.0633  0.2545 -0.1655
 5408W        W21025   7.513  16.626   5.191  0.2327  0.0234 -0.1043
 5409W        W21026   4.466   4.982  12.793 -0.0974  0.4117  0.0476
 5410W        W21027   4.503  16.036   3.932  0.1673  0.0578  0.1074
 5411W        W21028   4.400  10.973  13.263 -0.0742 -0.2780  0.0903
 5412W        W21029  14.561   7.874  16.526 -0.0401 -0.4260  0.2382
 5413W        W21030   9.894  11.263  14.018 -0.1198 -0.0968  0.2106
 5414W        W21031   6.049   9.645   1.132  0.0417  0.0518  0.0166
 5415W        W21032   7.028   8.731  12.037 -0.1338 -0.3211  0.0990
 5416W        W21033   3.906   3.106   5.155 -0.1909  0.2618  0.2321
 5417W        W21034  15.848   0.362   4.990 -0.4589 -0.0095 -0.1935
 5418W        W21035  17.334  17.458  10.516 -0.0050 -0.1604 -0.4286
 5419W        W21036  15.545  10.560  16.030 -0.1053 -0.0614 -0.1716
 5420W        W21037  13.156   8.379  13.019  0.0577 -0.0766  0.2476
 5421W        W21038   0.935   0.774  16.710 -0.0898  0.0395 -0.2436
 5422W        W21039   7.844   4.174   3.146  0.1619  0.0598 -0.1472
 5423W        W21040  13.933  17.197   0.750  0.2764  0.0661  0.2641
 5424W        W21041  10.926  11.175   5.803 -0.1464  0.1425 -0.3258
 5425W        W21042  13.266  16.457   3.997  0.0101 -0.2413  0.0377
 5426W        W21043  11.325  12.681   3.425  0.3243 -0.0241 -0.2784
 5427W        W21044   7.699   9.427  13.808  0.0239  0.2044 -0.2052
 5428W        W21045   8.973   3.627   1.439 -0.1827 -0.0292 -0.1630
 5429W        W21046   2.544   9.962  15.976  0.1466  0.0196  0.1378
 5430W        W21047  13.087   8.988   1.266 -0.0410 -0.2602 -0.0682
 5431W        W21048   9.972   6.459  14.849  0.2681 -0.0358 -0.0358
 5432W        W21049   7.489   1.836   5.183 -0.6340  0.1483 -0.2883
 5433W        W21050   0.184   5.283  13.348  0.5212 -0.1314 -0.0553
 5434W        W21051  10.010   6.112   2.397 -0.0931 -0.0575 -0.2826
 5435W        W21052   1.792   3.862   0.063  0.0588 -0.0261  0.0601
 5436W        W21053  10.645  15.035  12.007 -0.2153 -0.0052 -0.2119
 5437W        W21054  16.313   9.819   5.085 -0.0766 -0.3425 -0.1052
 5438W        W21055   3.363   0.728  14.145 -0.0966  0.1314  0.1005
 5439W        W21056  11.810   6.592  15.680  0.1035  0.0750  0.4252
 5440W        W21057   1.396  11.796   2.463 -0.1551 -0.1286  0.0271
 5441W        W21058   5.691  12.900  16.412  0.0797  0.2166 -0.3206
 5442W        W21059   4.243  11.834  16.380 -0.0122 -0.1217  0.2135
 5443W        W21060  12.670   6.889   0.729 -0.1964  0.3175  0.1670
 5444W        W21061   1.554   9.262   5.680 -0.1559 -0.0498 -0.0383
 5445W        W21062  14.540   2.531   0.885 -0.1867  0.0124  0.1974
 5446W        W21063  15.242   3.075   0.649  0.2274  0.1434 -0.1050
 5447W        W21064   6.535   4.101  12.300 -0.0921  0.2694 -0.3254
 5448W        W21065  14.806   5.175  12.210 -0.3328  0.1630  0.0539
 5449W        W21066  14.274  10.113   6.818 -0.0404  0.0314 -0.3778
 5450W        W21067  14.789   7.058  17.139  0.2327  0.0809 -0.1989
 5451W        W21068   8.120   8.404   4.254  0.1311 -0.4364  0.4271
 5452W        W21069   5.344  11.432  17.088  0.0491 -0.1276 -0.1879
 5453W        W21070   8.262   1.553   3.543  0.1126  0.0422 -0.1660
 5454W        W21071  13.061   7.232  15.993 -0.1256 -0.2832  0.3731
 5455W        W21072   2.385  16.233   2.776  0.1813 -0.1055  0.2362
 5456W        W21073   7.639  12.225  16.519 -0.1502 -0.1927  0.0097
 5457W        W21074   8.640   8.189  16.092  0.0408 -0.0565  0.0092
 5458W        W21075   5.230  16.009   4.999 -0.1762  0.1230 -0.2804
 5459W        W21076  11.385  13.392   1.082  0.0379  0.0072 -0.1255
 5460W        W21077   1.259   1.267   3.817 -0.3184 -0.0843 -0.0402
 5461W        W21078  11.751  16.769  13.958  0.0112  0.1037 -0.2297
 5462W        W21079   2.573   8.073  12.683  0.2497  0.3148  0.0857
 5463W        W21080  15.622  11.999  15.240 -0.2575 -0.0623 -0.3034
 5464W        W21081   6.414   6.321  15.403 -0.2938  0.0837 -0.0506
 5465W        W21082   2.341   6.000   6.116  0.0604 -0.0233  0.0622
 5466W        W21083  12.099   3.805   0.200  0.2277 -0.1788 -0.1090
 5467W        W21084  15.805  15.163   0.303 -0.0132 -0.1323  0.2810
 5468W        W21085  16.812  15.697  16.208 -0.0258  0.2728 -0.0163
 5469W        W21086  16.041  10.768  15.696  0.1298 -0.0049  0.1693
 5470W        W21087   2.542   7.807  16.592 -0.1072  0.1728 -0.0584
 5471W        W21088  12.196  15.183   1.684  0.0390 -0.2710  0.1116
 5472W        W21089   7.783  14.630   2.728  0.2895 -0.0863  0.1683
 5473W        W21090  17.266   4.455  16.840 -0.0714  0.0661 -0.1067
 5474W        W21091   7.654   9.332  15.176 -0.0227  0.0342 -0.1548
 5475W        W21092   2.432   7.287  14.991 -0.1049  0.0980  0.0740
 5476W        W21093   3.473  17.613   3.166 -0.1068 -0.0740 -0.0081
 5477W        W21094  15.278   1.363   4.520  0.1931 -0.4131  0.1279
 5478W        W21095   0.331   2.464   1.889  0.1736  0.1968 -0.0155
 5479W        W21096  11.979  14.976   2.766 -0.0245 -0.0345 -0.1042
 5480W        W21097  10.129   8.429  13.658 -0.1376  0.2507 -0.0180
 5481W        W21098  11.099   3.308   5.587 -0.4166 -0.0124  0.4146
 5482W        W21099  10.068   6.238  16.297  0.0054 -0.0126  0.1740
 5483W        W21100  14.680  12.715  12.043  0.0245  0.0383 -0.0610
 5484W        W21101   4.499  13.584  12.249  0.1895  0.0994 -0.2392
 5485W        W21102   2.000   2.966  14.323 -0.2206 -0.0015 -0.1421
 5486W        W21103   3.978  16.239   0.291 -0.1004 -0.1801  0.2226
 5487W        W21104  10.095  15.062  17.292  0.2584 -0.3561 -0.0773
 5488W        W21105  13.793   9.214  15.307 -0.1364  0.3498  0.1603
 5489W        W21106  10.176   2.164   3.886  0.1490 -0.1314 -0.1103
 5490W        W21107  14.070   7.479   1.106 -0.1259 -0.1280 -0.1296
 5491W        W21108  10.036   4.730  17.141 -0.1312  0.2764  0.3339
 5492W        W21109   8.337   5.900   4.032  0.1339  0.2247 -0.2623
 5493W        W21110   6.245  12.928  16.540 -0.4444  0.0003  0.0702
 5494W        W21111   4.967   2.381   3.376  0.0011 -0.1105  0.3766
 5495W        W21112   8.259   4.442   3.300 -0.2347 -0.0988  0.1663
 5496W        W21113   0.188  13.066   2.525  0.0445 -0.0054 -0.0604
 5497W        W21114   5.315   6.023   3.961  0.1320 -0.0399  0.0170
 5498W        W21115  11.461  13.853  13.577  0.0688  0.0742  0.1269
 5499W        W21116  11.087   5.066  14.907 -0.0022  0.2361 -0.0562
 5500W        W21117   4.252  15.642   2.455  0.3182 -0.0574 -0.2288
 5501W        W21118   0.595   9.063  11.276  0.0467  0.2461 -0.1170
 5502W        W21119  12.481   0.145  14.781 -0.2047 -0.0012  0.1496
 5503W        W21120   9.843   5.544   6.872  0.0480 -0.0210  0.1974
 5504W        W21121   2.901   7.242   4.008 -0.0485 -0.1921 -0.3091
 5505W        W21122  10.632  11.951   2.453 -0.2781  0.2737 -0.0122
 5506W        W21123   2.986  13.344   5.500  0.0577  0.3097  0.0731
 5507W        W21124   2.106  12.174   0.359 -0.2405 -0.4197 -0.1783
 5508W        W21125   6.417  12.366   6.027  0.1011 -0.2223 -0.0354
 5509W        W21126  13.278  16.992  12.784 -0.0204  0.0151  0.1021
 5510W        W21127  11.138   3.546   3.209  0.0599  0.0049  0.3646
 5511W        W21128   3.704   6.776   2.699 -0.0055  0.3205 -0.2637
 5512W        W21129   5.753  16.338  14.657  0.1880 -0.1669 -0.1792
 5513W        W21130   0.919   1.523   0.046 -0.0249 -0.0569 -0.0279
 5514W        W21131  17.052  11.704   2.336 -0.2622  0.1325  0.0652
 5515W        W21132   2.269   6.990  16.413  0.0962  0.3106  0.1525
 5516W        W21133   8.273   7.145  14.211 -0.0241  0.2340 -0.0990
 5517W        W21134  15.992  17.368   0.443  0.0249  0.1958  0.0185
 5518W        W21135   9.122   9.790   2.012 -0.2273 -0.1421  0.1677
 5519W        W21136  14.016  16.337  16.341 -0.0432  0.1005 -0.2498
 5520W        W21137  12.978  17.263  15.816  0.4410  0.0012 -0.0873
 5521W        W21138  12.638  17.354  17.167  0.2085 -0.1184  0.3051
 5522W        W21139   2.507   5.565  16.327 -0.2143 -0.0239 -0.0207
 5523W        W21140   1.413  10.426   3.565 -0.2610 -0.2356  0.0672
 5524W        W21141   6.194   4.001  14.883  0.0374 -0.1077  0.2378
 5525W        W21142   4.283   4.572   4.032  0.0641 -0.1946 -0.0300
 5526W        W21143   5.134  15.417  15.606 -0.1389 -0.0716  0.1167
 5527W        W21144  16.199  10.197  13.090 -0.4173  0.0486 -0.3606
 5528W        W21145   7.213  16.817  13.226  0.0868 -0.1562 -0.0275
 5529W        W21146   8.100  13.093   3.496  0.0403  0.1928 -0.1590
 5530W        W21147   4.194  16.444  13.564  0.2763 -0.0202  0.1336
 5531W        W21148   1.923   9.396   4.250  0.1889  0.0188 -0.2683
 5532W        W21149   6.159  13.975  11.873  0.0129  0.0046  0.0338
 5533W        W21150  15.329  14.036   3.829  0.2619  0.0535  0.3622
 5534W        W21151  12.987   2.208   0.262 -0.1963 -0.2041  0.1852
 5535W        W21152  14.965   9.211   3.531 -0.0308 -0.1060 -0.2494
 5536W        W21153   4.535  14.760   5.166  0.0519  0.0243 -0.1983
 5537W        W21154  15.891   7.186  16.725  0.0517 -0.0623 -0.0512
 5538W        W21155  15.653  11.028  14.171  0.1043 -0.0499 -0.0208
 5539W        W21156   7.549   7.401   3.809 -0.0644  0.0860  0.2920
 5540W        W21157  17.325   4.020  17.252  0.0382  0.1053  0.1221
 5541W        W21158  15.163   5.504  11.755  0.1261  0.0406 -0.0429
 5542W        W21159   7.781   3.726   5.317 -0.0890 -0.0448 -0.3519
 5543W        W21160  16.735   5.537  12.033  0.1807  0.0083 -0.0348
 5544W        W21161   3.542   5.157  17.119 -0.1501  0.1871 -0.3750
 5545W        W21162  14.710  11.392   3.936 -0.0267  0.1202 -0.2099
 5546W        W21163   9.180  17.511  12.296  0.1051 -0.2016 -0.1247
 5547W        W21164  17.290  15.916  16.776 -0.1354  0.2215 -0.3161
 5548W        W21165  13.895   6.659  16.437 -0.1810  0.1178 -0.0708
 5549W        W21166   3.575   5.249  14.067 -0.0560  0.1945 -0.0728
 5550W        W21167   2.234  10.093  16.416  0.1600  0.0718 -0.0365
 5551W        W21168  15.631  12.968  14.674  0.0246  0.0522  0.0832
 5552W        W21169   6.167  16.168  12.431 -0.0273 -0.0373  0.0902
 5553W        W21170  15.962   3.108   5.565 -0.0735 -0.0578  0.2888
 5554W        W21171   4.528  16.010   0.151  0.2096 -0.0818  0.0714
 5555W        W21172  12.747  12.643  14.351 -0.0780 -0.1154  0.1460
 5556W        W21173  14.861  15.277  16.076 -0.1930  0.2115  0.0391
 5557W        W21174  13.547  13.359  12.148  0.1136 -0.0235  0.3230
 5558W        W21175  10.069  10.074  15.464 -0.4349 -0.2486 -0.0698
 5559W        W21176  16.260   6.142   0.026  0.0887 -0.0380  0.1033
 5560W        W21177  14.642  14.723  12.405  0.3723 -0.1949  0.0243
 5561W        W21178   4.126   1.765  13.707  0.0271 -0.1634 -0.0402
 5562W        W21179  14.940   2.068   4.972  0.0354 -0.1640 -0.0354
 5563W        W21180   8.798  15.042  14.475  0.2872 -0.1097 -0.1334
 5564W        W21181   9.868   5.281  12.970  0.0714 -0.5135  0.0637
 5565W        W21182  16.282  10.949   5.404  0.0850 -0.1377  0.1738
 5566W        W21183  12.150   5.070   5.943  0.0482 -0.0127 -0.0526
 5567W        W21184  15.883  14.667   4.593  0.0025 -0.1463  0.1140
 5568W        W21185   3.276  14.232   0.212  0.0383 -0.1994  0.0850
 5569W        W21186   7.056  12.790  13.516 -0.1632  0.1984  0.0161
 5570W        W21187  10.951   4.927  15.608  0.1822 -0.2060 -0.0894
 5571W        W21188  12.223   6.940  11.871 -0.1557  0.1058 -0.0821
 5572W        W21189   7.814   6.552   1.709 -0.0986  0.0786 -0.2673
 5573W        W21190   0.689   5.329   1.396  0.0329 -0.1924 -0.2027
 5574W        W21191   7.085   6.395  13.285 -0.2313  0.3319 -0.2485
 5575W        W21192   0.267  15.190   3.030 -0.1959 -0.1374 -0.1686
 5576W        W21193   7.313  14.429  15.801  0.3614 -0.1239  0.0475
 5577W        W21194   4.968   1.325  12.938 -0.1940 -0.1451 -0.1889
 5578W        W21195   3.053  10.650   5.986 -0.2456 -0.1871 -0.0235
 5579W        W21196   6.131   8.726  17.018 -0.4403 -0.0991  0.1803
 5580W        W21197  16.535   8.963  14.770 -0.0484  0.1712 -0.1310
 5581W        W21198  10.113  10.100   2.231 -0.0315  0.3269  0.2369
 5582W        W21199  12.847  15.102  12.678 -0.1736 -0.0506  0.2926
 5583W        W21200  17.528  13.250  16.682 -0.0324 -0.0777  0.1680
 5584W        W21201   2.203   6.819   0.835 -0.0625  0.1159  0.1481
 5585W        W21202  15.783  13.436   3.142  0.0883 -0.2653  0.0502
 5586W        W21203   7.484   0.764   5.328  0.0438  0.1279 -0.0081
 5587W        W21204   7.039   9.933   2.855 -0.0987 -0.0956  0.1149
 5588W        W21205   9.459   7.442   5.152 -0.0532  0.1866 -0.0376
 5589W        W21206  14.470   6.297   6.268 -0.2807  0.0740  0.1714
 5590W        W21207  15.640   1.326  15.379 -0.0081  0.1251  0.0174
 5591W        W21208   7.393  10.881  13.929 -0.3128 -0.0301 -0.0873
 5592W        W21209   1.042   8.520  15.601 -0.0106 -0.0397  0.4259
 5593W        W21210  11.057  14.087  10.352  0.3257  0.2926  0.0920
 5594W        W21211   4.526   3.557  14.472 -0.1172 -0.1846 -0.2102
 5595W        W21212  14.801  12.331  14.968 -0.1364  0.1380  0.0048
 5596W        W21213   7.698   2.668  17.295  0.3211  0.0809 -0.1363
 5597W        W21214   0.135  11.775   0.524  0.0688 -0.2421  0.1249
 5598W        W21215   1.912   0.254  14.906  0.2695 -0.2096  0.1400
 5599W        W21216   7.985   6.167   2.537  0.2089  0.2016 -0.0464
 5600W        W21217  14.938   6.036   3.551  0.0170 -0.2258 -0.0029
 5601W        W21218   9.375   1.546   3.457 -0.0266 -0.3170 -0.2237
 5602W        W21219   4.848   1.548  15.442  0.1896  0.1620  0.1607
 5603W        W21220   5.932  10.103  17.018 -0.0648  0.1313  0.1393
 5604W        W21221   8.098   2.345   1.672  0.1291 -0.1573  0.1061
 5605W        W21222   3.603   6.431   3.009  0.2767 -0.0673  0.0784
 5606W        W21223   5.998   7.827   1.407  0.1944  0.0936 -0.1084
 5607W        W21224  14.095   9.720   3.670  0.1540  0.4239  0.3007
 5608W        W21225   2.757  12.095   0.796 -0.0411  0.3378  0.3004
 5609W        W21226  11.514   4.381  16.637  0.1256 -0.0122 -0.0315
 5610W        W21227   1.255  12.921  12.958 -0.1192  0.1049  0.0217
 5611W        W21228  10.146   3.330   4.240  0.1450 -0.2282  0.1805
 5612W        W21229  13.496  15.214   1.369  0.1550  0.2480 -0.0272
 5613W        W21230   6.548   8.231  15.964 -0.3737  0.2775 -0.0429
 5614W        W21231   9.162   2.008   1.127  0.0339 -0.0826 -0.1470
 5615W        W21232   0.555   7.643   2.878  0.2570  0.1063 -0.0744
 5616W        W21233  11.654   4.858   2.113 -0.0555 -0.0152  0.1249
 5617W        W21234   7.303   7.810  13.204 -0.0996  0.0997 -0.0245
 5618W        W21235  14.219   7.060  13.383 -0.1452 -0.0534  0.2752
 5619W        W21236   1.199  15.970  15.240 -0.3851 -0.2657 -0.0813
 5620W        W21237   4.460  12.958  11.607 -0.1017 -0.0060  0.0154
 5621W        W21238   4.616  17.064  16.151 -0.2576  0.1908 -0.0403
 5622W        W21239   6.194  12.418   0.157  0.1386  0.3798 -0.1250
 5623W        W21240   7.464   7.151   5.905  0.2052  0.1658 -0.1039
 5624W        W21241   1.125  10.213   1.303 -0.0348  0.1731 -0.0619
 5625W        W21242  14.279   7.987   4.296 -0.1908 -0.1975  0.0528
 5626W        W21243   7.904  11.697   2.090  0.1930  0.3260  0.4278
 5627W        W21244  12.450  10.328   1.625 -0.1166 -0.0547 -0.0541
 5628W        W21245   3.871   9.726   2.284  0.0688 -0.2060 -0.0826
 5629W        W21246   7.108  14.509   1.811 -0.0880 -0.0953 -0.2956
 5630W        W21247  10.987   7.764   1.672 -0.0498 -0.3433 -0.0803
 5631W        W21248   1.140  13.987  17.196  0.1436 -0.0655  0.2928
 5632W        W21249   3.419   1.796   2.194 -0.0486  0.2747 -0.1708
 5633W        W21250   6.000  15.686  14.025  0.1619 -0.2868 -0.0604
 5634W        W21251   2.675  17.328  15.173  0.1408  0.1158 -0.0208
 5635W        W21252  12.010   1.801  12.373 -0.0479  0.2633  0.1843
 5636W        W21253   6.785   9.647   0.499  0.3832 -0.1463 -0.1293
 5637W        W21254  12.512   7.917   4.813  0.3581  0.3300  0.3500
 5638W        W21255  12.370   9.411  13.486  0.2514  0.0477  0.1701
 5639W        W21256  14.723   5.682   3.253  0.3669 -0.2428  0.0407
 5640W        W21257  17.540   4.737  12.614 -0.1239 -0.1626 -0.0363
 5641W        W21258   6.460   4.298  16.081  0.3323  0.1310  0.1892
 5642W        W21259   1.466   9.131  16.806  0.0534 -0.0096 -0.2344
 5643W        W21260  14.108  16.350  12.028  0.2685 -0.0760 -0.3812
 5644W        W21261   4.958  16.145   5.438 -0.1802  0.0204  0.0377
 5645W        W21262  11.501   1.974   0.238  0.0642  0.0997  0.2165
 5646W        W21263   7.782  11.628  14.185  0.2235  0.2423  0.0221
 5647W        W21264  13.472   3.795   5.303 -0.1855  0.2992  0.4295
 5648W        W21265  11.561   0.105   2.162  0.2063 -0.1839 -0.0611
 5649W        W21266  13.268   4.048   0.467 -0.1325  0.1180 -0.0752
 5650W        W21267  12.309  10.741  12.470 -0.0284 -0.0929  0.1625
 5651W        W21268   5.853  13.549  12.707  0.1247  0.1686 -0.0479
 5652W        W21269  11.384   6.371  15.833 -0.2691  0.1459  0.2052
 5653W        W21270  13.648  16.362  15.481 -0.1501 -0.0861  0.1688
 5654W        W21271  11.087  13.745   1.341 -0.1636  0.0508  0.0546
 5655W        W21272  11.366  13.901  12.656 -0.0912  0.4008  0.3580
 5656W        W21273  14.178  16.908  14.154 -0.2091  0.2144  0.0867
 5657W        W21274  15.586  13.050   6.494 -0.2086  0.0915  0.0740
 5658W        W21275   6.074   9.944  15.826  0.1216 -0.1625 -0.1661
 5659W        W21276  11.401   9.390  14.329 -0.0071  0.0166 -0.0800
 5660W        W21277  12.941   1.398   5.059  0.1195  0.1793 -0.1699
 5661W        W21278   8.921   7.101  16.318  0.0018  0.3701 -0.1615
 5662W        W21279   9.138  13.203   5.737 -0.2442  0.1709  0.1621
 5663W        W21280  10.189  15.732   0.996  0.1519  0.2435 -0.4049
 5664W        W21281  12.929  15.043  15.654  0.1690 -0.1545  0.0935
 5665W        W21282   3.151  16.334  11.856  0.0728 -0.0162 -0.1636
 5666W        W21283   9.174  15.891   0.091 -0.2029 -0.2902  0.1559
 5667W        W21284  14.307   3.954  12.336 -0.0653  0.1967 -0.1617
 5668W        W21285  11.481   4.663  16.228  0.2446 -0.0120 -0.2411
 5669W        W21286  15.764   2.573  14.783 -0.0772  0.3891  0.1233
 5670W        W21287   1.125   0.827  12.702 -0.0001  0.0048  0.1455
 5671W        W21288  16.455  17.341  16.918  0.0130  0.2756  0.0619
 5672W        W21289   2.895   8.395   2.528 -0.1369 -0.0000  0.1206
 5673W        W21290  16.821  10.662   4.964  0.2281  0.0983  0.1410
 5674W        W21291  17.152   6.030   1.631  0.0158 -0.1936 -0.0006
 5675W        W21292   3.419  15.589  13.446 -0.1113 -0.0393 -0.1284
 5676W        W21293  14.906  12.686  14.435 -0.2155  0.1590 -0.2227
 5677W        W21294   3.847   2.478  12.173  0.2381 -0.1025  0.0243
 5678W        W21295   8.605   9.607   2.739 -0.0265 -0.0569 -0.0395
 5679W        W21296  11.698   6.464   2.726  0.1134 -0.4510 -0.0648
 5680W        W21297  14.007   1.413  16.646  0.2091  0.0968  0.0982
 5681W        W21298   0.622   0.410   4.760 -0.2439 -0.1229  0.0740
 5682W        W21299   7.937   1.725  13.338 -0.1515  0.0322 -0.0500
 5683W        W21300  10.945  10.257   5.328 -0.2076  0.2047  0.0073
 5684W        W21301   4.384   8.383  17.092  0.1647  0.1471  0.0766
 5685W        W21302   5.292  10.946   2.144  0.1087 -0.2168 -0.2704
 5686W        W21303   1.048   1.994   5.680  0.0310 -0.0804 -0.1735
 5687W        W21304   0.097   8.021  16.016  0.0426  0.1449 -0.0124
 5688W        W21305   5.770   7.761   3.437  0.1899  0.0235 -0.0406
 5689W        W21306   9.553   8.616   5.941  0.0736 -0.2923  0.0176
 5690W        W21307   5.551  15.708  13.901  0.0665 -0.3086 -0.2675
 5691W        W21308  12.528  10.469   6.298  0.0580 -0.3107 -0.5267
 5692W        W21309   9.778   7.973  16.887 -0.0710  0.3136  0.0874
 5693W        W21310   9.494  15.129   4.383 -0.0485 -0.1243  0.0202
 5694W        W21311  15.836  12.580  16.580 -0.1926  0.1017  0.0554
 5695W        W21312   3.570  17.476  17.236 -0.2393 -0.0451 -0.2826
 5696W        W21313   9.467   1.475  16.403 -0.1785  0.1883 -0.0971
 5697W        W21314   9.585   2.139   2.732 -0.2161  0.0880 -0.0752
 5698W        W21315  17.464   6.488   0.683 -0.1353  0.2944  0.2170
 5699W        W21316  16.683  15.912   3.471 -0.0737  0.2306 -0.0608
 5700W        W21317  10.823   5.296  12.878  0.4574  0.0526  0.2308
 5701W        W21318   1.482  15.558   2.178 -0.0441 -0.0535  0.1843
 5702W        W21319   1.129   2.124   1.134  0.0342 -0.1331  0.1161
 5703W        W21320   5.379   2.350   2.172 -0.2099 -0.0723 -0.0237
 5704W        W21321   0.675  13.415   3.691  0.0229  0.0249  0.0865
 5705W        W21322   7.841  17.273  16.352  0.0954  0.1778  0.2129
 5706W        W21323   3.878   9.705   5.607 -0.0570 -0.1478  0.1095
 5707W        W21324   8.365  15.346   5.074 -0.2224 -0.0125 -0.3407
 5708W        W21325   0.752  10.571   1.179  0.0697  0.0230 -0.2945
 5709W        W21326   1.782  15.796   6.616  0.0920  0.0927  0.0778
 5710W        W21327  15.329   0.766   2.196  0.1575 -0.0861 -0.0917
 5711W        W21328  14.781  16.513  16.706 -0.2488  0.0409  0.1379
 5712W        W21329  15.608   7.979   1.133  0.1635 -0.0983 -0.0149
 5713W        W21330   3.057   0.581   3.700  0.1620 -0.1092 -0.2639
 5714W        W21331   2.274  17.365   6.076 -0.2063  0.1451 -0.2117
 5715W        W21332   6.808  10.205  16.580  0.1435  0.4227 -0.1977
 5716W        W21333   8.124  16.623  12.255 -0.2749 -0.0164  0.1840
 5717W        W21334   4.170  16.117   5.113 -0.1249 -0.0980  0.3178
 5718W        W21335   5.529  14.408  15.019 -0.0112 -0.2253 -0.0232
 5719W        W21336  14.016  11.903   3.697 -0.3116  0.0912  0.4021
 5720W        W21337  12.172   5.831  16.955  0.3353  0.2096 -0.1851
 5721W        W21338  16.248   3.939   1.056  0.1483  0.1606  0.3365
 5722W        W21339   2.979  13.992   2.523 -0.0904 -0.3032 -0.0109
 5723W        W21340   6.185   7.211  12.263  0.0301  0.1064 -0.2016
 5724W        W21341   7.439   5.734  11.831 -0.2348  0.1349 -0.1755
 5725W        W21342   9.204   5.799  15.908 -0.0507 -0.2963 -0.1088
 5726W        W21343  16.241   7.719   2.539 -0.0261 -0.3096  0.2093
 5727W        W21344  11.788   4.257   2.879  0.0213 -0.0403 -0.0813
 5728W        W21345  11.321   0.177  12.027 -0.3635  0.1050 -0.0464
 5729W        W21346   9.583   0.959  17.251  0.1148  0.0181  0.0708
 5730W        W21347   6.091   6.325   3.817 -0.0004 -0.1362 -0.0161
 5731W        W21348   1.895   4.848   6.085  0.1212  0.0917 -0.0583
 5732W        W21349  14.361   5.292  17.067 -0.1999  0.3675 -0.3056
 5733W        W21350   0.725  15.994   5.683  0.1251  0.2391  0.2136
 5734W        W21351  17.605   9.567   1.752  0.1481 -0.0979 -0.2638
 5735W        W21352   7.409  15.512  13.862  0.1097 -0.1128  0.1854
 5736W        W21353   5.185   4.322  15.319 -0.1683  0.2165 -0.0497
 5737W        W21354   7.477  11.343  12.481 -0.0468  0.1728 -0.1537
 5738W        W21355  13.145  15.881  17.038  0.0233 -0.0146 -0.1400
 5739W        W21356  16.339  13.715   1.835  0.1564  0.1891  0.1021
 5740W        W21357  13.068  12.702   5.630  0.0117  0.2642  0.1581
 5741W        W21358  16.517   7.924   2.172  0.0193  0.1108 -0.2400
 5742W        W21359  12.895   4.049  16.000 -0.0390 -0.1567 -0.0120
 5743W        W21360  11.710   5.359   4.398  0.1158 -0.3012  0.2909
 5744W        W21361   2.171   7.647   5.769 -0.0243 -0.4931 -0.1176
 5745W        W21362   5.160  17.090   1.317  0.2178 -0.4972  0.1132
 5746W        W21363   1.387   7.057  12.248 -0.1785  0.2472  0.1705
 5747W        W21364   7.687   1.002   0.712  0.1039  0.2694 -0.2688
 5748W        W21365   9.292   1.636   4.221 -0.1089  0.0617 -0.1633
 5749W        W21366   9.559  13.747  11.957  0.1159 -0.0644 -0.0043
 5750W        W21367  14.034  11.925   5.235 -0.0578 -0.0469 -0.1071
 5751W        W21368   4.750   2.087   1.382  0.0816 -0.1310 -0.3490
 5752W        W21369   5.235  10.477   0.101 -0.1737  0.2101  0.0219
 5753W        W21370  17.405   9.348  12.406  0.0647  0.1849  0.1796
 5754W        W21371   6.611   2.675   3.746  0.1731  0.0193 -0.1808
 5755W        W21372  15.254   9.012  12.130 -0.1674 -0.2055  0.0475
 5756W        W21373   0.803  12.485  16.230 -0.0102 -0.0889 -0.1489
 5757W        W21374  15.851  17.564   5.493 -0.0053  0.2841 -0.1098
 5758W        W21375  13.534  14.998   5.877 -0.3517  0.3568 -0.2622
 5759W        W21376   2.171  12.316  14.996 -0.1956  0.0193 -0.0223
 5760W        W21377   2.869   0.290  13.428  0.0938  0.0595 -0.2845
 5761W        W21378   4.242   6.364  12.307 -0.0860  0.2946  0.0407
 5762W        W21379   6.154  15.073   1.021  0.0778 -0.0047  0.3183
 5763W        W21380   1.995   3.458   6.086  0.0199 -0.3890 -0.1117
 5764W        W21381   8.046  11.164   0.356  0.0363 -0.1253 -0.2011
 5765W        W21382  13.579  14.454  17.205 -0.1556  0.1799 -0.1604
 5766W        W21383  10.922   7.222   5.316  0.0225  0.1832  0.3431
 5767W        W21384   4.728   6.060  13.531  0.2570  0.1413 -0.1098
 5768W        W21385  12.032   2.300  11.516  0.1857 -0.0500  0.1548
 5769W        W21386   8.386  14.725  16.040  0.0539  0.0586 -0.0247
 5770W        W21387  14.853  15.950  12.196 -0.0284  0.0554  0.2553
 5771W        W21388   2.975   3.919  15.878 -0.3205  0.2010 -0.0750
 5772W        W21389   8.165  10.192  13.335  0.1530  0.0348  0.1469
 5773W        W21390  10.307  16.945   2.155 -0.0045 -0.3280 -0.1672
 5774W        W21391   4.300   3.644   3.839 -0.0448 -0.2862 -0.1447
 5775W        W21392   3.718   1.364  16.651 -0.4293 -0.1231 -0.0881
 5776W        W21393   5.366  14.524  16.547 -0.1095  0.1953  0.0066
 5777W        W21394  15.425   0.884   6.661 -0.1910  0.0285 -0.0955
 5778W        W21395   5.101   2.946  15.960  0.0092 -0.0469 -0.0383
 5779W        W21396  14.318  11.128   4.069 -0.1044 -0.0498 -0.0572
 5780W        W21397   8.489   5.844  14.041  0.0046 -0.0746 -0.2184
 5781W        W21398   5.517   4.680  15.125  0.0259  0.1518 -0.4036
 5782W        W21399  11.837  12.921  16.001 -0.2429 -0.0222 -0.1531
 5783W        W21400   5.066   3.928  16.224 -0.3426  0.3930 -0.0533
 5784W        W21401  14.787   4.164   2.247 -0.2664  0.4156  0.3871
 5785W        W21402   5.447  12.824  13.505  0.0383 -0.1570 -0.1579
 5786W        W21403   0.035  14.932   5.310  0.0416 -0.0505  0.0991
 5787W        W21404   3.076  12.655   4.136 -0.1064  0.0828  0.1826
 5788W        W21405  11.319  16.448  16.630 -0.2250  0.3001  0.0098
 5789W        W21406   3.794   7.769   3.813 -0.0455 -0.2572  0.0960
 5790W        W21407   8.887  16.604  13.573 -0.0869 -0.3620  0.2086
 5791W        W21408   1.983  16.243  14.054  0.2081 -0.0779 -0.3161
 5792W        W21409  15.795   5.238   3.475  0.0040 -0.0110 -0.2683
 5793W        W21410  12.415  16.742   4.894 -0.0445 -0.0206  0.1030
 5794W        W21411   0.978  16.583  12.714 -0.1161  0.1300 -0.2530
 5795W        W21412  16.357   1.903   1.229  0.1799  0.0339 -0.1787
 5796W        W21413   2.761  16.588   2.756 -0.0734 -0.0221  0.0857
 5797W        W21414  16.199   5.423  15.594 -0.0487  0.2586  0.4522
 5798W        W21415   5.150   6.084   2.696 -0.2088 -0.0405  0.2510
 5799W        W21416   7.563  13.431   4.323 -0.0287  0.1366  0.2779
 5800W        W21417  11.231   0.337  14.835 -0.2365 -0.2709 -0.1867
 5801W        W21418  10.203   4.767   5.421  0.1928 -0.0505  0.0176
 5802W        W21419   6.260   6.761  16.125  0.0376  0.1277 -0.0016
 5803W        W21420   0.494  16.558  15.356  0.1573  0.0033 -0.0703
 5804W        W21421  10.139   8.654  14.083 -0.0274  0.0045 -0.3744
 5805W        W21422  15.501  15.282  14.744  0.0465 -0.1436 -0.1477
 5806W        W21423   6.811   7.774   1.041  0.0537  0.2788  0.3030
 5807W        W21424   6.508  15.153   3.051  0.3480 -0.5490  0.0591
 5808W        W21425   8.702   3.812   3.907  0.3382 -0.2471  0.2988
 5809W        W21426   3.317   8.433   4.661  0.2275 -0.1402 -0.2306
 5810W        W21427   5.614   4.660   4.357 -0.0006 -0.0736 -0.0323
 5811W        W21428   0.130   2.909   3.324  0.1107 -0.1577 -0.1170
 5812W        W21429   5.610  14.814  11.482  0.0009 -0.1766 -0.4066
 5813W        W21430  12.962   5.796   0.335  0.0148  0.2987  0.0004
 5814W        W21431  16.069   3.622  12.790 -0.0106  0.1033  0.0067
 5815W        W21432   8.686  16.829   2.955  0.2363  0.1677 -0.0510
 5816W        W21433   1.777   4.439  12.158  0.1359 -0.4469 -0.3775
 5817W        W21434  11.329   9.094  15.640 -0.0493 -0.4089 -0.1224
 5818W        W21435  13.620  15.125   5.371  0.3240 -0.2000  0.0352
 5819W        W21436   9.760  16.942   5.864 -0.0126  0.1522 -0.2645
 5820W        W21437   5.389   7.742  16.254  0.1862  0.1164  0.0637
 5821W        W21438   8.152  13.558   3.595 -0.3557  0.3367  0.0086
 5822W        W21439   8.823  14.676   4.695 -0.1929 -0.1007  0.0382
 5823W        W21440  15.813   1.333   4.761 -0.0538 -0.2873  0.1565
 5824W        W21441   1.054  11.620   6.329 -0.1145  0.4477  0.2099
 5825W        W21442  14.026   4.649  13.920  0.0477 -0.2508  0.0402
 5826W        W21443  13.977   0.474   3.517  0.0892  0.0272 -0.1901
 5827W        W21444  14.335   8.830   1.089  0.1570 -0.0190  0.4531
 5828W        W21445  16.349  10.911  15.309  0.0595 -0.1194 -0.3027
 5829W        W21446   3.456  13.743   5.090 -0.0339  0.3975  0.0493
 5830W        W21447   5.972  14.217   1.203 -0.1717 -0.1948 -0.1568
 5831W        W21448  11.656  15.577  15.898  0.0977 -0.2906 -0.1824
 5832W        W21449   0.961   6.822   6.817  0.1030 -0.0436  0.0243
 5833W        W21450   6.303   1.979   1.163  0.0188  0.0324 -0.1905
 5834W        W21451   3.362   7.958   5.111 -0.1110 -0.0258 -0.1614
 5835W        W21452  11.517   5.227   1.355  0.1116 -0.2409  0.1912
 5836W        W21453   3.638  12.953   4.875 -0.1811 -0.1718  0.2167
 5837W        W21454   7.430   5.977  14.188 -0.3494 -0.1371 -0.2613
 5838W        W21455  15.611   0.993   6.178 -0.1390  0.3971 -0.1320
 5839W        W21456  12.601  13.621  12.339  0.0781 -0.0173  0.3259
 5840W        W21457  14.042   7.747   0.656  0.5705 -0.1397 -0.0762
 5841W        W21458   2.789  10.403   3.928  0.0432  0.3591  0.0418
 5842W        W21459  16.356   0.725  15.427 -0.0971 -0.3227  0.2402
 5843W        W21460   1.516  16.028   2.777  0.0077 -0.1797  0.1888
 5844W        W21461  10.258  12.861   3.868  0.1273 -0.0538 -0.0738
 5845W        W21462  11.560   7.979  17.153  0.1140 -0.5777 -0.1233
 5846W        W21463   7.363   3.173   3.477 -0.0684  0.0301 -0.0183
 5847W        W21464  14.627   3.319   4.250 -0.0359 -0.1622 -0.0263
 5848W        W21465  16.009   2.349  17.092  0.0196 -0.2475 -0.3855
 5849W        W21466  13.393  11.482  17.220 -0.1379  0.1206  0.1608
 5850W        W21467   4.331   5.306   3.581  0.1137  0.0465 -0.1517
 5851W        W21468   0.564   5.888   4.112  0.0624 -0.0350 -0.0313
 5852W        W21469   2.840   4.421  12.779  0.3095  0.2481  0.1382
 5853W        W21470   4.847   4.778  15.474  0.1489 -0.1243 -0.1487
 5854W        W21471   6.702   8.920  13.509 -0.1613 -0.3192 -0.1283
 5855W        W21472   9.782  13.279  16.724  0.0393  0.0468 -0.3536
 5856W        W21473   5.781   2.479  15.551  0.1808  0.0665 -0.0907
 5857W        W21474   3.777  15.765   3.347 -0.0978  0.3295  0.0359
 5858W        W21475  15.230  11.671   4.751  0.0564  0.0159  0.0247
 5859W        W21476  14.971  10.170  12.661 -0.0937  0.1489 -0.1196
 5860W        W21477  13.160  13.187  16.096 -0.2581 -0.2162 -0.2175
 5861W        W21478   1.665   9.885   1.942  0.2492  0.3654 -0.2861
 5862W        W21479   8.231   4.148  16.295 -0.2689 -0.1361 -0.0040
 5863W        W21480   0.371   9.927  12.894 -0.1491  0.0880  0.4045
 5864W        W21481   0.040  17.372  13.572 -0.1879  0.0371  0.0716
 5865W        W21482  15.580  10.158  15.192  0.0712  0.2287  0.0698
 5866W        W21483  10.512  15.517  12.140  0.1505 -0.1240  0.1459
 5867W        W21484   0.864  12.414   5.880  0.1039  0.1578 -0.3581
 5868W        W21485  14.011   8.294   3.691  0.1829  0.0392 -0.1141
 5869W        W21486  14.266   9.568   4.284  0.0425  0.1298  0.5108
 5870W        W21487  17.405   1.925  13.573 -0.0968  0.3976  0.0424
 5871W        W21488  13.610  12.525  15.108 -0.2921  0.0799  0.1228
 5872W        W21489   6.583   6.243  12.583  0.2163  0.0515  0.0199
 5873W        W21490  13.109  14.218  16.975  0.1168 -0.0082  0.1876
 5874W        W21491  10.828   9.830   4.897 -0.0787 -0.1311  0.0241
 5875W        W21492   6.609   6.697   5.902 -0.0104  0.0841 -0.1157
 5876W        W21493   4.730  13.752  12.794  0.0806 -0.0804  0.1845
 5877W        W21494   3.001  11.125   6.103  0.5036 -0.2834 -0.1204
 5878W        W21495   8.636  10.798   2.438 -0.2919 -0.0636  0.1482
 5879W        W21496  13.395  13.682  12.704 -0.2927 -0.0473  0.1735
 5880W        W21497  12.597   2.946  12.025 -0.2146 -0.1540 -0.1410
 5881W        W21498  14.165   6.706   2.766 -0.0820  0.1598  0.0248
 5882W        W21499  15.869  10.538  15.171  0.2153  0.1313 -0.2000
 5883W        W21500   8.405   0.234   4.644 -0.2471 -0.3748 -0.2107
 5884W        W21501  16.091   2.335   1.870 -0.0191 -0.0727  0.3289
 5885W        W21502   8.520   1.554   2.174  0.0095  0.2047  0.1137
 5886W        W21503   8.904  14.505   2.854 -0.2376  0.0705  0.0506
 5887W        W21504   7.790   9.895   6.193 -0.1026 -0.0535 -0.0834
 5888W        W21505   5.507   8.825  13.401  0.1651  0.0232  0.0696
 5889W        W21506   2.537  12.829  13.295 -0.1536 -0.4122  0.4017
 5890W        W21507  12.684   5.956  11.955 -0.1459 -0.1524  0.2664
 5891W        W21508  13.022   5.801   4.610 -0.2280 -0.1777  0.0636
 5892W        W21509  14.771   5.574   0.053 -0.4023 -0.4094  0.5670
 5893W        W21510  14.387   1.816   3.272  0.0085 -0.0261 -0.0783
 5894W        W21511   2.353   0.611   2.657  0.1360 -0.1059  0.1334
 5895W        W21512  17.406   6.624  15.233  0.0166 -0.0182  0.2776
 5896W        W21513   8.613  15.840   6.012 -0.1261  0.0137  0.0069
 5897W        W21514   8.497  16.531   0.746  0.0658  0.1010 -0.0074
 5898W        W21515   2.200  10.275   2.520 -0.1108 -0.0031 -0.0707
 5899W        W21516   2.089  14.684   0.836  0.1468 -0.2327  0.0858
 5900W        W21517   3.066   3.750   6.918  0.0043 -0.4486  0.1882
 5901W        W21518  13.623   0.907   0.603  0.3326 -0.0756 -0.0593
 5902W        W21519   0.887  14.692   5.547  0.2806  0.2263 -0.1324
 5903W        W21520   4.274   6.861  14.789  0.0849  0.1006 -0.2010
 5904W        W21521  16.687   0.175  13.384 -0.3626  0.0619 -0.0557
 5905W        W21522  11.221   8.770  16.682  0.1011  0.2143  0.0484
 5906W        W21523  10.602   5.999  11.675 -0.1180  0.4305  0.0619
 5907W        W21524  10.849  14.967  13.866 -0.1317 -0.0333  0.2442
 5908W        W21525   4.946   9.142  13.074 -0.2323  0.2339  0.3286
 5909W        W21526   9.824   1.180   4.838  0.0671  0.2747 -0.0999
 5910W        W21527  16.374  12.182  14.843 -0.3286  0.0958  0.1415
 5911W        W21528   4.190   9.685  14.689  0.0048 -0.0499 -0.1584
 5912W        W21529   2.042   0.168  11.973 -0.2847 -0.0486 -0.1875
 5913W        W21530  15.629   7.859  16.154  0.2631  0.3201  0.1861
 5914W        W21531   5.329  14.018  15.776 -0.1428  0.3083 -0.1651
 5915W        W21532   8.973   1.916  15.714 -0.0959  0.2773  0.2486
 5916W        W21533   0.213   1.700  11.954  0.3140 -0.0201 -0.5346
 5917W        W21534   6.258   1.691   2.002  0.2146 -0.1336  0.1235
 5918W        W21535   7.223  12.115   4.235  0.2805 -0.2393  0.0588
 5919W        W21536  14.460  11.076  14.269 -0.1822 -0.0413 -0.1497
 5920W        W21537  15.142   7.857  14.082 -0.2112  0.5697  0.1331
 5921W        W21538   5.232  17.379  16.808  0.1664  0.0952 -0.3651
 5922W        W21539   4.917  13.879   0.297  0.1768  0.2708 -0.0444
 5923W        W21540   2.388  11.362   4.272  0.0703  0.0559  0.0140
 5924W        W21541   4.802   9.211  17.043  0.0353 -0.1245  0.2316
 5925W        W21542   7.908   9.729  16.337  0.1371 -0.2110  0.1830
 5926W        W21543   9.167   2.187  12.644 -0.1985  0.0478  0.0045
 5927W        W21544   1.975   4.746  16.311 -0.1728 -0.1617 -0.2192
 5928W        W21545   0.205  14.315  17.207  0.1350  0.1219 -0.2092
 5929W        W21546   3.108   2.181   4.891 -0.0546 -0.1244  0.2525
 5930W        W21547   9.830  15.916  12.758  0.2671 -0.0277  0.1251
 5931W        W21548  12.211   7.734  15.722 -0.1420 -0.1790 -0.0474
 5932W        W21549   5.186   5.472  16.095  0.4679  0.1478  0.0189
 5933W        W21550  14.304   7.716  15.910  0.1580 -0.1946 -0.1911
 5934W        W21551  10.375   3.809  16.960  0.2347  0.0134  0.0947
 5935W        W21552   5.387   3.047  13.345 -0.3436 -0.0895 -0.2006
 5936W        W21553  16.026   0.733   3.472 -0.0841  0.0433 -0.2872
 5937W        W21554  11.437  16.313  16.174 -0.0754  0.3135 -0.0962
 5938W        W21555   3.069  16.164  17.221 -0.3723  0.2184 -0.1909
 5939W        W21556  15.536  13.828  12.469 -0.4042 -0.1963 -0.2650
 5940W        W21557   1.089  14.255   0.930  0.0925  0.3082 -0.1487
 5941W        W21558   7.946   2.102   4.824 -0.0287 -0.0385 -0.0701
 5942W        W21559   3.069  10.649  15.680 -0.0172 -0.4068 -0.1506
 5943W        W21560   3.297  15.233   0.017  0.0181 -0.0074  0.0048
 5944W        W21561  17.153   4.853   3.030  0.2211 -0.1123 -0.1400
 5945W        W21562   8.057  14.885  14.687 -0.1952 -0.2238  0.0683
 5946W        W21563   9.471  10.826  14.868 -0.1524 -0.3832 -0.0769
 5947W        W21564   2.853   3.781  14.973  0.0884  0.2144  0.1990
 5948W        W21565  10.451  17.039  12.089 -0.1482 -0.0895  0.1018
 5949W        W21566   2.446   9.351  13.496 -0.1189  0.0667 -0.0305
 5950W        W21567   0.996   4.168   1.757 -0.0773  0.5523  0.0716
 5951W        W21568   6.054  12.614  12.008 -0.3819  0.0412  0.0085
 5952W        W21569  14.313  17.271   1.917 -0.0211 -0.1863  0.4008
 5953W        W21570   2.584  14.835  14.900  0.0984  0.0303 -0.1057
 5954W        W21571  17.339  17.455  15.746  0.0754  0.0612 -0.3170
 5955W        W21572   6.585   7.155   2.794 -0.0910 -0.2296 -0.1987
 5956W        W21573   1.177  12.678   4.202  0.2376 -0.1716  0.1083
 5957W        W21574   8.659   6.269  12.799 -0.0652 -0.2149  0.0079
 5958W        W21575   6.971   5.227  15.464 -0.0150 -0.1486 -0.1019
 5959W        W21576   9.233  10.922  12.443  0.3547  0.0835 -0.0773
 5960W        W21577  14.558   1.193  12.152  0.5046 -0.3592  0.2927
 5961W        W21578   6.909   6.468  17.203 -0.0691  0.4149  0.2408
 5962W        W21579   2.400  16.344   5.332 -0.0909 -0.1301  0.1739
 5963W        W21580   0.597   8.682  17.093  0.4834  0.1697 -0.1363
 5964W        W21581  15.317  14.238  11.713  0.1122 -0.0983  0.2059
 5965W        W21582  16.319   7.695   3.018 -0.3411 -0.0969 -0.0964
 5966W        W21583   6.142   9.923   0.184 -0.0251 -0.0097  0.1928
 5967W        W21584  10.292  16.981   0.764 -0.3570 -0.0798  0.0239
 5968W        W21585   9.631  15.524  11.943 -0.1048  0.0266  0.1018
 5969W        W21586  15.043  13.532  13.106 -0.0396  0.1663 -0.0477
 5970W        W21587   1.115   8.833   2.825  0.1167  0.1557  0.1675
 5971W        W21588  14.821  13.722   1.815 -0.1084  0.2406 -0.0943
 5972W        W21589  11.864  16.854   4.973 -0.1741 -0.2233  0.0717
 5973W        W21590  10.017  14.559  14.457  0.0721  0.1038 -0.1422
 5974W        W21591   6.333   4.870  16.070 -0.2109  0.0812 -0.0274
 5975W        W21592   4.299  17.384  13.935  0.1057  0.0351 -0.3207
 5976W        W21593   9.416   9.285   1.531 -0.0026  0.0839  0.1676
 5977W        W21594  10.197   1.340  14.043 -0.0692 -0.0042  0.1301
 5978W        W21595   6.905  12.703   4.870  0.1647 -0.0729  0.0763
 5979W        W21596   3.723  10.798  16.202 -0.2645  0.1745 -0.1895
 5980W        W21597   7.190   9.750   3.402  0.1349 -0.2259  0.0991
 5981W        W21598   2.658  14.545  15.756 -0.0052  0.1611  0.1264
 5982W        W21599   7.433  17.306  17.178 -0.1111 -0.0243 -0.1224
 5983W        W21600  14.571  15.370  14.810  0.0669  0.0273 -0.0589
 5984W        W21601   5.354  15.580  17.249 -0.0124 -0.3695 -0.0854
 5985W        W21602  15.216  15.613  16.365 -0.2107  0.0876  0.0189
 5986W        W21603  15.546  11.379   5.174 -0.0131 -0.0680 -0.1004
 5987W        W21604  15.198   9.514  14.163 -0.0156  0.2719  0.2402
 5988W        W21605   6.601   6.523   4.114 -0.3084 -0.0770 -0.1001
 5989W        W21606   0.784   3.599   3.903  0.0259  0.1468 -0.0001
 5990W        W21607   9.635  16.530  16.429 -0.3085 -0.2353  0.0331
 5991W        W21608   7.881   0.325   1.169 -0.0950 -0.1621 -0.2606
 5992W        W21609  10.773  17.070   2.258  0.1116  0.0591 -0.0571
 5993W        W21610   5.710   5.141   1.713 -0.1560  0.1324 -0.1822
 5994W        W21611  16.468  11.717   0.045  0.0231 -0.0543 -0.0269
 5995W        W21612  11.006   6.882   6.203 -0.0258  0.2439 -0.2305
 5996W        W21613   9.746   6.055   0.122 -0.1811  0.0513  0.1093
 5997W        W21614  10.298   2.638  16.342 -0.1150  0.2272 -0.0269
 5998W        W21615  16.459   9.301  15.718  0.2342 -0.1193  0.0335
 5999W        W21616  15.530  12.506  17.084 -0.4261 -0.1202  0.1887
 6000W        W21617  16.630  10.754   5.815  0.2747  0.0293 -0.0915
 6001W        W21618   0.661   5.106   3.765  0.0524 -0.1796  0.0046
 6002W        W21619  14.180   0.499   4.645  0.1828 -0.1441  0.0043
 6003W        W21620  14.795  14.583   1.257  0.0536 -0.3191  0.0814
 6004W        W21621   5.881   1.359  12.142 -0.1689  0.0032 -0.0254
 6005W        W21622  15.059   1.412   5.777 -0.3270 -0.2380  0.2726
 6006W        W21623   2.084   0.816   1.774 -0.2770  0.3119  0.1953
 6007W        W21624  12.503   8.200   2.808 -0.1839 -0.0405 -0.2194
 6008W        W21625   1.427   1.715  11.363 -0.0075  0.1539  0.1494
 6009W        W21626  14.920  11.697   4.346 -0.1185  0.1191  0.2290
 6010W        W21627  16.101  16.697   1.693  0.1503  0.0124  0.3790
 6011W        W21628  17.565   2.071  14.048  0.0828  0.0190  0.2606
 6012W        W21629   7.226  13.572  13.805 -0.1428  0.0492 -0.0205
 6013W        W21630   5.410   3.175  10.889  0.0613 -0.0675  0.0661
 6014W        W21631  15.492   7.393   5.052 -0.0536 -0.0242  0.2463
 6015W        W21632  13.611   4.947  14.938  0.3776  0.1255 -0.0685
 6016W        W21633   4.671   4.295  15.277  0.2663 -0.1240  0.1326
 6017W        W21634  16.779   0.915  12.428 -0.2072 -0.0758 -0.0928
 6018W        W21635   1.984   7.326   3.990  0.0097 -0.3001  0.1774
 6019W        W21636   3.089   3.392  15.141 -0.1597  0.2688  0.1161
 6020W        W21637  10.577  13.257  14.552 -0.0387  0.0995 -0.0631
 6021W        W21638  11.349   1.098   3.958 -0.0969 -0.1281  0.3519
 6022W        W21639   6.142   4.251   0.091  0.1302 -0.2094  0.0546
 6023W        W21640  15.415   2.700  12.466 -0.0083  0.0262  0.0047
 6024W        W21641  13.676  16.655   3.976 -0.1306  0.0714 -0.1076
 6025W        W21642  11.548   6.678  13.027 -0.2163  0.0049 -0.1212
 6026W        W21643  11.191   0.398   2.369 -0.1060  0.1676 -0.1495
 6027W        W21644  10.707  16.322  11.779 -0.0364 -0.2857  0.0735
 6028W        W21645  16.158  12.053  15.980 -0.1778  0.0099  0.3446
 6029W        W21646   0.338  15.846   4.786 -0.0391 -0.1298 -0.0926
 6030W        W21647   1.212   4.316   6.621 -0.1257 -0.2514  0.0560
 6031W        W21648   5.956   1.689  14.334 -0.0376  0.2460 -0.0650
 6032W        W21649   5.159  12.383  16.711 -0.2193  0.2373 -0.0057
 6033W        W21650   0.017   0.392   2.500 -0.0246  0.2381 -0.0676
 6034W        W21651  14.089   1.746  15.847 -0.5332 -0.1955 -0.0407
 6035W        W21652   9.123   4.979   3.624 -0.0280 -0.0350  0.4157
 6036W        W21653  10.450  14.762   4.771  0.0532  0.4966  0.1134
 6037W        W21654   2.634   5.513  16.925  0.1023 -0.1351 -0.0747
 6038W        W21655  14.506  13.165  15.168 -0.0786 -0.0735 -0.2026
 6039W        W21656   1.448  12.132  14.576 -0.1512 -0.0699  0.0508
 6040W        W21657   7.392  16.303   3.001  0.0116 -0.1548  0.0981
 6041W        W21658   9.212  12.024   3.574 -0.0237  0.1391 -0.1938
 6042W        W21659   3.012   9.194  16.730  0.1653 -0.0328  0.0388
 6043W        W21660  11.538   0.910   0.468 -0.1170  0.1062 -0.1100
 6044W        W21661   3.171  11.370  16.623 -0.2259 -0.0796  0.0953
 6045W        W21662  17.421  14.633   5.614  0.1194  0.1114  0.1593
 6046W        W21663   4.216   3.777   2.103  0.1571 -0.0230 -0.0076
 6047W        W21664  17.372   3.004  12.103 -0.1925  0.1953  0.2126
 6048W        W21665   6.213  11.585  13.393  0.2948  0.2027  0.4332
 6049W        W21666   7.400   2.223   3.514  0.1351  0.1167 -0.1580
 6050W        W21667  15.208  11.978   4.087 -0.1535 -0.1593  0.0580
 6051W        W21668  11.870   6.361  12.529  0.3863  0.0428 -0.1243
 6052W        W21669   3.216   1.719   3.015  0.2318 -0.1387  0.0993
 6053W        W21670  10.778   3.980  11.642 -0.2454 -0.0163  0.0712
 6054W        W21671  10.426  10.044   2.636 -0.1503 -0.0140  0.2491
 6055W        W21672   4.117   4.859   4.472 -0.0404 -0.3848 -0.0219
 6056W        W21673  12.092   3.652  12.770 -0.0298 -0.0242  0.2901
 6057W        W21674  13.950   1.869   2.932 -0.1436  0.1130  0.0931
 6058W        W21675   0.062  15.317  15.700  0.1289  0.2315  0.1230
 6059W        W21676  14.071  13.573  15.143 -0.5496  0.1835  0.1241
 6060W        W21677  14.593  15.830   5.958 -0.0521 -0.0608 -0.1129
 6061W        W21678   3.748  12.276   3.494 -0.0277  0.0417 -0.3419
 6062W        W21679   9.707  12.628  13.961  0.0800 -0.2813  0.1678
 6063W        W21680   8.493  10.835   4.463  0.2198  0.0707  0.1577
 6064W        W21681  10.951  11.952   0.622 -0.3691 -0.1771  0.1368
 6065W        W21682   0.325   4.871  12.209 -0.0057 -0.0228 -0.1393
 6066W        W21683   4.511  10.054  13.745  0.1130 -0.0885 -0.0870
 6067W        W21684  17.281   2.519  15.972 -0.0856  0.3175 -0.2901
 6068W        W21685   1.171   3.988   2.421 -0.2113 -0.1045  0.0102
 6069W        W21686   3.823  15.626   5.075 -0.0652 -0.1164 -0.2321
 6070W        W21687   9.040   1.222   4.257 -0.0758  0.1198 -0.0904
 6071W        W21688   8.260   7.451  12.469 -0.0451 -0.0360  0.0528
 6072W        W21689   7.813   3.364   3.357 -0.1382 -0.0938  0.0213
 6073W        W21690   1.862  17.072  13.090 -0.0020  0.0397 -0.2202
 6074W        W21691  12.845  10.592  14.808 -0.0874  0.0229  0.1785
 6075W        W21692  16.476  12.909  14.292  0.1118 -0.4425 -0.0984
 6076W        W21693   4.508  11.100   5.583 -0.1671  0.2483 -0.1041
 6077W        W21694  15.546  12.636  15.679  0.1970 -0.1635 -0.2812
 6078W        W21695   5.224   4.688   2.568 -0.0016  0.0941 -0.0501
 6079W        W21696   8.318  17.001   2.598 -0.0698 -0.0789 -0.6085
 6080W        W21697  10.530  15.417   0.847 -0.0915 -0.3625 -0.0183
 6081W        W21698   4.380   3.076  14.654 -0.0514  0.2182 -0.2882
 6082W        W21699  15.137   3.077   1.104  0.1328  0.1194 -0.1040
 6083W        W21700  12.303  13.105   5.444 -0.2510 -0.1360  0.2407
 6084W        W21701   3.680   9.615  14.817 -0.4099 -0.1173 -0.0450
 6085W        W21702   8.431  11.423  12.938  0.3165 -0.3775  0.2967
 6086W        W21703   8.100  16.956   4.025  0.0569 -0.4000 -0.2297
 6087W        W21704   3.073   3.949  16.712  0.0461  0.1038 -0.0256
 6088W        W21705  11.031  11.876   3.168  0.0136 -0.1429  0.2110
 6089W        W21706  16.185  12.168  13.676  0.1703 -0.0661 -0.0266
 6090W        W21707  16.968   4.942  14.532  0.0259  0.2225 -0.1425
 6091W        W21708  13.678  16.413  15.980  0.0293  0.0363 -0.0015
 6092W        W21709   8.899   9.307   1.625 -0.1677 -0.2277  0.3355
 6093W        W21710  13.085   6.732  15.411 -0.1717 -0.3084  0.1396
 6094W        W21711  10.108  14.346  11.907  0.2499 -0.0240 -0.0440
 6095W        W21712  12.777   8.424   0.518  0.2971  0.1529  0.0080
 6096W        W21713  11.945   0.055  13.994  0.0659  0.4955  0.0572
 6097W        W21714  14.514  10.151  12.897  0.4009  0.3293  0.3104
 6098W        W21715  14.950   3.028   3.879  0.3926 -0.1942  0.3340
 6099W        W21716   0.720   0.659   1.026  0.0005 -0.0039 -0.1538
 6100W        W21717  13.368  11.676   6.214 -0.0280  0.2602  0.3550
 6101W        W21718   1.504   7.578   3.988 -0.0089  0.2328  0.1760
 6102W        W21719   6.580   1.708  12.699 -0.4326 -0.1903  0.1686
 6103W        W21720   7.593  13.578  13.413  0.3932  0.1406 -0.0709
 6104W        W21721  11.313   6.761   2.143  0.2154 -0.0429  0.1621
 6105W        W21722  16.937  14.656   5.743 -0.3273 -0.7340 -0.0480
 6106W        W21723   4.883  12.053   0.224  0.1210  0.1216 -0.0754
 6107W        W21724  15.876   5.057   2.504  0.3945  0.1551  0.1658
 6108W        W21725   9.502   2.608   3.654  0.1944 -0.0622  0.3308
 6109W        W21726   9.254   1.705  15.343 -0.0526  0.0552 -0.1484
 6110W        W21727  12.581  11.667   1.957 -0.0240 -0.1788  0.0759
 6111W        W21728  13.311   1.790  15.610 -0.0678  0.2735  0.0128
 6112W        W21729  11.889   8.667   3.899  0.5110  0.2047 -0.4817
 6113W        W21730   5.822  10.423  14.919  0.0929  0.1493 -0.0323
 6114W        W21731  12.497  11.100   5.600 -0.1785  0.1127 -0.1047
 6115W        W21732  14.030  16.078  13.778 -0.0449  0.0662  0.3907
 6116W        W21733  15.659   4.685   2.754  0.3299  0.0889 -0.0252
 6117W        W21734   1.589   5.121  13.763 -0.1025 -0.0846 -0.1142
 6118W        W21735  11.651   6.463  16.622 -0.0010  0.1744 -0.1206
 6119W        W21736   5.589   2.310   0.645 -0.0309  0.1818 -0.0282
 6120W        W21737   8.087   2.682  12.037 -0.0327  0.0939  0.0711
 6121W        W21738   0.338  12.695  16.042  0.0094  0.1899 -0.0802
 6122W        W21739  13.037   5.429  17.165 -0.1320 -0.0694 -0.1229
 6123W        W21740   9.492  17.146  15.732 -0.0278 -0.1682  0.1677
 6124W        W21741   0.729   8.592  16.043 -0.0791  0.0090  0.0627
 6125W        W21742   4.841   0.683  14.101  0.2776 -0.0897 -0.3251
 6126W        W21743   0.774  15.283   1.597  0.0728  0.2524  0.1020
 6127W        W21744  17.307   9.797  13.791 -0.1613  0.4024 -0.4509
 6128W        W21745   5.465  15.029   5.178  0.1543  0.1148  0.0834
 6129W        W21746   5.118  17.208   5.071  0.1124  0.0307  0.1256
 6130W        W21747   3.569  17.328   3.599 -0.0309 -0.0193  0.2028
 6131W        W21748  12.986   3.988   2.987  0.2437  0.0001 -0.3271
 6132W        W21749   2.819  16.588   5.261  0.0856 -0.0398  0.1520
 6133W        W21750  15.993   3.512  14.802  0.0216 -0.0448 -0.0037
 6134W        W21751   3.226   0.024  16.799  0.1075 -0.3580  0.0251
 6135W        W21752  15.885   7.209  12.336  0.1819 -0.1364 -0.2510
 6136W        W21753  16.866  10.369   2.056  0.1089 -0.2295  0.0444
 6137W        W21754   2.653   8.394   0.055  0.0042 -0.0640 -0.0621
 6138W        W21755   6.087  17.172  10.762  0.2062 -0.0184 -0.2367
 6139W        W21756   6.245  15.407   3.380 -0.2078  0.1562 -0.1597
 6140W        W21757  15.376  16.489  15.763  0.1825 -0.0563  0.2301
 6141W        W21758   5.746   1.710  11.652 -0.1350 -0.0557 -0.2005
 6142W        W21759   6.250   9.623   4.297  0.3722 -0.2560 -0.2320
 6143W        W21760   2.554   0.816   4.668  0.3443 -0.0391  0.1096
 6144W        W21761   2.609  17.481   3.129  0.0644  0.2620  0.1707
 6145W        W21762  10.566  12.814   3.452 -0.1725  0.1602  0.2889
 6146W        W21763  14.918   3.806   4.303  0.2077  0.1856  0.0281
 6147W        W21764   2.173  15.202   0.703  0.0421 -0.1868 -0.0576
 6148W        W21765   0.921   1.843   1.995 -0.0758  0.0701  0.4315
 6149W        W21766   6.637  10.062   1.756  0.1217  0.2197  0.0165
 6150W        W21767   5.321   0.601   2.738 -0.1122  0.0048  0.1642
 6151W        W21768   2.315   6.554   2.682  0.1537 -0.2623  0.1736
 6152W        W21769   8.529   1.531  15.877  0.2415 -0.0329  0.0754
 6153W        W21770  10.371  13.046  14.155  0.1828 -0.2360  0.0588
 6154W        W21771  15.936  11.017  12.629  0.2179  0.1907 -0.2865
 6155W        W21772  16.454   5.155  14.369  0.0544  0.1299  0.1314
 6156W        W21773   6.238   9.659   2.636 -0.0244 -0.1999  0.0449
 6157W        W21774  17.599   8.395  14.832  0.1662  0.0793 -0.2321
 6158W        W21775   7.721   1.471  12.448  0.1548  0.0591 -0.2593
 6159W        W21776   0.741   8.319   5.049  0.1730  0.2948  0.0443
 6160W        W21777   2.650   8.769   2.165  0.2992 -0.1386 -0.1804
 6161W        W21778   2.280   5.991   2.102 -0.0534  0.1909  0.1537
 6162W        W21779   4.827   4.095  14.443 -0.1988 -0.1984 -0.1496
 6163W        W21780  15.084  14.446  14.917 -0.0788 -0.3153  0.0459
 6164W        W21781   1.582   5.336   0.521  0.1472 -0.0758  0.4195
 6165W        W21782   0.045  10.958  16.823 -0.0199  0.1190  0.0879
 6166W        W21783   4.223   0.732  12.434 -0.2962  0.1714  0.2299
 6167W        W21784  17.082   0.665   1.307  0.0462  0.0949  0.2204
 6168W        W21785   9.564  10.769  11.978  0.0760  0.1941 -0.2009
 6169W        W21786   2.890   8.756   3.459 -0.0497 -0.2102  0.0970
 6170W        W21787   8.671   0.644  15.652 -0.1887  0.0502 -0.1576
 6171W        W21788   0.278   8.556   4.883 -0.1880 -0.1740 -0.2502
 6172W        W21789  16.811   1.679  15.540 -0.1956  0.1735  0.1953
 6173W        W21790  15.338  14.234  17.186  0.0445  0.0598  0.1282
 6174W        W21791  17.604  15.941   3.432  0.1324  0.0598 -0.0241
 6175W        W21792  15.025  10.108   0.575  0.4013  0.1829  0.1211
 6176W        W21793  16.600  13.907  14.876  0.0534 -0.1194 -0.1998
 6177W        W21794   6.528  10.718  13.509  0.1225 -0.2531 -0.0261
 6178W        W21795  13.737   7.440   4.473 -0.1742 -0.0018  0.2737
 6179W        W21796   2.560  12.334  15.378  0.0915  0.0123 -0.0739
 6180W        W21797   1.421   6.183  17.186  0.0655  0.1142  0.1960
 6181W        W21798   1.838   7.214   4.466  0.2284 -0.1484  0.0801
 6182W        W21799   1.617  13.928   0.680  0.1245  0.1221  0.0432
 6183W        W21800  12.435   4.809  15.776  0.2752  0.0939 -0.0256
 6184W        W21801   6.980   9.003   5.577 -0.1321  0.0810  0.3008
 6185W        W21802   2.996   6.813   6.203 -0.2362  0.0082 -0.2402
 6186W        W21803  15.097   5.464   1.005 -0.0971 -0.2111  0.1561
 6187W        W21804  17.186   7.007   1.689 -0.3103  0.3110  0.0637
 6188W        W21805   5.139  16.258   1.716  0.2606 -0.1441 -0.0583
 6189W        W21806  16.216  10.745   4.304  0.0406 -0.2322  0.0494
 6190W        W21807   6.752   7.183  12.882  0.0234  0.1636 -0.4597
 6191W        W21808  12.201  10.828   3.592  0.3603  0.0746  0.1026
 6192W        W21809   5.873   5.452   5.512  0.0502  0.2022 -0.0018
 6193W        W21810   4.858  10.422  15.606  0.0679 -0.0719 -0.1200
 6194W        W21811   2.293   0.887  13.204  0.0003 -0.2617  0.2178
 6195W        W21812   3.205   1.855  12.843 -0.1453 -0.1913 -0.1137
 6196W        W21813  11.359   4.878  13.629  0.1072  0.1023 -0.3097
 6197W        W21814   7.267   4.093  11.589  0.0315 -0.1274  0.0533
 6198W        W21815   4.952   6.860   4.784  0.2120  0.3359  0.0668
 6199W        W21816  14.053   8.547  12.435 -0.1413 -0.0269 -0.1651
 6200W        W21817  13.422  15.951   1.724 -0.0514 -0.0257  0.1287
 6201W        W21818   2.144   1.631   1.067  0.1579 -0.1158 -0.0558
 6202W        W21819   6.886   4.135   2.747 -0.1290 -0.0192 -0.0216
 6203W        W21820   5.874   8.054  15.339  0.2053 -0.1511 -0.1152
 6204W        W21821  11.410  15.864  14.261 -0.0761  0.0511 -0.0846
 6205W        W21822   0.176   6.548   5.366 -0.0333  0.1135  0.3432
 6206W        W21823  15.386  17.602   4.644 -0.1240 -0.1511  0.0580
 6207W        W21824   7.901  17.170  16.846  0.0205  0.1102  0.2695
 6208W        W21825  13.312  10.357  17.068 -0.0686  0.0494  0.2835
 6209W        W21826   3.941  10.910   0.009  0.2592  0.0942  0.1064
 6210W        W21827  17.603   8.373   3.052  0.1694 -0.2483  0.0265
 6211W        W21828   6.994  10.743   5.044 -0.1409  0.1745 -0.0546
 6212W        W21829   3.396  15.076  12.661  0.2208 -0.0512  0.4014
 6213W        W21830  15.533  17.517  15.586  0.1709 -0.0664  0.0080
 6214W        W21831  12.462   6.732  13.345 -0.1896 -0.1334  0.0530
 6215W        W21832   7.018   0.031   2.525  0.1552 -0.1206 -0.1185
 6216W        W21833   0.996  10.104   0.825 -0.0573  0.3032  0.0474
 6217W        W21834   6.289  11.391   3.216 -0.2046  0.1519 -0.1956
 6218W        W21835  14.646   0.617  12.841  0.0731 -0.1682  0.1409
 6219W        W21836   0.926  16.928  11.504 -0.1091  0.2303 -0.0946
 6220W        W21837   5.950  10.780  13.669 -0.1696  0.0628 -0.1267
 6221W        W21838   8.347  15.880  11.488  0.1810 -0.0841 -0.0775
 6222W        W21839   4.131   0.354  14.715  0.0857  0.0401  0.2824
 6223W        W21840   6.650  16.713  15.975 -0.2427 -0.0083 -0.2144
 6224W        W21841  10.129   8.275   1.965 -0.0064 -0.1601  0.0526
 6225W        W21842  17.531   0.007   6.004 -0.1414 -0.0930  0.0684
 6226W        W21843  14.412  16.569  11.738 -0.2092  0.0648  0.3598
 6227W        W21844  11.306   0.300  12.613  0.0018 -0.0726  0.0669
 6228W        W21845   6.770  11.707  14.219 -0.1639 -0.0510  0.2880
 6229W        W21846  13.755  14.224  13.257 -0.4336 -0.0636  0.3737
 6230W        W21847   9.038   7.126   2.800 -0.2710 -0.1155 -0.3435
 6231W        W21848  16.977  16.893   1.320 -0.2610 -0.0157  0.3317
 6232W        W21849  12.385   3.756  15.829  0.2711  0.0498 -0.1457
 6233W        W21850  14.795   3.261  16.574  0.0051 -0.1426  0.1150
 6234W        W21851  10.069   1.135  12.127 -0.0196 -0.1515  0.1430
 6235W        W21852   8.124  16.964   1.745  0.0603  0.2770 -0.1849
 6236W        W21853  12.827  13.842  16.771  0.2603  0.0404 -0.3260
 6237W        W21854   3.938  10.612  14.898  0.1138  0.3296 -0.0919
 6238W        W21855   0.013   7.726   6.024  0.1221  0.0278 -0.0308
 6239W        W21856  14.448   2.210   4.159  0.0552  0.0910 -0.1540
 6240W        W21857   3.778  16.988   4.092  0.0767 -0.1780 -0.2894
 6241W        W21858   7.537   0.178  13.367  0.0496 -0.1328 -0.0249
 6242W        W21859   9.042   2.325  14.115  0.0945  0.0903 -0.0823
 6243W        W21860   9.145  15.246  13.503 -0.1375 -0.1883 -0.3994
 6244W        W21861   7.975   7.938  12.627  0.0675 -0.0100  0.0143
 6245W        W21862  16.054   7.419   1.342 -0.2825 -0.1801  0.0460
 6246W        W21863   9.144   5.903   2.761 -0.4014  0.1178  0.4386
 6247W        W21864   2.928   8.577  15.620 -0.1638 -0.1125  0.3645
 6248W        W21865   8.087   9.701   5.735 -0.2138  0.1485  0.0707
 6249W        W21866  10.560   5.262  15.146 -0.1691  0.2529  0.0696
 6250W        W21867   2.008  16.862  15.689  0.0123  0.2101 -0.1306
 6251W        W21868  16.697   0.103  14.631 -0.1219 -0.0802 -0.1028
 6252W        W21869  17.377  10.533   2.882 -0.1508  0.0238 -0.0925
 6253W        W21870  15.871  16.273   5.140  0.1109 -0.1979 -0.1562
 6254W        W21871  17.161   1.812  12.427 -0.3371  0.0730 -0.0723
 6255W        W21872   3.001   1.417  12.831  0.3209 -0.0220 -0.2192
 6256W        W21873  13.947  16.781  11.857 -0.0206  0.2974 -0.0089
 6257W        W21874   5.360  12.053   5.268  0.0488 -0.3213 -0.1522
 6258W        W21875  10.129  13.908   1.797  0.3019  0.0729 -0.0491
 6259W        W21876   0.492   8.422   5.968 -0.0916  0.2452 -0.2278
 6260W        W21877   4.696   2.062  16.886  0.0527 -0.0006  0.1767
 6261W        W21878   2.339  12.956  12.330  0.2712 -0.0576  0.2758
 6262W        W21879   7.103  17.455  15.083  0.2429  0.0042  0.1229
 6263W        W21880   6.995  11.461  13.357 -0.0496 -0.2665  0.0198
 6264W        W21881   8.033  16.025  13.023  0.0353  0.0613  0.1410
 6265W        W21882   3.027   4.614   1.122 -0.3448  0.0778  0.1113
 6266W        W21883  12.845   1.643  13.167 -0.2443 -0.1126 -0.3548
 6267W        W21884   5.112   6.442  13.515 -0.1086  0.0157  0.2273
 6268W        W21885   8.793   2.811  16.178  0.0469 -0.3248  0.0245
 6269W        W21886  12.892   9.607  16.237  0.1446 -0.0445  0.3548
 6270W        W21887   4.298   6.290   2.420 -0.1723 -0.2221  0.0086
 6271W        W21888   0.707  16.029   5.093 -0.0222  0.3496  0.4588
 6272W        W21889   1.661  10.856  12.448  0.3196  0.4534 -0.4509
 6273W        W21890   5.006  10.539  13.071 -0.0528  0.0663 -0.1099
 6274W        W21891  10.883  11.895   3.752 -0.1490 -0.1455 -0.1448
 6275W        W21892  15.395   5.123  13.615 -0.2396 -0.3984  0.3083
 6276W        W21893   3.486   0.554   3.338 -0.0988  0.1892  0.2044
 6277W        W21894   6.193   2.821  14.172 -0.0509 -0.3612 -0.0063
 6278W        W21895  15.295  17.426   2.411 -0.0683  0.0871 -0.3496
 6279W        W21896   0.723  13.487   2.025  0.0512  0.3060  0.1950
 6280W        W21897   0.118   2.241   0.485 -0.1967  0.0323  0.0322
 6281W        W21898  12.237  16.065  16.453 -0.0303  0.1886 -0.1714
 6282W        W21899   6.302   0.064  14.786  0.0057  0.1476  0.3017
 6283W        W21900  14.195   4.389   2.996  0.0590  0.1701  0.0104
 6284W        W21901  10.652  12.975  13.280  0.0891 -0.1358 -0.0321
 6285W        W21902   6.573   6.206   2.749 -0.0147 -0.0058  0.3586
 6286W        W21903  15.159  12.475   4.404  0.1129 -0.0419  0.0383
 6287W        W21904   6.348   9.679   1.530  0.2541  0.1236  0.2214
 6288W        W21905  15.457   7.470   2.994  0.1063  0.4653  0.0047
 6289W        W21906  14.811   5.951   2.807 -0.2504 -0.1754 -0.1354
 6290W        W21907   0.378   3.359   5.567  0.3232 -0.3820 -0.1137
 6291W        W21908   9.951   9.884   2.720  0.3455  0.0036  0.0425
 6292W        W21909   2.237   5.743  16.985 -0.1257  0.1442  0.0534
 6293W        W21910  12.806  13.385  17.077  0.0821  0.0104  0.1361
 6294W        W21911   9.198   4.474   1.243 -0.2324 -0.2039  0.0285
 6295W        W21912   8.439   8.586  14.400  0.0750  0.2030 -0.1852
 6296W        W21913   2.150  13.531  13.901 -0.0819 -0.1874  0.0538
 6297W        W21914   1.888   5.115   3.625  0.1510 -0.1698  0.3048
 6298W        W21915  10.125  13.649   0.192  0.3298  0.2244  0.0620
 6299W        W21916   6.600   6.893  15.578 -0.0487 -0.0345 -0.0051
 6300W        W21917   6.358  16.809  15.465  0.0798  0.1731 -0.0500
 6301W        W21918   3.996   1.701   5.606  0.2332  0.0616  0.1757
 6302W        W21919   6.811   7.761   2.053  0.0012  0.0154  0.2763
 6303W        W21920   4.489   3.833  16.912  0.0330  0.2199 -0.1239
 6304W        W21921  16.345   0.382  17.222  0.0398  0.5142  0.0103
 6305W        W21922   0.775   1.777  11.035 -0.1383  0.2768 -0.0076
 6306W        W21923   4.948   6.634   5.287  0.1286 -0.1360 -0.0549
 6307W        W21924  12.320  12.548   4.709 -0.1669  0.2125 -0.0750
 6308W        W21925   7.993   4.335  13.951 -0.1804  0.0690 -0.0230
 6309W        W21926  11.882   8.727  12.772 -0.0040  0.1490  0.2590
 6310W        W21927  14.008  11.090   5.729  0.0541  0.1794 -0.0601
 6311W        W21928   8.142   1.273  16.735  0.2530  0.3216  0.1796
 6312W        W21929  17.047   4.491   2.560 -0.5034 -0.1126 -0.2515
 6313W        W21930   1.479   9.801   5.563 -0.0638  0.0784  0.1465
 6314W        W21931  10.997  12.182  11.498  0.0048  0.1168  0.0125
 6315W        W21932   7.277   3.737  11.278  0.0506 -0.0481  0.0677
 6316W        W21933   1.916   4.532  15.250  0.1060  0.0771  0.0126
 6317W        W21934  10.301   3.241   1.272  0.1981  0.1341 -0.3797
 6318W        W21935   0.865  11.011   2.441 -0.0618  0.0352 -0.1356
 6319W        W21936   6.552  16.714   4.953  0.1403  0.1986 -0.0818
 6320W        W21937  12.239   0.268  14.337  0.2324 -0.1422 -0.3101
 6321W        W21938   7.239  17.123   4.282 -0.0214 -0.3299 -0.0356
 6322W        W21939  16.591  13.931  11.883  0.4327  0.0308  0.2006
 6323W        W21940  16.395   0.581   5.171 -0.0419 -0.0787  0.1163
 6324W        W21941   0.379   8.382   2.151  0.1773 -0.0574  0.1141
 6325W        W21942  16.175  11.732  13.008 -0.1127  0.2995 -0.0834
 6326W        W21943  15.258  16.921   0.303 -0.0320  0.0825 -0.2004
 6327W        W21944  13.414  16.175  12.146  0.1821 -0.0114  0.3858
 6328W        W21945  11.587   3.044  16.630 -0.0594 -0.1058  0.0773
 6329W        W21946  11.815   0.500   0.559 -0.2209  0.1913  0.2245
 6330W        W21947  17.432  17.380  14.392  0.1498 -0.0581  0.1940
 6331W        W21948   1.369   5.355   4.958  0.2080  0.2040  0.0606
 6332W        W21949   8.143   1.730   5.094  0.0450  0.3738 -0.0354
 6333W        W21950   8.155   1.857  11.590 -0.2449  0.0270  0.0076
 6334W        W21951   9.746   5.765  15.395  0.0857 -0.0442 -0.3816
 6335W        W21952  11.000   8.740  15.726 -0.1393  0.2173 -0.0687
 6336W        W21953   5.338  12.753   5.437 -0.1578 -0.1437 -0.1481
 6337W        W21954   2.973   5.488  16.414  0.1605  0.1262 -0.2645
 6338W        W21955  14.162   9.722  12.467 -0.0007 -0.0021 -0.0438
 6339W        W21956   5.264   7.964  15.810 -0.0406  0.1216  0.1487
 6340W        W21957   9.053   4.807  16.205  0.1213  0.1446  0.1379
 6341W        W21958  15.545  16.891  14.716 -0.3777 -0.0080 -0.2470
 6342W        W21959  16.227   1.771   5.151 -0.0553 -0.3465 -0.1657
 6343W        W21960   4.213  12.324  14.561 -0.1047  0.0805 -0.1409
 6344W        W21961  16.299   8.142  14.188  0.2271 -0.1023 -0.2079
 6345W        W21962  11.497  11.356  16.775 -0.1501 -0.0442 -0.2771
 6346W        W21963   0.021   9.757   4.613 -0.0547  0.4325  0.2166
 6347W        W21964   8.210  11.292  15.331 -0.0847 -0.1787  0.3668
 6348W        W21965   2.106  10.221   3.431  0.0652  0.0551 -0.2218
 6349W        W21966   0.700  11.071   1.060 -0.2816 -0.0428  0.4981
 6350W        W21967   4.669  16.217   4.434 -0.2246 -0.1165  0.2183
 6351W        W21968  11.704   9.260  15.260 -0.1009 -0.3404  0.1450
 6352W        W21969   9.283   7.728   3.001 -0.1023 -0.0876 -0.0188
 6353W        W21970  14.874   0.479   1.655 -0.0399  0.3215 -0.1153
 6354W        W21971   2.539   0.375   0.040  0.1562  0.1549 -0.0470
 6355W        W21972   2.600   9.543  15.136  0.0329  0.0098 -0.0085
 6356W        W21973   6.139  11.500  11.991 -0.2939 -0.2876 -0.1453
 6357W        W21974  14.736  10.485  13.977 -0.0355  0.0381 -0.0638
 6358W        W21975  12.256   1.461  13.536  0.2838  0.1295  0.0398
 6359W        W21976  16.683   8.668   2.908  0.1427  0.1358 -0.0158
 6360W        W21977  11.803   7.615   4.875 -0.1822 -0.2240 -0.2002
 6361W        W21978   3.988   4.290  13.145  0.1329 -0.0097 -0.1876
 6362W        W21979  10.407   8.396   4.962  0.1792 -0.2175  0.0781
 6363W        W21980   2.657  16.575   3.343  0.1990 -0.2665  0.2434
 6364W        W21981  10.188   4.981  13.297 -0.0869  0.0598  0.0828
 6365W        W21982  16.966   5.945  14.300  0.2341 -0.0335 -0.3843
 6366W        W21983   7.809   0.885   4.945 -0.3581  0.1251  0.0624
 6367W        W21984   1.509  12.175  16.918 -0.0429 -0.1708 -0.0184
 6368W        W21985  12.360   1.950  13.668 -0.2025 -0.0725 -0.1599
 6369W        W21986  13.241   7.560  14.619  0.1159 -0.0158 -0.0855
 6370W        W21987  16.071  11.332  16.480 -0.0808 -0.1617 -0.0436
 6371W        W21988   6.906  11.948   0.505 -0.0950  0.1588 -0.2476
 6372W        W21989  14.313  13.211   2.952  0.1116  0.2745  0.1942
 6373W        W21990   5.059  14.502   1.756 -0.1741 -0.2543  0.1224
 6374W        W21991   9.991  12.070  15.147 -0.0968  0.1381  0.1934
 6375W        W21992  17.095   4.105   5.737 -0.2386  0.1529 -0.0052
 6376W        W21993  11.219  14.482  16.451 -0.0597 -0.1925 -0.3162
 6377W        W21994   4.782  14.324  16.577 -0.0486 -0.2322  0.1935
 6378W        W21995   3.466   1.104  15.856 -0.0192 -0.1934 -0.0958
 6379W        W21996  16.250   8.297  16.335 -0.0421  0.0764  0.0127
 6380W        W21997   6.027  14.486   1.808 -0.3341 -0.0802 -0.0164
 6381W        W21998   0.302  17.322   5.774 -0.1829 -0.4050  0.1499
 6382W        W21999   2.594   7.857   3.560 -0.0723  0.2999  0.2323
 6383W        W22000   5.657  10.597  17.154 -0.0316  0.1575  0.1277
 6384W        W22001   7.494  10.285   6.235 -0.2232 -0.1480  0.1953
 6385W        W22002   6.768  15.430   0.609  0.1095  0.2035  0.0058
 6386W        W22003  15.850   0.919   2.957 -0.0234  0.0372  0.0137
 6387W        W22004  11.844   1.562   0.962 -0.1088  0.0705 -0.1135
 6388W        W22005  10.553   8.032  15.956  0.2279  0.0623  0.1006
 6389W        W22006   0.890   0.580   6.065  0.2514 -0.1700 -0.1630
 6390W        W22007  10.656   7.152   5.739  0.0793 -0.1760 -0.3832
 6391W        W22008   0.725  12.399   4.322 -0.4105 -0.0818 -0.0012
 6392W        W22009   6.930  11.861  16.610  0.1250  0.0980 -0.0731
 6393W        W22010   4.664  13.509   2.529  0.1542  0.0982  0.3067
 6394W        W22011   6.587   2.888   1.765 -0.1280  0.2311  0.0681
 6395W        W22012   7.094   4.825   5.372  0.0090  0.0331 -0.0905
 6396W        W22013   0.700  13.213   0.761 -0.2434  0.0899 -0.1801
 6397W        W22014   6.999   6.758  12.482  0.0118 -0.1643 -0.0454
 6398W        W22015  13.909  12.130  13.947  0.3637  0.1730  0.3037
 6399W        W22016   7.883   5.854  15.228  0.0052 -0.2978  0.2825
 6400W        W22017   5.931   7.522  16.198  0.2231  0.2712 -0.1885
 6401W        W22018  17.463   6.806  15.715 -0.1149  0.0578 -0.2113
 6402W        W22019  13.135  11.789   5.442 -0.2244  0.1349  0.1544
 6403W        W22020   7.334   0.278  16.772  0.0819  0.1841 -0.1708
 6404W        W22021  10.958  13.908  15.815  0.0204  0.0477  0.1854
 6405W        W22022   5.543   9.250   2.848  0.2077  0.0297  0.0652
 6406W        W22023  16.542   9.552   3.006  0.2051  0.0572 -0.1229
 6407W        W22024  11.558  11.784  15.987  0.0276  0.0428 -0.1415
 6408W        W22025   4.679   7.354  14.048  0.1400  0.2511  0.3872
 6409W        W22026   3.905   3.835   3.641  0.2767 -0.0328  0.1097
 6410W        W22027   8.370   5.202   2.217 -0.1294 -0.0589  0.0537
 6411W        W22028   9.791   0.813   2.092 -0.1932 -0.1937  0.0797
 6412W        W22029   6.932  11.396  15.088 -0.2503  0.0491 -0.0014
 6413W        W22030   5.337   1.806   2.959  0.3421  0.1628 -0.2805
 6414W        W22031  16.631   8.361   4.271  0.1480  0.0512 -0.0222
 6415W        W22032  13.046  16.195   5.950 -0.1906 -0.0798  0.0148
 6416W        W22033   9.275   5.960   1.036  0.3445 -0.1904 -0.2981
 6417W        W22034   4.142   6.024  16.070 -0.4932  0.1946  0.5734
 6418W        W22035  11.115  14.633  14.896  0.1336 -0.1638 -0.2463
 6419W        W22036   5.095  15.570  13.744  0.3240 -0.3192 -0.0744
 6420W        W22037  14.945  16.214  14.066 -0.1060  0.1994 -0.0918
 6421W        W22038   7.917   1.283   4.722  0.1096  0.0696  0.1605
 6422W        W22039   0.573   6.499   3.120 -0.1048  0.0111  0.1140
 6423W        W22040   1.965  14.638  12.902 -0.0487 -0.4428 -0.0458
 6424W        W22041   7.764   5.608  17.122  0.0063  0.0644 -0.1854
 6425W        W22042   6.737  17.471  12.020 -0.1256 -0.2078  0.1892
 6426W        W22043   5.967  13.944  12.428 -0.1396 -0.1018 -0.2381
 6427W        W22044   8.141   0.673  15.459  0.2230 -0.2567  0.3675
 6428W        W22045   7.257   8.418   4.878  0.1476 -0.1760  0.2779
 6429W        W22046   3.944  10.204   4.600  0.3515 -0.0621  0.2397
 6430W        W22047   6.872  15.786   6.256 -0.1346  0.2453  0.1263
 6431W        W22048   8.430  16.027   0.507 -0.0387 -0.1187  0.2206
 6432W        W22049  11.864  12.907  14.404  0.0500 -0.1984  0.0836
 6433W        W22050   2.232   7.372   5.341  0.4169  0.1781  0.1164
 6434W        W22051  16.918  16.257   4.764 -0.0872 -0.0969  0.0963
 6435W        W22052   9.273   6.834  12.383 -0.0678  0.0958  0.2429
 6436W        W22053   5.840   5.660  15.540 -0.2267 -0.1510 -0.2399
 6437W        W22054  11.712  16.703  16.006  0.4515  0.0654  0.0153
 6438W        W22055  17.090  16.529  15.412  0.2561 -0.2399  0.0755
 6439W        W22056   1.848  12.774   1.843 -0.0693 -0.2007  0.0078
 6440W        W22057  15.540   4.693   0.998 -0.1695 -0.2510  0.2198
 6441W        W22058   4.943  10.904   2.567 -0.4999 -0.0509  0.0805
 6442W        W22059  10.913  17.541  17.055 -0.2898  0.3742  0.2169
 6443W        W22060  14.528   8.877  13.233  0.1383 -0.0404 -0.0235
 6444W        W22061   2.284   5.571   6.550 -0.0136 -0.0640  0.0286
 6445W        W22062   4.640   9.404   4.134 -0.1319 -0.3165  0.1426
 6446W        W22063  14.271   3.867   2.235 -0.3495 -0.1539  0.1191
 6447W        W22064  17.344   1.031  12.531  0.1893  0.2579 -0.2235
 6448W        W22065  15.200  15.623  11.992 -0.0986 -0.0940 -0.1864
 6449W        W22066  15.762  11.242   0.977  0.0832 -0.2730 -0.0967
 6450W        W22067   8.888  11.181  16.228  0.1091 -0.2465 -0.0422
 6451W        W22068  16.468   2.054   6.487  0.0697  0.0093 -0.0255
 6452W        W22069   9.148  12.191  15.163 -0.1392  0.1412 -0.1319
 6453W        W22070   3.244   4.940   3.949  0.0582  0.2852  0.1277
 6454W        W22071   3.067  12.458   0.068  0.1791  0.1041 -0.3424
 6455W        W22072   4.164   5.981  17.084 -0.1627  0.1137  0.3170
 6456W        W22073  12.150   2.259  14.049 -0.3361 -0.0077 -0.2773
 6457W        W22074   1.111  13.951  13.924 -0.1690  0.1086  0.3800
 6458W        W22075  17.516  15.879   5.768  0.0245  0.0916 -0.2645
 6459W        W22076   5.280   7.146   5.784 -0.0009  0.1045 -0.0547
 6460W        W22077  15.099  14.280  16.463 -0.3583 -0.3005  0.3403
 6461W        W22078  13.447  10.977  15.277 -0.3208 -0.1103 -0.0312
 6462W        W22079  12.158   3.639   3.503 -0.2900  0.0958 -0.2589
 6463W        W22080  16.373  15.729  11.910 -0.2294  0.3773 -0.2649
 6464W        W22081  11.114   4.285   2.103  0.0999  0.0860 -0.0915
 6465W        W22082   0.265   0.282  13.608  0.0571  0.0112 -0.1851
 6466W        W22083  11.737  16.643  14.739 -0.3338  0.0310 -0.0280
 6467W        W22084  11.600   2.305  15.172 -0.0356 -0.0298  0.3028
 6468W        W22085  17.107   8.310  14.467  0.2002  0.5887 -0.3019
 6469W        W22086  10.325  14.974   0.651 -0.2691 -0.1947  0.1200
 6470W        W22087   2.796  11.973  13.698 -0.1724 -0.1081 -0.1273
 6471W        W22088  15.603   4.668  16.488  0.1844  0.0596  0.1180
 6472W        W22089  11.110   1.153  16.562 -0.1625 -0.1769 -0.1986
 6473W        W22090  10.504   4.788  15.974  0.1461  0.1443 -0.2358
 6474W        W22091   7.460   0.794  14.224  0.0288  0.1806 -0.2026
 6475W        W22092  15.029  16.437   0.328 -0.1008 -0.1359  0.0852
 6476W        W22093  12.137  16.058   0.892 -0.3167  0.0092  0.0500
 6477W        W22094  17.158   0.046   5.338  0.2158  0.0667 -0.0697
 6478W        W22095  16.938  13.877  16.247 -0.3755 -0.1698  0.0133
 6479W        W22096  13.550   3.278  13.202  0.1073  0.2028  0.1414
 6480W        W22097   6.669  13.315   5.314  0.1227  0.3398  0.0728
 6481W        W22098  16.870  10.305   5.697 -0.1891 -0.0057  0.0069
 6482W        W22099  10.384  10.698  12.830 -0.0634  0.0276 -0.1073
 6483W        W22100   7.535   2.104   3.031  0.1750 -0.1393 -0.0419
 6484W        W22101  10.713   3.064   5.152 -0.0419 -0.2272 -0.2828
 6485W        W22102   3.078  14.727  15.866 -0.1563 -0.4141  0.0450
 6486W        W22103  12.820   0.882   4.741 -0.3695  0.0634 -0.0620
 6487W        W22104  17.438  17.517   4.983 -0.0751  0.0711 -0.0847
 6488W        W22105   0.990   2.105   4.389 -0.1508  0.0783  0.0700
 6489W        W22106   9.248  16.830   5.400 -0.1355  0.1135 -0.1874
 6490W        W22107  14.395   4.076   5.395 -0.4336 -0.1862 -0.2933
 6491W        W22108   3.832  13.445  15.423 -0.0121  0.1446  0.1108
 6492W        W22109   6.474   6.702  17.069 -0.0164 -0.2171  0.2136
 6493W        W22110   9.219   1.907  16.194 -0.2921 -0.2535  0.2720
 6494W        W22111   3.524  11.670  12.478 -0.0577  0.1211 -0.1777
 6495W        W22112  10.894  17.341  13.276  0.1071 -0.0534 -0.1323
 6496W        W22113  10.657   1.202  12.454  0.1381 -0.1145 -0.0366
 6497W        W22114  16.689  12.897  13.695 -0.1999 -0.0299 -0.1332
 6498W        W22115   8.975   6.422   0.100 -0.0856 -0.1908 -0.1216
 6499W        W22116  15.503   3.625  16.361 -0.2227  0.2953 -0.1085
 6500W        W22117   3.283   6.318  12.407  0.0984 -0.1202  0.2024
 6501W        W22118   7.244   3.554  13.532 -0.0835 -0.1460 -0.3574
 6502W        W22119   2.992   3.820  12.212  0.1583  0.0141  0.1807
 6503W        W22120   8.621   1.182  17.023  0.0894 -0.0797  0.2043
 6504W        W22121   5.844  10.573   0.858  0.1250 -0.1072  0.0310
 6505W        W22122  12.515   0.515  14.017  0.0983 -0.0124  0.0434
 6506W        W22123  15.139   5.040   5.909  0.3607  0.1073  0.1381
 6507W        W22124  12.414   9.557   0.866  0.1703  0.0893  0.0316
 6508W        W22125   4.060   5.422   4.853 -0.3171 -0.2226  0.2051
 6509W        W22126   7.309   1.532   3.043  0.0156 -0.2312  0.0234
 6510W        W22127   3.894   6.244  16.475  0.0319 -0.0777  0.2337
 6511W        W22128   4.530   6.763   6.641  0.1656 -0.0317 -0.0673
 6512W        W22129   5.007  13.846   3.703 -0.1217 -0.0569 -0.2765
 6513W        W22130   7.421   2.983   2.578 -0.2138 -0.0803  0.1014
 6514W        W22131   2.092   2.445  15.615  0.0020 -0.3063  0.0591
 6515W        W22132  17.063   5.824   2.901 -0.4596 -0.0830 -0.0608
 6516W        W22133   4.787   5.643   0.241  0.0412 -0.1320  0.2400
 6517W        W22134   6.496  17.047   3.625  0.0182 -0.0615  0.6077
 6518W        W22135   8.866   8.850  14.013 -0.3147  0.1956  0.1708
 6519W        W22136  12.761  10.574   6.753  0.1462 -0.2983 -0.1611
 6520W        W22137   3.745  16.986  15.656  0.2463  0.1527  0.2135
 6521W        W22138  15.693  10.762   5.855  0.0981  0.1853 -0.0152
 6522W        W22139   1.354   8.102   6.211  0.0105 -0.1140  0.1469
 6523W        W22140  14.614  12.100  14.394 -0.0746  0.1752 -0.1161
 6524W        W22141   1.324  13.521  16.392 -0.0085 -0.0185  0.1224
 6525W        W22142  10.849   0.230  14.528 -0.4519  0.0087 -0.1837
 6526W        W22143   6.567  10.211  15.675 -0.2400  0.1274  0.0578
 6527W        W22144   3.126   4.810  12.759 -0.0011  0.0939 -0.4379
 6528W        W22145   6.790  14.404   2.197 -0.1921 -0.3089 -0.0536
 6529W        W22146  15.590   7.239  14.451  0.0106  0.0459 -0.1354
 6530W        W22147   8.991   1.973  14.492 -0.0672  0.0117 -0.2303
 6531W        W22148  12.372   1.328   4.932 -0.0364 -0.2052  0.2042
 6532W        W22149  12.139  10.248  12.747 -0.0194  0.2582  0.0495
 6533W        W22150  14.097   6.011  13.343  0.0811  0.0310 -0.0730
 6534W        W22151   2.726  14.081   3.837 -0.0959 -0.1348 -0.0914
 6535W        W22152  16.198  17.235   3.917 -0.3313  0.0489  0.2390
 6536W        W22153   6.236   5.487   3.152  0.3166  0.0581 -0.3839
 6537W        W22154   0.656   3.107   1.182  0.2058 -0.1071  0.6304
 6538W        W22155   8.543  13.153  14.563  0.3453 -0.0904  0.0438
 6539W        W22156   6.449   5.089   3.431 -0.0511 -0.1297  0.1502
 6540W        W22157   8.510   6.504  15.600 -0.0368  0.0458 -0.0831
 6541W        W22158   7.262   2.897   0.254 -0.1766 -0.1395  0.0411
 6542W        W22159   5.841   6.684  13.864  0.0128  0.1277 -0.0630
 6543W        W22160   6.779   0.646   3.187  0.3222  0.0750 -0.3665
 6544W        W22161   3.849  13.846  16.030  0.0277 -0.2422  0.2609
 6545W        W22162  13.814   9.455   4.080 -0.0060 -0.0969 -0.0598
 6546W        W22163  12.132  14.017  15.623 -0.1651 -0.0650 -0.0699
 6547W        W22164  16.437   3.697  14.933 -0.1090  0.0509 -0.3738
 6548W        W22165   0.527  12.758  14.493 -0.0908 -0.1815 -0.0759
 6549W        W22166   9.685   7.352  15.565  0.1152  0.0944 -0.0543
 6550W        W22167   3.919  15.288   2.980  0.2777  0.0028 -0.2731
 6551W        W22168   7.034   8.348  16.627  0.0086 -0.4592 -0.0459
 6552W        W22169   1.612  17.028   3.956  0.0444 -0.1497  0.0764
 6553W        W22170   5.587  12.121   4.320 -0.3894 -0.0340  0.1863
 6554W        W22171   7.172   8.064  14.472 -0.1091 -0.3388  0.1660
 6555W        W22172   5.602   6.732   2.833  0.1536 -0.0301 -0.0850
 6556W        W22173  11.220  10.929  13.526 -0.3283  0.2078 -0.0077
 6557W        W22174  16.368  15.173  11.115  0.0924 -0.2085 -0.0945
 6558W        W22175   6.091   4.063   3.213  0.0301  0.0134  0.1257
 6559W        W22176  13.624   1.782  17.055 -0.1744  0.1565 -0.1061
 6560W        W22177   0.243  11.247  14.360 -0.0243  0.0729  0.2522
 6561W        W22178   6.236   1.937  14.610 -0.0397 -0.2971  0.0165
 6562W        W22179  12.098   3.855  14.557  0.2739 -0.1723  0.0891
 6563W        W22180   6.138   9.007  15.383  0.4161 -0.3383 -0.2582
 6564W        W22181  13.331  15.267  13.644 -0.0074 -0.0853 -0.0418
 6565W        W22182  10.658   5.534  11.852 -0.0278  0.3843 -0.0580
 6566W        W22183  16.452   9.494  13.884 -0.2352 -0.0176 -0.2713
 6567W        W22184  15.775   3.438  15.700  0.2367 -0.1874 -0.1102
 6568W        W22185   5.251   7.627   3.177 -0.3907 -0.0510  0.0177
 6569W        W22186   2.687   1.084   4.093  0.0633 -0.2168  0.0758
 6570W        W22187   5.193   8.636   3.735 -0.0610 -0.2924  0.0550
 6571W        W22188   8.250   2.705  17.179 -0.0487  0.1110  0.1736
 6572W        W22189  14.859   6.122   5.879  0.3615  0.4166  0.2504
 6573W        W22190   8.772   4.582  17.044  0.0940 -0.0030 -0.0617
 6574W        W22191   9.615   4.726   4.229  0.0873 -0.0789  0.0139
 6575W        W22192   8.009   4.906   2.793  0.1619 -0.1164  0.0329
 6576W        W22193   7.986   6.867   5.260  0.1517  0.2323 -0.0696
 6577W        W22194   1.632   9.607   6.028 -0.1650  0.1614 -0.2521
 6578W        W22195   4.536   5.097  15.728  0.0210 -0.0265  0.0581
 6579W        W22196   3.106   4.005  13.705  0.0752  0.1875 -0.2261
 6580W        W22197  14.050   7.473  17.101  0.0251 -0.3266 -0.1997
 6581W        W22198   8.857  14.234   3.919 -0.0867 -0.0447 -0.1187
 6582W        W22199   6.714  11.426   6.478 -0.2095  0.0522  0.3702
 6583W        W22200   2.434  13.137   3.010  0.1933 -0.1059  0.1481
 6584W        W22201   7.959  14.124  11.733  0.2179 -0.0412  0.0570
 6585W        W22202   7.135  10.307  15.927 -0.3824  0.0288 -0.1918
 6586W        W22203   3.858   9.631  14.356  0.0222  0.1915 -0.0595
 6587W        W22204   6.807  13.014  14.975  0.3158 -0.3077  0.1427
 6588W        W22205   7.342  16.782  15.728  0.1375 -0.1379  0.2873
 6589W        W22206   6.820   6.624  12.907  0.2916 -0.1521 -0.0388
 6590W        W22207  10.164   1.296   3.181 -0.0615 -0.4651  0.0064
 6591W        W22208   6.776  14.303  13.286 -0.2034  0.0054  0.1394
 6592W        W22209   8.899   5.229  11.821  0.0338 -0.0791 -0.3352
 6593W        W22210   7.632  17.180  13.765  0.1072  0.1860 -0.1077
 6594W        W22211  12.970   6.686   3.947 -0.0243  0.2465  0.0983
 6595W        W22212   7.272  11.204   1.781 -0.0484  0.1925 -0.1932
 6596W        W22213  12.483  17.280  14.877 -0.0737  0.0572  0.0983
 6597W        W22214   0.562   2.770  16.889  0.1088 -0.1791  0.0639
 6598W        W22215  10.621   4.911  16.520 -0.3170 -0.1001  0.0334
 6599W        W22216   1.779   6.591   3.874 -0.2001 -0.2132 -0.1983
 6600W        W22217   8.264   1.482   0.229 -0.2675  0.1316 -0.2052
 6601W        W22218   6.713  13.162  13.262 -0.0458  0.0631 -0.0179
 6602W        W22219   5.816  11.078   5.114  0.0505 -0.0116  0.1500
 6603W        W22220  13.445  10.657  13.277 -0.0479 -0.2258 -0.2167
 6604W        W22221   9.323  10.372  14.787  0.2840  0.2606  0.0752
 6605W        W22222   0.778   1.767  14.354 -0.2586  0.1003  0.1466
 6606W        W22223  14.906  15.103   2.515 -0.2221  0.1808  0.1742
 6607W        W22224   9.251   5.954   1.677  0.2492  0.1616  0.0474
 6608W        W22225   7.844   1.056  13.780  0.0391 -0.0815  0.1437
 6609W        W22226  13.894   3.172   5.010 -0.3121  0.0959 -0.0595
 6610W        W22227  15.343  11.030  13.759  0.1862 -0.2856  0.1733
 6611W        W22228  10.380   6.020   1.989 -0.0713 -0.3670 -0.1818
 6612W        W22229  15.415   5.203   2.730 -0.0644 -0.0051 -0.0823
 6613W        W22230  15.987  10.776   3.329  0.0138  0.2226 -0.0562
 6614W        W22231   8.131   9.072  15.922  0.1349 -0.0634  0.2815
 6615W        W22232   3.764  13.745  16.886 -0.0564 -0.0160 -0.3200
 6616W        W22233  11.219  13.077  13.786 -0.2021 -0.2835 -0.1541
 6617W        W22234   0.061  15.668   1.124  0.1080  0.2530  0.3867
 6618W        W22235  10.614  16.443   1.499  0.0863 -0.1025 -0.2712
 6619W        W22236   9.242   2.854  16.477  0.2755  0.0858 -0.0682
 6620W        W22237   0.397   9.475  11.485 -0.0025 -0.2672  0.1804
 6621W        W22238  14.076   6.758  12.945  0.1404  0.0448  0.2078
 6622W        W22239  13.462  13.458   1.461  0.0015  0.5651  0.3058
 6623W        W22240   3.254  14.484  16.741 -0.0881 -0.1476  0.1037
 6624W        W22241   2.425   2.268   5.660 -0.2024 -0.0127 -0.1321
 6625W        W22242   7.134  13.208  11.494 -0.1135  0.0040  0.1163
 6626W        W22243   4.472   2.575   5.868  0.0911 -0.1135 -0.0987
 6627W        W22244  13.153  12.489  15.329  0.3316  0.0619 -0.0086
 6628W        W22245  11.936  14.839  17.259 -0.1925  0.0571  0.0970
 6629W        W22246  16.735  14.865   3.799  0.1198  0.4034  0.0464
 6630W        W22247   7.655  13.293   4.769 -0.2158  0.0572 -0.0237
 6631W        W22248   3.698  11.382   3.747  0.1154  0.0095 -0.0536
 6632W        W22249   6.905   9.817  15.782  0.1564 -0.4550 -0.0171
 6633W        W22250   6.180   6.764   4.382 -0.3915 -0.3287 -0.0695
 6634W        W22251  16.852  16.850  11.804  0.4027 -0.0375  0.3881
 6635W        W22252  12.512  11.209   1.543  0.0223 -0.1482  0.1662
 6636W        W22253   6.752   2.062   1.996 -0.3192  0.0834 -0.1828
 6637W        W22254  15.535  11.628   3.123 -0.1748  0.0629 -0.0816
 6638W        W22255   9.188   5.653  13.521 -0.2403 -0.2142  0.1766
 6639W        W22256   7.310   6.981   2.670  0.2078 -0.2153  0.1837
 6640W        W22257  13.793  16.241   2.570  0.1907 -0.1577 -0.2686
 6641W        W22258   8.334  17.607  16.863 -0.0006 -0.0821 -0.1318
 6642W        W22259  12.436   7.487   3.279  0.1547 -0.2972 -0.0857
 6643W        W22260  13.487  14.671  14.454  0.0085 -0.3314 -0.0304
 6644W        W22261  14.644   5.035  14.427  0.0244 -0.4003  0.0868
 6645W        W22262   0.050  15.293  11.677 -0.0688 -0.1037 -0.2042
 6646W        W22263   6.544  16.033   4.037 -0.0360  0.0933  0.1642
 6647W        W22264   7.473  10.529   2.116  0.0666  0.4018 -0.0671
 6648W        W22265   5.924  10.797  16.486  0.2563 -0.3626 -0.1333
 6649W        W22266  14.753   3.060   3.078  0.2557 -0.2791  0.4015
 6650W        W22267   1.040  14.832  12.493  0.0231 -0.3886 -0.2835
 6651W        W22268   9.534  17.528   2.081  0.1191 -0.0269  0.0449
 6652W        W22269   6.915   3.048   4.437 -0.4253  0.1249 -0.0184
 6653W        W22270   4.261  17.545   2.899  0.0176  0.1016 -0.0450
 6654W        W22271   4.369   1.219  15.843 -0.0320  0.1867 -0.1564
 6655W        W22272   4.113  10.849   5.268  0.1887 -0.1580  0.2620
 6656W        W22273   0.593   9.288   3.687  0.1645  0.1700  0.1942
 6657W        W22274   8.054  15.776   0.151 -0.0198 -0.2929 -0.0779
 6658W        W22275  12.399   2.944   5.195  0.1343 -0.0258 -0.1765
 6659W        W22276   9.088  16.787  14.985  0.0881 -0.1991  0.2678
 6660W        W22277   1.663   1.140  13.827 -0.3085  0.2966  0.3380
 6661W        W22278  13.705  10.277   0.121  0.1689  0.0349  0.0066
 6662W        W22279   4.352   9.165  14.394 -0.1893  0.2022 -0.2015
 6663W        W22280   3.941   9.436  12.998  0.1412  0.0684 -0.0461
 6664W        W22281  12.342   7.150   2.762 -0.0699  0.1073  0.0960
 6665W        W22282  15.636   2.040  12.362  0.0632 -0.1436 -0.2732
 6666W        W22283  16.315  11.109  16.041  0.0737 -0.1620 -0.1154
 6667W        W22284   5.686  17.375   2.189  0.1283  0.0224  0.2651
 6668W        W22285   9.143   1.326   4.755  0.2035 -0.0857  0.2603
 6669W        W22286  14.979  15.709   4.070  0.1612 -0.1938  0.1291
 6670W        W22287   6.436  10.401   3.157  0.1346  0.0519  0.0772
 6671W        W22288   5.623  15.614   1.277 -0.0373  0.3371 -0.3250
 6672W        W22289   3.261  14.015  16.615  0.0291  0.4813 -0.1943
 6673W        W22290  12.231   0.608   5.093 -0.1674  0.1494 -0.5554
 6674W        W22291  15.973   0.396   2.880 -0.2939 -0.1888 -0.0363
 6675W        W22292  14.210  12.661   0.197  0.2434  0.0607  0.0334
 6676W        W22293  13.307  11.906   1.153 -0.1199 -0.2868  0.1422
 6677W        W22294  12.249   7.096   0.587 -0.0402  0.1754  0.1640
 6678W        W22295   0.644   3.745  14.192 -0.0298  0.3538 -0.1177
 6679W        W22296   7.276   5.819   4.277 -0.0638  0.3043  0.0487
 6680W        W22297   1.038  16.587   3.975 -0.3843 -0.0690 -0.1187
 6681W        W22298   2.241  16.802   2.028 -0.0818  0.5086  0.0227
 6682W        W22299  13.726   1.114   1.510  0.3045  0.0642  0.2226
 6683W        W22300  13.006  14.953   6.507  0.2052  0.0039  0.0403
 6684W        W22301  15.266  14.666  16.831 -0.1526 -0.0685  0.2748
 6685W        W22302  17.247  12.537   5.264 -0.0907 -0.0153  0.0038
 6686W        W22303  11.883   0.633  16.918 -0.0934  0.2844  0.0783
 6687W        W22304  16.087  10.533  12.694 -0.1387 -0.0007  0.5011
 6688W        W22305  12.278  10.469  15.574 -0.0556  0.0717 -0.1940
 6689W        W22306   7.360   5.042   2.413  0.1083  0.1050 -0.0832
 6690W        W22307   1.872   5.617   3.964 -0.0926  0.0545 -0.2447
 6691W        W22308  17.396  10.131   3.225  0.0448 -0.1062  0.0103
 6692W        W22309   8.115  16.714  17.170  0.0110  0.2256  0.2254
 6693W        W22310  17.615  16.979  12.232 -0.1310 -0.0262 -0.2488
 6694W        W22311  14.459   3.737  14.437  0.0731  0.0638  0.1799
 6695W        W22312  16.621   0.445  16.244 -0.0341 -0.0027  0.0001
 6696W        W22313  14.153   6.394   5.310 -0.0794 -0.1744 -0.0870
 6697W        W22314  14.936   6.627   4.193  0.0451 -0.2132 -0.0548
 6698W        W22315   5.010   7.461  16.187  0.3728 -0.1816 -0.2575
 6699W        W22316  12.254  10.712   2.355 -0.0372 -0.3472  0.2443
 6700W        W22317   5.378  11.479   0.816  0.1246  0.0067  0.0900
 6701W        W22318   6.825  16.812  12.888 -0.1061 -0.1157 -0.0611
 6702W        W22319  17.428   5.949  14.476 -0.0749 -0.0179 -0.2011
 6703W        W22320   5.065  15.087  17.181 -0.0165  0.2055  0.0190
 6704W        W22321  14.267   1.432   5.142  0.0446  0.0065  0.2935
 6705W        W22322   8.629  11.161   0.048  0.0174 -0.2705  0.0134
 6706W        W22323   2.863   6.620  14.898 -0.1643  0.0274 -0.1256
 6707W        W22324   9.178  10.608   1.252  0.0863  0.1615  0.0458
 6708W        W22325  11.568   7.165  12.984  0.0045 -0.1345  0.3948
 6709W        W22326   1.764  11.533  12.810 -0.0944  0.0108 -0.1480
 6710W        W22327  12.036   8.080   2.731  0.2283 -0.2000 -0.2738
 6711W        W22328   5.086  13.955   4.204 -0.3108  0.1871  0.0899
 6712W        W22329   2.600   5.539  12.381 -0.1538  0.2382 -0.0406
 6713W        W22330   2.148  12.753   0.730  0.1986 -0.1798 -0.2498
 6714W        W22331   1.522   7.026   4.001  0.0816  0.0352  0.0869
 6715W        W22332  10.037  13.561  12.268  0.1777 -0.2119  0.2945
 6716W        W22333   0.028   1.122  11.758 -0.2139 -0.2421  0.0675
 6717W        W22334   4.491   7.018  13.585 -0.3277  0.2722 -0.0287
 6718W        W22335   9.527  16.361  15.875  0.0930  0.0161 -0.1559
 6719W        W22336  15.792   3.628  13.222  0.1971  0.0536  0.1828
 6720W        W22337  13.596  12.727   5.763  0.1677  0.1615  0.1069
 6721W        W22338   8.663  16.870  14.562  0.1756  0.0308 -0.0106
 6722W        W22339  13.217  10.678  15.700 -0.3378 -0.0528  0.2500
 6723W        W22340  10.474   1.641   2.908  0.1534 -0.1780  0.1970
 6724W        W22341  11.735   8.353  15.127 -0.1034  0.1142  0.1349
 6725W        W22342   3.757   8.914  11.884  0.2453  0.0307 -0.3763
 6726W        W22343   7.843   1.259  10.891 -0.3431 -0.0658  0.1409
 6727W        W22344   9.432   8.069  13.696 -0.0681 -0.0786 -0.1370
 6728W        W22345  11.356  11.480   4.578  0.1220 -0.3150  0.0678
 6729W        W22346   2.114  10.644  14.373 -0.0649 -0.0732  0.0599
 6730W        W22347   5.347  12.407   3.019 -0.2811 -0.2317  0.1353
 6731W        W22348  16.047   4.488   1.900 -0.0240 -0.2853  0.1893
 6732W        W22349   1.272   6.778  16.434 -0.0341  0.0180  0.0858
 6733W        W22350   6.208   7.741   3.965  0.3076 -0.0790  0.1451
 6734W        W22351   3.267  16.630   0.076 -0.2797 -0.2714 -0.0048
 6735W        W22352   3.436   5.595  15.928 -0.1022  0.4036 -0.1965
 6736W        W22353  14.788  14.062   1.444 -0.2366  0.0777 -0.1235
 6737W        W22354  14.522   5.390  15.029 -0.2431 -0.2211  0.0688
 6738W        W22355   2.021   5.698  16.436 -0.0216 -0.0799 -0.0226
 6739W        W22356   1.723  10.734   5.098  0.3373  0.2638  0.0847
 6740W        W22357  16.675  14.357   3.931  0.0925 -0.0953 -0.0836
 6741W        W22358   3.589  15.687   1.525 -0.1599  0.1565  0.0666
 6742W        W22359  11.920   6.764   3.287 -0.1867 -0.0685  0.1018
 6743W        W22360   2.862  12.742   1.274  0.1423 -0.1614  0.2881
 6744W        W22361  16.296   6.113   5.034  0.0078  0.0369 -0.1098
 6745W        W22362  11.149   5.533   5.582 -0.1183 -0.1125 -0.1231
 6746W        W22363  16.844   8.257  15.462  0.3388  0.1711  0.1389
 6747W        W22364  16.209   7.626   4.371  0.0474  0.1755 -0.3686
 6748W        W22365  10.003  13.809   4.394  0.1364  0.1357  0.0596
 6749W        W22366   4.121   8.712  12.174 -0.4325  0.1306 -0.0016
 6750W        W22367   2.887   3.925  12.818  0.0437  0.3873 -0.2946
 6751W        W22368   0.971  16.246   6.549  0.1777  0.0644 -0.1403
 6752W        W22369  13.981   6.796  17.158  0.0570 -0.1360 -0.2099
 6753W        W22370   6.765  15.263  11.682 -0.0339  0.1385 -0.1186
 6754W        W22371  16.326   6.457   1.907  0.1529  0.0318 -0.0013
 6755W        W22372   9.458  17.391  13.424  0.0068  0.2018 -0.1433
 6756W        W22373  12.339   8.412   5.708  0.2431 -0.4638 -0.0264
 6757W        W22374  10.295   6.813  15.501 -0.1088  0.0025  0.0148
 6758W        W22375   0.091  15.937  14.239 -0.1425 -0.2160  0.0263
 6759W        W22376  13.994   4.700   2.605  0.0596  0.1143 -0.2202
 6760W        W22377  11.761   2.395   1.149  0.3732 -0.1819  0.1922
 6761W        W22378   0.038   5.769  12.530  0.4113 -0.2595 -0.0840
 6762W        W22379   5.561   0.487  17.044  0.5795 -0.0001  0.0438
 6763W        W22380  13.702   7.036   2.856  0.2955  0.3795  0.0788
 6764W        W22381  15.742   1.307  14.014 -0.0810 -0.0545  0.2925
 6765W        W22382   3.659   5.082   6.716 -0.0693  0.0791 -0.1726
 6766W        W22383  13.619   6.936  12.227 -0.1610 -0.1923 -0.0923
 6767W        W22384  16.773   2.774   1.404  0.0311 -0.1777  0.4315
 6768W        W22385   3.320  13.684  11.560 -0.0661  0.1137  0.0345
 6769W        W22386  11.947   9.069  13.602  0.1256  0.0474  0.1380
 6770W        W22387  10.168  10.606   2.091 -0.0020 -0.2397  0.1207
 6771W        W22388  10.693  15.468  11.246  0.1917 -0.2549  0.1842
 6772W        W22389   2.305   5.283  14.452 -0.0468  0.0530  0.2091
 6773W        W22390   5.425   7.104  15.637 -0.0495  0.3159  0.0160
 6774W        W22391   1.248  11.106  15.244 -0.1107 -0.0591  0.0440
 6775W        W22392   9.917   5.192  13.978 -0.1005  0.1997 -0.3711
 6776W        W22393  11.074   4.257  14.616 -0.0352 -0.2452 -0.1718
 6777W        W22394   4.650   4.809   4.414 -0.0619  0.0057  0.2024
 6778W        W22395  16.922  11.835   4.517 -0.1825 -0.0930 -0.0835
 6779W        W22396   1.586  17.419  11.746 -0.0870  0.2371 -0.0599
 6780W        W22397   4.288  12.123  12.754 -0.0796  0.0486  0.1931
 6781W        W22398   0.547  16.901  16.505  0.0139  0.1074  0.0030
 6782W        W22399   6.501   3.555   2.205  0.1614 -0.1161  0.1179
 6783W        W22400  11.735  14.602  12.326  0.3716 -0.0996 -0.2997
 6784W        W22401   5.693  15.525  12.119 -0.1708  0.2010 -0.0613
 6785W        W22402   3.895   7.852  15.660  0.1143  0.2001  0.1282
 6786W        W22403   7.158  12.681   3.324  0.0846  0.4077  0.0590
 6787W        W22404   7.242  11.870   1.804 -0.0338 -0.0934 -0.1856
 6788W        W22405   1.776   0.429   1.789  0.3769  0.0037  0.1724
 6789W        W22406  11.058  13.462   4.905  0.0416 -0.1347  0.3160
 6790W        W22407  15.368   2.815   4.142 -0.0684  0.0992 -0.1790
 6791W        W22408  14.051  16.660   2.618 -0.1360  0.1147  0.2335
 6792W        W22409   0.663  10.288   1.770 -0.1623  0.2037  0.0738
 6793W        W22410  15.504   5.224  15.649  0.0440  0.0437  0.0875
 6794W        W22411  11.768   6.683   4.403 -0.0146 -0.1699  0.0841
 6795W        W22412   2.529  15.423  13.550 -0.0131  0.0325  0.3097
 6796W        W22413   3.056  10.991  16.962 -0.1371  0.0828  0.0022
 6797W        W22414   7.591  15.316   5.466 -0.0183 -0.0847 -0.0824
 6798W        W22415   6.344   3.406   0.657 -0.2290 -0.1347 -0.1695
 6799W        W22416  17.569   2.699  14.106  0.0419 -0.2835 -0.4475
 6800W        W22417   5.196  13.284  12.098 -0.1228 -0.1801 -0.0155
 6801W        W22418  16.054   2.002  15.578 -0.0728 -0.0546  0.2867
 6802W        W22419  17.559  16.979   3.305  0.1539  0.1718  0.2178
 6803W        W22420  16.737   9.063   3.234 -0.0828  0.0512  0.1460
 6804W        W22421   0.134  15.076  17.168 -0.1176 -0.0849  0.0496
 6805W        W22422   5.228   3.727  17.166  0.1264  0.2155  0.0343
 6806W        W22423   5.250  11.290  13.488 -0.1127  0.1944 -0.2143
 6807W        W22424   3.993   8.670  14.554 -0.1294  0.0900 -0.0262
 6808W        W22425   7.854   6.045   5.857 -0.1857 -0.2608 -0.1649
 6809W        W22426   4.251  11.427   3.137 -0.1590 -0.0474 -0.0277
 6810W        W22427  13.003  12.602  13.811 -0.4293  0.2528 -0.0888
 6811W        W22428   9.268   7.170   4.126 -0.0534 -0.0623 -0.3154
 6812W        W22429   6.454  11.988   2.273 -0.3529 -0.1263  0.1846
 6813W        W22430   2.844  12.909   0.218 -0.0435 -0.0411 -0.0901
 6814W        W22431   7.412   2.432   3.970 -0.4157 -0.1236 -0.1501
 6815W        W22432  12.130  10.008  14.487 -0.0555 -0.0906 -0.0578
 6816W        W22433  13.388   1.754   6.500  0.1454 -0.2163  0.1238
 6817W        W22434  17.349   6.560   5.711  0.1739 -0.0225 -0.3265
 6818W        W22435   5.469  15.826  16.797  0.1079 -0.0194 -0.1839
 6819W        W22436   7.370  11.874  11.668 -0.1501  0.2922  0.0383
 6820W        W22437   3.805  12.641   1.249 -0.1487 -0.1300 -0.0475
 6821W        W22438   2.230  16.277  11.585 -0.0924  0.0934  0.1668
 6822W        W22439   0.427  11.304   0.693  0.4663 -0.0679  0.1673
 6823W        W22440  10.116   9.377   4.510  0.3697  0.3926  0.1242
 6824W        W22441  15.397  15.662   1.956  0.2522  0.2004 -0.1689
 6825W        W22442  10.759  17.333   1.664  0.1077  0.4154 -0.0464
 6826W        W22443  14.625   0.422   2.435  0.1630  0.2304 -0.1849
 6827W        W22444   5.316  12.865   2.596 -0.0331  0.2894 -0.0456
 6828W        W22445  10.237   5.094  12.267  0.2478  0.1345  0.0073
 6829W        W22446   9.125   3.545  15.173  0.1011  0.0311 -0.0169
 6830W        W22447  13.167  11.397   3.729 -0.1618  0.3254  0.0195
 6831W        W22448  10.069   3.491  16.388 -0.1186 -0.0391 -0.3016
 6832W        W22449   6.318   9.304   3.020  0.1933 -0.0222 -0.2272
 6833W        W22450   6.597  13.991  14.323 -0.1293  0.0611 -0.1800
 6834W        W22451  10.282  13.461   4.662 -0.0204 -0.1440 -0.1765
 6835W        W22452   1.552   8.481  16.745 -0.0625 -0.1814  0.0543
 6836W        W22453  12.942  15.109   0.091 -0.0596  0.1634  0.1454
 6837W        W22454   6.517   3.815   4.630  0.1358 -0.0854 -0.1017
 6838W        W22455  10.709   0.077  11.468 -0.0279  0.0701 -0.1029
 6839W        W22456   5.638   5.804   5.213  0.0872  0.1287  0.1299
 6840W        W22457   1.718   5.566   5.418  0.2306  0.1725 -0.0525
 6841W        W22458   2.726   0.699   3.082  0.3275 -0.1662  0.0912
 6842W        W22459  15.538  11.237   1.428 -0.2717  0.0014  0.2141
 6843W        W22460   6.203  14.639   0.366  0.1417 -0.2461  0.2195
 6844W        W22461   7.784  16.725  16.540  0.0013  0.0298 -0.5396
 6845W        W22462  10.740  12.210  16.845  0.0465 -0.0816 -0.1492
 6846W        W22463  14.388   2.485   2.489  0.1253 -0.2432 -0.0982
 6847W        W22464  16.235   6.969   1.847  0.2537  0.2571  0.3971
 6848W        W22465   1.810   8.336   1.221 -0.1699 -0.3305 -0.0545
 6849W        W22466   6.194  17.293  11.375  0.0588 -0.1715 -0.1464
 6850W        W22467  12.700  15.024   1.963  0.2568  0.0928  0.4059
 6851W        W22468   9.771  16.632  15.007  0.2248 -0.1407  0.2712
 6852W        W22469  17.490  16.455   3.518 -0.1187  0.1464  0.1761
 6853W        W22470   7.757  14.387   3.194 -0.0311  0.1152 -0.0828
 6854W        W22471   8.164  14.970   2.895 -0.1008 -0.0011  0.1648
 6855W        W22472   5.244   8.912  14.216  0.0213  0.1719 -0.0819
 6856W        W22473   9.944   9.594   0.823  0.1006 -0.1002 -0.3583
 6857W        W22474   0.366  11.350  16.232  0.5205 -0.0685  0.4040
 6858W        W22475   5.208   2.013   5.717  0.0650 -0.0180 -0.1354
 6859W        W22476   6.867   1.827  13.283 -0.0866  0.1967 -0.4208
 6860W        W22477  11.147   9.738  14.589  0.0475 -0.0307 -0.1257
 6861W        W22478   5.187  15.681  14.296  0.2742 -0.4083 -0.0039
 6862W        W22479   9.485   9.107  15.079 -0.0568  0.1466 -0.0060
 6863W        W22480   0.149   2.126   5.250  0.3685  0.1702  0.2326
 6864W        W22481  10.047   7.303   1.850  0.1922  0.0389 -0.1472
 6865W        W22482   7.180   8.940   0.223 -0.0473  0.0602 -0.0986
 6866W        W22483   6.532   8.546   4.169  0.3850  0.3246  0.0966
 6867W        W22484   3.389  13.764  17.287 -0.2225 -0.1881 -0.0951
 6868W        W22485  12.781  12.691  14.855 -0.0400 -0.0711 -0.1253
 6869W        W22486   5.457   5.980   2.222 -0.1809 -0.0357  0.2095
 6870W        W22487  10.265   4.670   3.349 -0.0859  0.0504  0.0313
 6871W        W22488  15.427  11.326   0.074 -0.0969 -0.0206 -0.1571
 6872W        W22489  13.628   6.731   1.892  0.1591 -0.1204 -0.0026
 6873W        W22490  10.207   7.365  15.577 -0.1277 -0.0836 -0.1326
 6874W        W22491   9.850   9.008   4.752 -0.0601  0.1755 -0.2722
 6875W        W22492   7.473   9.651   4.964  0.0941 -0.0379 -0.0025
 6876W        W22493  14.013  10.408   3.991  0.0945  0.0586 -0.2802
 6877W        W22494   6.847  16.117  13.862  0.0571 -0.2731  0.0638
 6878W        W22495   1.803  13.101   3.697 -0.0020  0.4111  0.2497
 6879W        W22496  11.170   7.325  15.892  0.1033 -0.1807  0.1736
 6880W        W22497  13.706   5.838  14.036 -0.2825 -0.0506 -0.1557
 6881W        W22498   2.305   2.495   0.832  0.1521 -0.1799 -0.3655
 6882W        W22499   7.157   6.006   1.017  0.0101  0.0982 -0.1419
 6883W        W22500  12.589  10.596   5.599 -0.1299  0.0118  0.1922
 6884W        W22501  12.932   8.650  16.095 -0.0953  0.0755 -0.1489
 6885W        W22502   2.756   6.880  16.255 -0.1363  0.0718  0.0291
 6886W        W22503  12.597  10.527  12.048 -0.0363 -0.1575 -0.1265
 6887W        W22504   5.700  14.213  16.392  0.2923  0.3419  0.0991
 6888W        W22505  14.156   2.790  12.822 -0.0215 -0.2933 -0.1136
 6889W        W22506  10.388  12.612   4.260  0.2998  0.2649 -0.2325
 6890W        W22507  13.786   4.633   0.804 -0.0465  0.0766  0.1337
 6891W        W22508   5.974   2.687  16.393  0.3448 -0.1747  0.1930
 6892W        W22509   0.010  12.306  14.829  0.2429  0.0910 -0.1852
 6893W        W22510   4.474  12.071   3.624  0.0358 -0.2870  0.1211
 6894W        W22511   7.464  10.230   5.042  0.2389 -0.3046 -0.0666
 6895W        W22512   5.226  15.927  15.672 -0.2541 -0.2398 -0.2651
 6896W        W22513  15.000  13.474  11.687 -0.3454 -0.0959 -0.2892
 6897W        W22514   3.142   4.959   4.452 -0.0216 -0.1639  0.2036
 6898W        W22515   0.922   8.303   3.392 -0.3022 -0.1671  0.0008
 6899W        W22516   4.080   2.615   5.089  0.0806 -0.3007 -0.1512
 6900W        W22517   2.947   9.146  14.819  0.1296 -0.2641 -0.2942
 6901W        W22518  13.784   2.495  14.255 -0.5868  0.0864 -0.2064
 6902W        W22519   0.976   6.682   2.311 -0.1519 -0.0440  0.1514
 6903W        W22520  13.444   4.524   0.369  0.1568 -0.1537 -0.1578
 6904W        W22521  16.987   7.423  14.051  0.1387  0.0477 -0.1180
 6905W        W22522   3.137  16.011  16.748  0.0916  0.0231  0.2369
 6906W        W22523  11.944   7.086   1.397 -0.1192  0.4014 -0.1176
 6907W        W22524   0.625   9.776  13.311  0.0376  0.2968  0.2930
 6908W        W22525   8.381   0.436  11.736 -0.0379  0.1966 -0.2674
 6909W        W22526  11.968   7.140  16.082 -0.3803 -0.1853  0.0814
 6910W        W22527  13.160   4.948   0.128 -0.1313 -0.0114  0.0359
 6911W        W22528   9.286   6.043  17.210  0.1228  0.3019 -0.1903
 6912W        W22529  13.905  16.841  17.238  0.0793 -0.0164 -0.0234
 6913W        W22530   1.287  16.706   5.805 -0.3509 -0.4052 -0.1018
 6914W        W22531   6.113   3.978   2.076  0.0414 -0.3723  0.3494
 6915W        W22532  12.073   4.194   2.371 -0.2463  0.1178 -0.3062
 6916W        W22533  17.103  11.529  13.342  0.3301  0.2099 -0.0113
 6917W        W22534   6.370   1.015   0.212  0.1377  0.2133  0.0438
 6918W        W22535  14.145   4.323  16.342  0.1295  0.0113 -0.4299
 6919W        W22536   5.042  16.675  12.114  0.0275  0.0635 -0.2672
 6920W        W22537   8.255   1.841   0.593  0.0387  0.3493  0.2948
 6921W        W22538   2.248  11.864  14.106 -0.0394 -0.0684  0.3814
 6922W        W22539  13.105  10.572  16.593  0.0163  0.0235 -0.2095
 6923W        W22540  15.533   2.315   4.312 -0.3071  0.1737 -0.1012
 6924W        W22541  16.890  10.337   1.117 -0.0245 -0.1613 -0.0726
 6925W        W22542  11.108  15.445  16.367  0.0278  0.0787 -0.0514
 6926W        W22543   3.635   9.220   5.541 -0.1034  0.0386  0.1134
 6927W        W22544  11.620   7.060  14.399 -0.1119  0.2549  0.1970
 6928W        W22545   1.958  15.322  14.386  0.0082  0.0867 -0.0445
 6929W        W22546  17.315  12.616   6.245  0.2534 -0.2314 -0.1384
 6930W        W22547   5.649   3.512  11.953 -0.0657  0.2048 -0.1816
 6931W        W22548  15.167   0.257   2.584 -0.1463 -0.1410  0.1746
 6932W        W22549   9.375   5.368  12.583 -0.0509  0.4520 -0.0748
 6933W        W22550  15.532  14.946   5.253  0.0620  0.0648 -0.3119
 6934W        W22551  11.793  10.649  16.274 -0.0318 -0.0890  0.0301
 6935W        W22552  16.580   4.875  14.918 -0.0872  0.1075 -0.1148
 6936W        W22553   5.762   1.943   2.132 -0.0871 -0.3869 -0.3639
 6937W        W22554  16.530   2.226  15.691 -0.0962  0.1765 -0.0066
 6938W        W22555   5.745   3.094   1.890  0.0724 -0.0182 -0.2383
 6939W        W22556  12.297   9.253   6.377  0.0586 -0.1118  0.0221
 6940W        W22557   4.655   1.507  11.178  0.3669  0.2036  0.2364
 6941W        W22558  11.131  10.299   3.965  0.1170  0.1667 -0.3542
 6942W        W22559   1.927   2.383  13.887 -0.0465 -0.2582 -0.2151
 6943W        W22560  13.718   8.801  17.134 -0.1518  0.1646 -0.1258
 6944W        W22561   9.229  12.691  14.186 -0.1649  0.1137 -0.3224
 6945W        W22562  11.429  15.813   2.881  0.0670  0.0749 -0.2489
 6946W        W22563  11.743  11.383   0.521 -0.1128 -0.0574 -0.3809
 6947W        W22564  13.682  13.853   6.274 -0.0263 -0.1181 -0.1069
 6948W        W22565   4.930   0.756   4.696 -0.1896  0.2163 -0.2318
 6949W        W22566   6.118   4.985  15.274  0.1441 -0.1400 -0.2892
 6950W        W22567  14.787   5.100  17.283  0.0757 -0.0672 -0.1620
 6951W        W22568  11.409  17.407  13.077  0.3991  0.1886  0.0170
 6952W        W22569   4.576  13.892  13.477 -0.0864  0.3321 -0.1834
 6953W        W22570  13.939   6.078  11.123 -0.0843  0.4305  0.3446
 6954W        W22571  10.082  15.754  11.134 -0.3398 -0.0105 -0.0424
 6955W        W22572   8.219   3.320  15.546  0.2863  0.0786 -0.4863
 6956W        W22573   7.763   2.989   0.973 -0.0181  0.0513  0.1367
 6957W        W22574  17.170   7.509   2.440  0.1702  0.1208 -0.1679
 6958W        W22575  16.127   9.237   3.985  0.1762 -0.0055  0.0545
 6959W        W22576   2.861  17.176  12.186  0.2760  0.0276 -0.0763
 6960W        W22577  16.095  12.209  13.156  0.1468  0.1065  0.1646
 6961W        W22578  10.305  10.378  14.511  0.1553  0.2002 -0.2286
 6962W        W22579  15.322   3.974  17.056 -0.0287 -0.0659  0.0437
 6963W        W22580  13.317   0.992   4.476  0.0453 -0.1656 -0.3306
 6964W        W22581  15.339  13.618   1.941  0.1498  0.2324 -0.2332
 6965W        W22582   4.121  15.278  11.605 -0.0937  0.1870 -0.1293
 6966W        W22583   3.535   8.020  13.021  0.1791  0.1498 -0.1579
 6967W        W22584   4.263   6.016  16.596 -0.1383 -0.0300  0.0827
 6968W        W22585  15.545  14.271   0.762 -0.1746 -0.0847 -0.2677
 6969W        W22586  15.556  11.002  12.303 -0.1342  0.0223 -0.1584
 6970W        W22587  12.767   7.435   4.675  0.0693  0.2918  0.0651
 6971W        W22588  12.478   5.457  14.102  0.1763  0.1623 -0.3231
 6972W        W22589  12.435   0.954  16.845  0.0506 -0.4198 -0.0891
 6973W        W22590   3.866  11.286  16.180  0.3792 -0.1343 -0.3388
 6974W        W22591   2.372  11.410  14.126  0.3453  0.1458 -0.1261
 6975W        W22592   7.630   1.486  15.112  0.0532  0.1617  0.1467
 6976W        W22593  11.361   5.647   4.915 -0.1963  0.1460  0.1372
 6977W        W22594  11.536   3.291  14.005  0.0508  0.1283 -0.0153
 6978W        W22595  15.712   2.730  11.861 -0.2690  0.0229 -0.2405
 6979W        W22596  15.462  11.727   1.228  0.1170  0.3263 -0.0788
 6980W        W22597  13.691   8.274   0.858 -0.2602 -0.2349  0.3001
 6981W        W22598   5.689   7.788   5.820  0.0297 -0.4377  0.0864
 6982W        W22599  14.324  12.447  13.183 -0.4409 -0.1332  0.1221
 6983W        W22600   1.306  15.632   0.923 -0.1341  0.0631 -0.1932
 6984W        W22601  10.959   6.016  15.914 -0.1477  0.2719 -0.4055
 6985W        W22602   9.190   5.816  16.651  0.1721 -0.1129  0.0803
 6986W        W22603   2.324   2.762   4.559  0.0944  0.1542  0.1313
 6987W        W22604   6.065   6.318   5.967  0.1524 -0.2445  0.2651
 6988W        W22605   6.014  11.675   6.646 -0.1369 -0.4033  0.1537
 6989W        W22606  11.192   2.840   1.684 -0.1998  0.1630 -0.2074
 6990W        W22607   0.198   6.048   5.446  0.1264 -0.1657  0.0224
 6991W        W22608  14.162   3.519   1.318  0.0024 -0.1547 -0.1451
 6992W        W22609   3.956   6.006   6.433  0.1875 -0.0976 -0.0955
 6993W        W22610   2.359  11.691  13.663  0.1144 -0.1814 -0.0744
 6994W        W22611   2.347   7.425  16.904  0.0475  0.4418  0.0923
 6995W        W22612  11.979   6.112   2.931 -0.0811 -0.1463  0.3018
 6996W        W22613   6.347   0.560   1.042 -0.0660  0.2628  0.0160
 6997W        W22614  17.498  17.022  17.090 -0.1838  0.0552 -0.2800
 6998W        W22615   0.936   1.784  15.222 -0.1828 -0.0763  0.2425
 6999W        W22616   1.633   4.314  15.586  0.0648 -0.0961  0.2321
 7000W        W22617  10.193   8.080   0.960  0.1469  0.2861 -0.1043
 7001W        W22618   2.225  11.640  12.121  0.1203  0.0101 -0.0273
 7002W        W22619  11.503  14.183   2.184 -0.1490 -0.0294  0.0395
 7003W        W22620   4.963  10.148   4.542 -0.2788 -0.1955  0.0584
 7004W        W22621   1.857  13.260  16.510 -0.2338 -0.0824 -0.1077
 7005W        W22622   2.442   4.187   3.097  0.0145  0.1220 -0.0255
 7006W        W22623  14.834  16.348  11.642  0.1249  0.1415 -0.4552
 7007W        W22624  17.336   1.233  16.411 -0.0076  0.0611 -0.0403
 7008W        W22625   8.234  14.546  12.671  0.2199  0.0557  0.0342
 7009W        W22626   3.000  13.737  15.695 -0.2494  0.2521  0.0868
 7010W        W22627   9.135   3.511   3.894  0.0839 -0.0302  0.0981
 7011W        W22628  12.260  16.545   4.465  0.0527 -0.0745  0.1090
 7012W        W22629   6.380   3.260   1.136 -0.0590 -0.0306 -0.0412
 7013W        W22630   6.562   6.135   5.865  0.0533  0.3535  0.2876
 7014W        W22631   4.326  15.148  15.820 -0.0499  0.0109 -0.3533
 7015W        W22632   2.169  16.036   1.153 -0.1463 -0.1694 -0.1074
 7016W        W22633   1.163   8.351   6.666 -0.0899 -0.2143 -0.2563
 7017W        W22634   6.783   0.304   0.878  0.1572  0.3259  0.0643
 7018W        W22635  12.648  15.138   5.247 -0.1596 -0.1322  0.2043
 7019W        W22636   9.672   8.327   3.479  0.2000  0.1611  0.1560
 7020W        W22637  11.380  17.410   3.387 -0.2875 -0.0078 -0.1242
 7021W        W22638  11.256   7.204  17.033  0.1487 -0.1234 -0.0734
 7022W        W22639   0.019  16.206  16.587  0.0123 -0.2078  0.1231
 7023W        W22640   0.259  13.759  13.649 -0.0216  0.1973  0.0995
 7024W        W22641  10.428   9.099   1.471  0.3047  0.1215 -0.1467
 7025W        W22642  13.452   3.862   2.676 -0.1032  0.2217  0.1716
 7026W        W22643   7.515  10.457  12.103 -0.1705  0.4056  0.0708
 7027W        W22644  17.360   9.072   1.453  0.3667  0.3121  0.0205
 7028W        W22645   0.033   1.752   6.022  0.0363  0.1634 -0.3792
 7029W        W22646   5.770  10.531   1.533  0.1683  0.2339  0.1106
 7030W        W22647  11.690   2.745  11.552  0.3086 -0.1921 -0.0411
 7031W        W22648   2.554  13.591   0.998  0.0133  0.1045 -0.0868
 7032W        W22649  11.297   7.197   6.527  0.2350 -0.1395 -0.0931
 7033W        W22650  17.406   6.342   5.125 -0.0526 -0.2490 -0.1207
 7034W        W22651   8.775   8.281   1.838 -0.0850 -0.2975 -0.0633
 7035W        W22652   2.234   1.712   6.675  0.3059 -0.0010  0.0440
 7036W        W22653  12.963   9.264   4.916 -0.2299 -0.0332  0.0746
 7037W        W22654   0.755   4.756  14.223 -0.1954 -0.2706  0.2139
 7038W        W22655  16.667  12.021  14.516 -0.1614  0.0137 -0.0723
 7039W        W22656  14.767   9.520   4.858  0.1121 -0.0029  0.1148
 7040W        W22657   3.821   2.237   4.397 -0.0603  0.0106  0.1034
 7041W        W22658   5.675  10.287  13.560 -0.1470  0.3400  0.0106
 7042W        W22659   1.758  16.633  13.391  0.0070 -0.2377  0.0247
 7043W        W22660   3.446   3.450   2.750 -0.2692 -0.0096  0.3313
 7044W        W22661  13.677   6.381  14.699 -0.1087 -0.0627 -0.2503
 7045W        W22662   7.688   3.090  15.301 -0.2162  0.2497  0.0252
 7046W        W22663  15.433   2.340  14.268  0.0158  0.1768  0.3363
 7047W        W22664   7.550  10.075   4.558  0.0148 -0.1682  0.1141
 7048W        W22665   1.048   6.813   0.855  0.0053  0.0007  0.3033
 7049W        W22666   9.841  10.246  15.909  0.1938  0.0960 -0.0670
 7050W        W22667  13.734  12.072   2.535  0.0214  0.0654 -0.0911
 7051W        W22668   6.357  16.406  14.669 -0.2528 -0.2989  0.0411
 7052W        W22669   1.077  10.030   5.129  0.0060 -0.0077  0.1908
 7053W        W22670  10.762   8.068  16.427  0.2857 -0.0897  0.2313
 7054W        W22671   6.615   9.507  16.102  0.1978 -0.1048  0.4265
 7055W        W22672  10.976   9.600   1.223 -0.2466  0.0177  0.0489
 7056W        W22673   6.761  17.272  13.210 -0.2444 -0.0560  0.1131
 7057W        W22674   1.852   4.215  13.008  0.0045  0.4244  0.2223
 7058W        W22675   3.697   6.031  17.279  0.1499  0.2720  0.0075
 7059W        W22676  15.322   0.142   1.284 -0.2092  0.0877  0.0408
 7060W        W22677   5.397  15.337   1.698 -0.0431 -0.0628 -0.1382
 7061W        W22678   2.825  15.504   0.146 -0.3145 -0.0410  0.3377
 7062W        W22679  16.940  17.548   3.572 -0.2564  0.2573 -0.2286
 7063W        W22680   2.449  14.343  13.327 -0.4325 -0.2687  0.0611
 7064W        W22681   2.861  10.184  13.273 -0.1380  0.2460 -0.0321
 7065W        W22682  13.262  16.890   3.005 -0.1460 -0.2218 -0.0711
 7066W        W22683  16.280  16.444  13.627  0.0073 -0.0286 -0.0990
 7067W        W22684  12.456   3.699   1.729  0.2329  0.0180  0.1295
 7068W        W22685  14.465   6.296  14.528 -0.1247  0.2553  0.4786
 7069W        W22686   1.683   6.475  12.838 -0.0267  0.2151  0.0389
 7070W        W22687  11.929  12.732  11.827  0.0200 -0.1658  0.0825
 7071W        W22688  11.101  13.529  13.635  0.1769 -0.2739  0.0038
 7072W        W22689   3.938   0.774   3.839  0.1305  0.0190  0.0650
 7073W        W22690  13.218   2.973  13.025  0.1086  0.0337  0.2325
 7074W        W22691   6.515   7.185   1.850 -0.2247 -0.4907 -0.0434
 7075W        W22692  16.084  16.860  13.919  0.1656  0.1538 -0.3653
 7076W        W22693   8.424   4.884   0.220 -0.3271 -0.4443 -0.0635
 7077W        W22694   8.239   1.886   1.911  0.0035  0.3537  0.1022
 7078W        W22695   2.366   6.617   3.178 -0.1458 -0.0825  0.0852
 7079W        W22696   7.768  16.917   4.414 -0.0768 -0.0768  0.0949
 7080W        W22697  11.846  14.267  17.036  0.0195 -0.0725  0.3019
 7081W        W22698  14.447  13.139   1.060 -0.2211  0.3142 -0.3447
 7082W        W22699  10.863   9.616   0.286  0.3599  0.0852 -0.1229
 7083W        W22700   4.365   5.123   1.585 -0.2388  0.0717 -0.1102
 7084W        W22701  10.628  11.416  13.812 -0.0772 -0.4261  0.3473
 7085W        W22702   0.414   8.704  12.974 -0.0709 -0.0598 -0.1644
 7086W        W22703   5.566   3.541  14.272  0.1362  0.1315  0.1212
 7087W        W22704  14.959  17.603  16.838 -0.1883  0.2592 -0.1606
 7088W        W22705   6.163  15.189  15.513  0.0722 -0.1137 -0.1658
 7089W        W22706   1.205   6.894  15.022  0.0745 -0.1450 -0.2879
 7090W        W22707   5.292  14.141   0.120 -0.1061  0.2715 -0.0170
 7091W        W22708  10.424  10.902  16.326 -0.0644 -0.0125  0.1238
 7092W        W22709  15.252   1.251   4.022 -0.0849 -0.0270 -0.0353
 7093W        W22710   6.040  12.402  16.308 -0.1206  0.1763  0.1363
 7094W        W22711  14.033  16.440   3.467 -0.1830 -0.0827  0.4114
 7095W        W22712   3.062  17.225   0.002 -0.0545 -0.0602 -0.1174
 7096W        W22713   1.653  13.216  13.101 -0.1394 -0.1187 -0.2190
 7097W        W22714   0.693   6.064   4.730 -0.0753  0.2697  0.0091
 7098W        W22715  13.963   5.752  15.498 -0.0045 -0.0652  0.4238
 7099W        W22716   7.355  14.094   4.415 -0.0104  0.1011  0.0905
 7100W        W22717   0.946  12.928   1.412 -0.0690 -0.2387  0.0049
 7101W        W22718   5.283  14.258   4.672 -0.3181 -0.1511 -0.0562
 7102W        W22719   0.294  14.613  13.805  0.0001 -0.3094 -0.2506
 7103W        W22720  16.405   2.272   0.919 -0.0344  0.3801  0.2318
 7104W        W22721   6.227  10.215   2.626 -0.2056  0.0497  0.2280
 7105W        W22722  14.966   3.355   5.370  0.1760 -0.1282 -0.1269
 7106W        W22723   7.084   9.716   4.606 -0.0886  0.0400  0.0628
 7107W        W22724   9.528   6.366  16.604 -0.0226  0.3200 -0.0799
 7108W        W22725   6.487   2.062   2.406  0.0527 -0.1730  0.3794
 7109W        W22726   2.625   6.501  13.367  0.3161  0.1016 -0.3250
 7110W        W22727   4.309   6.551  16.499  0.3181  0.0625 -0.4234
 7111W        W22728  14.059  11.403  14.103 -0.0017 -0.0219 -0.0003
 7112W        W22729   0.353   4.244   0.621  0.2846 -0.0500 -0.0667
 7113W        W22730  12.623   5.280   4.926 -0.1872 -0.2197 -0.1902
 7114W        W22731   6.692   6.825  14.039 -0.4135 -0.2713  0.0877
 7115W        W22732   2.799   5.706  13.815 -0.1275 -0.2217  0.1898
 7116W        W22733   2.723   3.868   5.908 -0.2582 -0.0422 -0.0642
 7117W        W22734  10.844  10.093   1.739 -0.0455  0.1288 -0.4379
 7118W        W22735   6.536   6.856  12.036 -0.0197  0.2455 -0.0352
 7119W        W22736   1.105  13.472  17.276  0.0578 -0.0538  0.0884
 7120W        W22737   4.208   6.981  15.780  0.0377  0.0471 -0.1272
 7121W        W22738   8.064  11.317   1.764 -0.1679  0.0158  0.1570
 7122W        W22739  17.460   6.471  11.958 -0.1225 -0.0945 -0.2996
 7123W        W22740   8.556  16.300  15.691 -0.4221 -0.1877  0.2693
 7124W        W22741   6.603   3.207   5.087  0.0343 -0.0991 -0.1046
 7125W        W22742  17.038  13.357  16.394 -0.1439 -0.2417 -0.1384
 7126W        W22743   5.937   3.879   2.597  0.1422  0.1963  0.2720
 7127W        W22744   0.360  15.445  15.281  0.1538 -0.3396 -0.0131
 7128W        W22745  16.487  17.040   1.761  0.1793 -0.0526 -0.0430
 7129W        W22746   9.717  13.268  15.040 -0.0028 -0.1692  0.1879
 7130W        W22747   3.580  12.540   5.147 -0.2954 -0.0775  0.0257
 7131W        W22748   9.057   8.291   4.197 -0.0745  0.1121 -0.3593
 7132W        W22749   5.614  13.321   4.687  0.0137 -0.1241 -0.3407
 7133W        W22750   3.782  12.163   6.008 -0.0186 -0.0548  0.0426
 7134W        W22751   3.805  11.982   0.944 -0.1019  0.1493 -0.1162
 7135W        W22752   8.929  13.383  16.915  0.1362 -0.2045  0.1481
 7136W        W22753   8.225   0.005  11.926  0.1899  0.1451 -0.1812
 7137W        W22754  16.922   6.957   4.143 -0.1915 -0.1243 -0.3610
 7138W        W22755  12.394   4.800   2.689 -0.1015 -0.0367 -0.1571
 7139W        W22756   2.144  10.942   3.318 -0.1880  0.0094 -0.1485
 7140W        W22757  16.606   5.141   6.154  0.2818 -0.1132  0.0464
 7141W        W22758   5.117   6.289   1.294 -0.1510  0.1219  0.1032
 7142W        W22759   9.790  16.726  10.941  0.0337 -0.1421 -0.1825
 7143W        W22760   3.492   3.223  16.174  0.0051  0.4579  0.2046
 7144W        W22761   2.231  14.345   3.921 -0.2584  0.0415  0.0987
 7145W        W22762   4.137  11.144   2.058 -0.0317 -0.0876 -0.1898
 7146W        W22763  11.138  17.086   1.826 -0.1571 -0.2601  0.1529
 7147W        W22764   7.053  15.672  11.468 -0.0938 -0.0365 -0.2188
 7148W        W22765   2.548  17.213   0.649  0.0862 -0.0968 -0.1273
 7149W        W22766   7.478   4.888   2.891 -0.1825  0.3349  0.1733
 7150W        W22767   9.669   6.245   1.109 -0.2004 -0.0046 -0.0873
 7151W        W22768  15.906  15.341  11.271  0.1554 -0.1285  0.0353
 7152W        W22769   0.113  11.764  16.179 -0.0995  0.1420  0.0790
 7153W        W22770   3.691   8.421   0.961 -0.1594  0.4803  0.1878
 7154W        W22771  14.260   9.492  16.092  0.0129 -0.1103  0.0932
 7155W        W22772   6.068   3.031   4.456  0.1888 -0.1875  0.0664
 7156W        W22773   7.823  12.056  15.004  0.1797  0.4258 -0.1307
 7157W        W22774   0.530  11.149  15.815 -0.1729 -0.0348 -0.0177
 7158W        W22775  11.911  15.512   1.406 -0.0768  0.1903  0.2044
 7159W        W22776  12.901  14.770   5.925 -0.0104 -0.2481  0.1293
 7160W        W22777   2.113  16.150  13.058 -0.1102  0.3612  0.1184
 7161W        W22778   9.408   8.714   3.305 -0.0636  0.0635  0.0516
 7162W        W22779  15.878  14.978   3.491 -0.2340  0.3186 -0.0338
 7163W        W22780   2.321   8.720  14.591 -0.1787  0.0643 -0.0913
 7164W        W22781   0.615   8.098  15.953  0.0431  0.2127  0.0889
 7165W        W22782   4.780   5.821   1.097 -0.2405  0.2670 -0.0042
 7166W        W22783   6.364  16.936  12.658  0.2860 -0.0826  0.2069
 7167W        W22784   5.664   5.514  16.007  0.0182  0.2097 -0.4990
 7168W        W22785  15.429   5.424   6.332 -0.0171 -0.1002  0.0468
 7169W        W22786   7.887   6.904  14.362  0.4364  0.0938 -0.1915
 7170W        W22787   6.607   5.312  11.671 -0.0901  0.0613 -0.2326
 7171W        W22788   9.840   1.798  11.423  0.2719  0.1341 -0.0072
 7172W        W22789  13.556   8.632   1.798 -0.1528  0.2775 -0.1814
 7173W        W22790   8.059  14.535   4.202  0.2584  0.1031 -0.2501
 7174W        W22791   6.828   3.678   5.890 -0.2947 -0.2814  0.1473
 7175W        W22792   0.456  10.105   4.848  0.1689 -0.3583 -0.1432
 7176W        W22793  12.439  11.828  14.790  0.2251  0.2393  0.0081
 7177W        W22794  17.616  15.733  16.400  0.0175  0.0296 -0.0038
 7178W        W22795  11.150   0.617  11.231  0.0722  0.0635 -0.1064
 7179W        W22796   4.944  12.844  11.870  0.1406  0.0969 -0.2595
 7180W        W22797   6.280  11.437   6.180  0.1955  0.0113  0.2615
 7181W        W22798   3.485   9.098  14.904  0.0357  0.1367  0.2355
 7182W        W22799  15.597   1.218   0.446 -0.1298 -0.1803  0.2803
 7183W        W22800  10.602   2.157   2.733 -0.0518 -0.0542 -0.1642
 7184W        W22801  12.576  11.177   3.305  0.0218  0.1447 -0.1496
 7185W        W22802  16.063   9.689  11.401  0.1470 -0.0265 -0.0635
 7186W        W22803   9.708   5.854  11.766 -0.0165  0.1630  0.0835
 7187W        W22804  10.660   6.900  12.863 -0.3456 -0.2371 -0.0171
 7188W        W22805   8.491   7.516   5.117 -0.1888  0.2792  0.0020
 7189W        W22806   8.025   5.148   1.302 -0.4484 -0.0248  0.0014
 7190W        W22807   0.942  17.364  13.452 -0.1459  0.0482 -0.2005
 7191W        W22808   0.994   8.134   5.858  0.3840 -0.0051 -0.0483
 7192W        W22809  10.851  10.088   4.367  0.2975 -0.0705  0.1946
 7193W        W22810   0.265   3.330  12.830 -0.1064 -0.1321 -0.0136
 7194W        W22811   9.177   6.021  12.252  0.0994  0.0975 -0.1596
 7195W        W22812   8.716  17.535  11.733  0.1345 -0.0572 -0.1328
 7196W        W22813   9.555   7.103   1.727 -0.3219 -0.0544  0.3886
 7197W        W22814  10.646   6.481   0.269 -0.1177 -0.1562 -0.2808
 7198W        W22815  11.974   8.622  14.446 -0.0407 -0.2466  0.1275
 7199W        W22816  14.046   2.194  13.794 -0.1371  0.3065 -0.1845
 7200W        W22817   4.853   4.693   2.934  0.1059 -0.1652  0.0021
 7201W        W22818   6.841   6.737  11.597 -0.0558  0.0530 -0.0842
 7202W        W22819   3.027  14.593  12.016  0.0132 -0.2237  0.0655
 7203W        W22820   3.711   0.658  14.472  0.0082 -0.1578  0.2445
 7204W        W22821  17.096   1.760  15.077 -0.0871 -0.0702  0.0855
 7205W        W22822  14.839  15.653  13.154  0.4664 -0.1156  0.2373
 7206W        W22823   5.501  10.104   1.684  0.0986 -0.0533  0.1266
 7207W        W22824   8.372   9.420   5.404 -0.1639  0.1331  0.0585
 7208W        W22825   2.702  11.468  16.898 -0.1875 -0.3919 -0.1715
 7209W        W22826  17.096  16.819  13.240  0.0511  0.1516  0.0138
 7210W        W22827  13.696  17.588  12.859  0.0139  0.1843  0.3762
 7211W        W22828  15.922   7.445  17.187 -0.0240 -0.1283  0.0980
 7212W        W22829   2.591  13.959   5.788  0.0362 -0.2960 -0.1063
 7213W        W22830   1.145   5.147   0.894 -0.0520  0.0745 -0.3449
 7214W        W22831   0.584  12.068  15.917 -0.0694 -0.0644  0.2988
 7215W        W22832   0.970   5.432  15.970  0.3587  0.1170  0.2403
 7216W        W22833   0.553  12.459   3.581 -0.1222  0.0676 -0.0870
 7217W        W22834   4.686   8.462   1.378 -0.2200 -0.1011  0.2267
 7218W        W22835  14.231   4.353   0.912  0.5239  0.0923  0.0681
 7219W        W22836   8.361   7.363   1.166  0.0228  0.2629 -0.1365
 7220W        W22837  12.278  15.841   4.490  0.2712  0.1722 -0.0089
 7221W        W22838   4.215   8.348   4.863 -0.3591 -0.1061  0.1242
 7222W        W22839  15.686   3.937  13.588  0.0031  0.0216  0.0983
 7223W        W22840  11.165   6.434  14.944 -0.3656  0.1315 -0.3064
 7224W        W22841   6.785  15.223  13.524  0.4497 -0.1404  0.0482
 7225W        W22842  15.431  14.471   2.414  0.1264  0.1290  0.2764
 7226W        W22843   5.378   1.635  14.180 -0.3806  0.0070 -0.0070
 7227W        W22844  11.789   5.857   4.609  0.0736 -0.1100  0.0175
 7228W        W22845  11.096  11.731  13.054  0.3617 -0.2485 -0.0235
 7229W        W22846  13.567  12.265  15.591 -0.2179 -0.1812 -0.0658
 7230W        W22847  16.077  11.746   4.428 -0.1269  0.2292 -0.1465
 7231W        W22848  16.521   4.457   4.429  0.2260  0.0235 -0.1314
 7232W        W22849  12.547  10.549  13.797  0.0371  0.2435 -0.1961
 7233W        W22850   4.825   5.089   3.610 -0.4834  0.0246 -0.2365
 7234W        W22851   9.839   3.107   2.716  0.0577 -0.0899 -0.1337
 7235W        W22852   7.735  11.242   2.365 -0.2677 -0.0704  0.0753
 7236W        W22853  14.710  16.628  12.660 -0.0946 -0.0334 -0.0278
 7237W        W22854  13.006   9.142   4.380 -0.0315  0.0934  0.0662
 7238W        W22855   5.643  15.439   0.428 -0.0950  0.3563  0.2462
 7239W        W22856   9.830   7.448  13.851 -0.4163 -0.1392 -0.1717
 7240W        W22857  14.489   4.472  14.105 -0.0783  0.0664 -0.4243
 7241W        W22858   1.012   5.410   3.543  0.0200 -0.1543 -0.4422
 7242W        W22859  16.058  17.056   0.908 -0.2030  0.1639 -0.1496
 7243W        W22860   9.881  10.091  16.371  0.1178 -0.3576 -0.1178
 7244W        W22861  10.926   9.586   2.063 -0.3065  0.1777 -0.3136
 7245W        W22862  11.879  14.962  13.323  0.0633 -0.0789 -0.2285
 7246W        W22863  15.458   9.310  16.729 -0.0948 -0.1513  0.1025
 7247W        W22864  12.515   5.903   3.448  0.0125  0.0582 -0.0162
 7248W        W22865  11.064   1.503   2.307  0.1779 -0.2268  0.1526
 7249W        W22866   2.047  14.366   4.416 -0.1018 -0.2298  0.1571
 7250W        W22867   3.366  12.674   0.434 -0.1897 -0.0957 -0.3236
 7251W        W22868  15.301   6.565   1.269 -0.1707  0.0929  0.1008
 7252W        W22869   4.746   7.756   1.818  0.0049 -0.0500 -0.1294
 7253W        W22870   5.752  17.148  15.077  0.2739  0.1072  0.1389
 7254W        W22871   0.721  17.387  12.212  0.2078  0.1194  0.2789
 7255W        W22872   1.991  14.048   1.503  0.2120 -0.0355  0.2997
 7256W        W22873  15.693   8.779   0.587  0.3870 -0.0881  0.1261
 7257W        W22874   5.309   4.257   0.763 -0.5704  0.0655  0.0333
 7258W        W22875   7.570  11.849   3.866  0.1969 -0.1212 -0.1645
 7259W        W22876   1.468   8.288   3.317 -0.2109 -0.2038  0.1370
 7260W        W22877   7.964   2.585  16.450  0.0504  0.2941 -0.0491
 7261W        W22878  11.793   4.589  12.859 -0.0869  0.1660  0.1566
 7262W        W22879  14.920  10.749  16.157 -0.0540 -0.0146 -0.1567
 7263W        W22880   7.820   9.840   1.221 -0.0972 -0.0804 -0.2221
 7264W        W22881   3.440  10.594   0.247 -0.0829 -0.0873  0.4683
 7265W        W22882  13.033  15.463  16.635 -0.1492 -0.0039  0.5098
 7266W        W22883  12.931  16.314  16.957  0.1455  0.1730 -0.1306
 7267W        W22884   2.582   2.998  14.481  0.4073 -0.0864 -0.1353
 7268W        W22885   7.248  14.002  12.039  0.1886  0.0404  0.0245
 7269W        W22886   6.673  11.422   0.455 -0.0698  0.2564 -0.1684
 7270W        W22887   6.641   1.009  17.044 -0.3153  0.0692 -0.1659
 7271W        W22888   2.248   9.284   0.548 -0.0936  0.1647 -0.0598
 7272W        W22889   8.472  10.486  11.673 -0.1655  0.1707  0.1186
 7273W        W22890  12.098   0.238   1.800 -0.3091 -0.1807 -0.3410
 7274W        W22891  17.218   8.158  11.735 -0.0206  0.1504 -0.1905
 7275W        W22892   5.788   7.886  16.598  0.0092  0.1456 -0.0366
 7276W        W22893   4.182   0.379   5.460  0.0297  0.1049  0.2535
 7277W        W22894   9.778  16.207   5.272  0.1983  0.0462  0.0695
 7278W        W22895   3.032   7.734   3.283  0.0069  0.0198 -0.1453
 7279W        W22896   8.729  12.348   2.243  0.2823  0.0136 -0.1297
 7280W        W22897  13.810   2.267  12.097  0.0321  0.1406 -0.1614
 7281W        W22898   6.790   1.648  15.259 -0.4573  0.2717 -0.3166
 7282W        W22899   9.703   8.449  13.386  0.1323 -0.3690 -0.0868
 7283W        W22900   1.940   8.853  16.761 -0.3753 -0.1697 -0.1334
 7284W        W22901  14.091  10.684   6.224 -0.2725  0.1438 -0.0486
 7285W        W22902   3.454   3.733   1.856  0.2149 -0.0197 -0.2225
 7286W        W22903   3.732   3.649   0.241 -0.2335 -0.2504 -0.0868
 7287W        W22904   2.817   8.291   1.924  0.0003 -0.1281 -0.1681
 7288W        W22905   0.382   2.982  16.294  0.0109  0.1272  0.2927
 7289W        W22906   3.896   4.177   0.393 -0.1482  0.1584 -0.2237
 7290W        W22907  11.483   8.204  15.967  0.0316 -0.1093  0.3110
 7291W        W22908  10.533   0.346  13.770 -0.0317 -0.0686  0.4986
 7292W        W22909   9.464   9.849   2.804  0.3258  0.2887  0.0488
 7293W        W22910   2.859   5.116   4.912 -0.1907  0.4537 -0.1112
 7294W        W22911   3.597  14.110  13.608 -0.0348 -0.0860  0.1746
 7295W        W22912   4.751   7.949   3.937  0.3136 -0.1250 -0.2290
 7296W        W22913   7.770   7.783  15.650 -0.1827  0.2070  0.0835
 7297W        W22914   2.311   2.438   1.735  0.0349  0.1670 -0.1249
 7298W        W22915   2.236   6.815  14.863 -0.0392  0.1845  0.1861
 7299W        W22916   0.589   0.761  13.531  0.3291 -0.0906  0.0358
 7300W        W22917   8.806   7.372   5.532 -0.0097  0.1932  0.1066
 7301W        W22918  15.082  10.993   3.166 -0.1002 -0.1032  0.1398
 7302W        W22919   3.788   0.396   2.339 -0.0339  0.1378  0.1571
 7303W        W22920  16.236   0.459   3.828 -0.0196  0.1525 -0.1751
 7304W        W22921   2.347   5.386   2.943 -0.1610 -0.0445 -0.0273
 7305W        W22922   4.195  15.266  12.080  0.1691  0.2276 -0.1827
 7306W        W22923   0.525   4.571  14.985 -0.0661  0.0731 -0.0764
 7307W        W22924   4.247   8.260   2.699 -0.1087 -0.0903  0.1536
 7308W        W22925  12.768  11.813  13.594  0.0738  0.0332  0.0962
 7309W        W22926  16.322  13.847   0.951 -0.1458 -0.3649  0.3659
 7310W        W22927   2.174  12.561  11.961  0.0329 -0.0792 -0.0350
 7311W        W22928   2.971   2.283  13.743 -0.2375 -0.2406  0.1508
 7312W        W22929   4.599   5.973  13.988 -0.0653  0.0258 -0.0080
 7313W        W22930  11.165   7.614  14.010  0.1253  0.1985  0.2406
 7314W        W22931  14.256   5.031   6.357  0.0391 -0.0352 -0.0111
 7315W        W22932   0.319   5.018  14.151  0.0234 -0.3431 -0.1255
 7316W        W22933   2.297   6.780   1.378  0.1664 -0.2041  0.0731
 7317W        W22934   7.218   7.728   5.034 -0.0459 -0.0602  0.0547
 7318W        W22935   2.409   3.440  13.494  0.2183 -0.2127 -0.0266
 7319W        W22936   7.948  16.524  12.930 -0.1830  0.2065 -0.0615
 7320W        W22937  13.414   6.232  14.226  0.0713  0.2900  0.1549
 7321W        W22938  16.810   0.897   4.998  0.0951 -0.3964 -0.3734
 7322W        W22939  13.464   6.881   4.593  0.0637 -0.1874  0.1081
 7323W        W22940   4.250  15.421  17.281 -0.0594 -0.2273 -0.1242
 7324W        W22941  12.417   1.176   1.499 -0.0251  0.0584 -0.1792
 7325W        W22942  16.095  14.550   0.943 -0.4082 -0.1115  0.0253
 7326W        W22943  12.242   8.134  16.007 -0.0369 -0.3202  0.0442
 7327W        W22944   7.121  10.085  13.511 -0.1949  0.0218 -0.2766
 7328W        W22945  15.547  10.178   0.476  0.0359  0.2452  0.0120
 7329W        W22946  13.256   9.958   2.509  0.0645 -0.1650  0.2868
 7330W        W22947   2.205  13.627   1.912  0.1112  0.2030 -0.1919
 7331W        W22948  16.244  14.574   3.740 -0.0283  0.0482  0.0536
 7332W        W22949   2.065  13.001  13.235 -0.0077  0.3143 -0.1835
 7333W        W22950  13.688  11.890  16.543  0.0457 -0.4092 -0.3847
 7334W        W22951   6.809  17.531   1.856  0.1506 -0.0953 -0.3366
 7335W        W22952   1.282  10.407   6.400 -0.0283  0.2441 -0.3089
 7336W        W22953  10.958   1.038   4.273 -0.1403  0.0691  0.1109
 7337W        W22954   6.219   2.068   2.935  0.0351  0.0078 -0.0927
 7338W        W22955  16.927   4.676   5.736 -0.0448 -0.3360 -0.3174
 7339W        W22956   9.953  17.130  15.651 -0.0768  0.1570  0.1262
 7340W        W22957   5.871  13.489  16.560  0.1672  0.0517  0.8497
 7341W        W22958  16.187   9.434   2.082 -0.0483 -0.1058 -0.1868
 7342W        W22959  14.976   4.445   5.808  0.5738 -0.3527 -0.3738
 7343W        W22960   8.338  11.498   2.246 -0.1461 -0.2446  0.0174
 7344W        W22961   6.055  13.747   1.301  0.1843 -0.1907  0.1925
 7345W        W22962   5.470  14.367  12.443  0.1234 -0.2820  0.0974
 7346W        W22963   4.170  15.091   4.973 -0.1644  0.0094 -0.1764
 7347W        W22964   6.026  12.619  14.560  0.0518  0.1656  0.1842
 7348W        W22965  16.468  12.230   5.004 -0.0344 -0.1880  0.1872
 7349W        W22966  13.507   2.013   2.700  0.0209  0.2117  0.2334
 7350W        W22967  10.126   0.242   3.130 -0.2628 -0.0003 -0.2129
 7351W        W22968   4.824   5.526  16.562 -0.1654 -0.0426  0.2053
 7352W        W22969   9.591   0.266  13.427 -0.2341  0.0154 -0.0466
 7353W        W22970   4.304   6.653   1.007 -0.0472  0.1887 -0.2971
 7354W        W22971  16.686   4.951  12.716  0.0667 -0.0197  0.1442
 7355W        W22972   3.036   1.467  12.095 -0.0172 -0.0404 -0.2350
 7356W        W22973  14.590   9.069  15.881  0.0394  0.0353 -0.1981
 7357W        W22974   0.483  10.646  15.379 -0.0721  0.0060 -0.0548
 7358W        W22975  11.906   0.278  17.272  0.1762 -0.3288 -0.0127
 7359W        W22976   1.420   0.832   0.524 -0.1784  0.0401  0.0745
 7360W        W22977   9.696  14.254  15.746 -0.4639 -0.0600  0.1013
 7361W        W22978   4.055   7.432  12.870 -0.0007  0.1542  0.0300
 7362W        W22979   3.959  17.165   2.632  0.2067  0.3182  0.1764
 7363W        W22980  11.465   6.475  14.452 -0.0610  0.2385 -0.1391
 7364W        W22981  10.554  13.435   1.512 -0.3359 -0.0098  0.0450
 7365W        W22982  10.831   1.491   1.797 -0.1163 -0.2431  0.2117
 7366W        W22983   8.307  17.284   3.620  0.0741 -0.2650 -0.2430
 7367W        W22984   3.446   1.089  14.974  0.0413  0.2836 -0.0200
 7368W        W22985   0.152  14.777  11.771 -0.0297  0.1385  0.4412
 7369W        W22986   0.306  13.342  16.267  0.0336  0.1905 -0.2282
 7370W        W22987  11.851  11.875  14.282  0.3035 -0.2419  0.2684
 7371W        W22988  15.439  13.264   2.794 -0.1791  0.0254 -0.1067
 7372W        W22989  13.234   4.865   1.796  0.1522 -0.0067 -0.2313
 7373W        W22990   0.481   2.217  16.692  0.0358  0.4118  0.0499
 7374W        W22991   0.006  10.544   5.711  0.0390 -0.2338 -0.0771
 7375W        W22992   8.191  11.585  14.623 -0.2633  0.0496  0.0361
 7376W        W22993   7.899  13.078   5.982 -0.0730 -0.0042 -0.2048
 7377W        W22994   0.115  11.122  12.604 -0.0126 -0.0062 -0.0590
 7378W        W22995  15.221   5.899  15.613  0.1462 -0.0442  0.4292
 7379W        W22996   2.529   6.423  12.838  0.1778  0.1639 -0.1550
 7380W        W22997   9.639  10.940  15.368 -0.1344 -0.2993 -0.0365
 7381W        W22998   2.825  14.753  15.325 -0.3577 -0.0013 -0.0915
 7382W        W22999   8.081  10.831  13.901 -0.0759 -0.2694  0.0660
 7383W        W23000   9.120   1.257  16.696  0.1137  0.0210 -0.0650
 7384W        W23001   1.424   9.256  15.006  0.1185 -0.2106 -0.1412
 7385W        W23002   9.108  16.354   4.665 -0.1289  0.2216 -0.2626
 7386W        W23003   3.025   9.097  14.309  0.0885  0.1708 -0.3039
 7387W        W23004   0.230  16.522   2.132 -0.1332  0.2609  0.1114
 7388W        W23005   4.760   9.775  12.387  0.2432  0.0766 -0.1658
 7389W        W23006  14.243   8.473   4.344 -0.1785  0.1278 -0.1042
 7390W        W23007  11.868   7.923   1.841  0.0016  0.2039 -0.0082
 7391W        W23008   8.579   5.714   3.665 -0.1460 -0.1615 -0.1194
 7392W        W23009   7.708   0.599   2.041  0.1288  0.0145  0.0191
 7393W        W23010   7.945   0.838   5.651 -0.0723  0.1257 -0.0066
 7394W        W23011   4.685   1.609  14.490  0.1396 -0.1026 -0.3074
 7395W        W23012   4.397  11.457  16.081  0.1327 -0.0414 -0.1995
 7396W        W23013  10.327  13.452   2.480  0.1610  0.0630  0.0510
 7397W        W23014   5.980  11.196   1.456 -0.2575 -0.1293  0.2142
 7398W        W23015   2.252   3.301   3.758 -0.0088  0.0628 -0.2897
 7399W        W23016  13.682   4.725   2.089  0.0444 -0.0695 -0.1045
 7400W        W23017   3.432  15.215   5.025 -0.2536  0.1117 -0.2602
 7401W        W23018   9.528   6.630   0.822  0.0373  0.0581  0.2600
 7402W        W23019   2.742  17.532  16.567 -0.1620 -0.1012  0.2487
 7403W        W23020  11.442   0.514  13.789  0.0159  0.0663  0.3887
 7404W        W23021   8.634  11.654   6.236  0.1750 -0.1047 -0.0361
 7405W        W23022   5.483  11.815   4.807 -0.1033  0.0268 -0.0831
 7406W        W23023  15.593   2.251  15.706  0.2827 -0.0649  0.0709
 7407W        W23024  10.030   9.508  14.538 -0.0741  0.2089 -0.1501
 7408W        W23025  10.684  11.861   1.079  0.3764  0.2312 -0.3333
 7409W        W23026  12.511  13.534   3.676  0.0406 -0.2538 -0.1455
 7410W        W23027   7.743  11.875  16.867  0.1151  0.0865 -0.4490
 7411W        W23028  13.176  14.014  13.869  0.2875 -0.0417 -0.2076
 7412W        W23029   6.646   5.652  13.306 -0.1127  0.1538 -0.0810
 7413W        W23030   5.422  14.923   2.815  0.1133  0.1027 -0.1962
 7414W        W23031  13.939   7.093   5.847  0.0565  0.2539  0.0732
 7415W        W23032   8.367   7.014  16.934  0.0047 -0.0912  0.0952
 7416W        W23033   0.232   3.883  17.295 -0.1631  0.2751 -0.1206
 7417W        W23034   1.135   2.711  12.631  0.1733 -0.0751  0.0204
 7418W        W23035   7.034   3.950  12.454  0.1046  0.0803  0.1194
 7419W        W23036  13.473   2.278   6.276 -0.0056  0.0208 -0.0095
 7420W        W23037   4.053   3.069   1.558 -0.0503 -0.2523  0.4855
 7421W        W23038  10.770  16.639   3.655 -0.0562 -0.0680  0.3456
 7422W        W23039   8.182  11.125  14.802  0.0548 -0.0326 -0.1190
 7423W        W23040   3.045   8.341   4.244 -0.0956  0.0828  0.2045
 7424W        W23041   7.010  11.038   4.387  0.1436 -0.1617 -0.0845
 7425W        W23042  13.499  13.242  13.204 -0.2457  0.2242  0.3057
 7426W        W23043   5.032   2.297   0.472 -0.0990  0.0076 -0.0740
 7427W        W23044   9.522   9.154   3.422  0.1561 -0.2578  0.0580
 7428W        W23045   3.273   2.060   6.168 -0.0461 -0.3446 -0.2065
 7429W        W23046   4.851  15.025  15.337  0.2323 -0.0853  0.2062
 7430W        W23047   4.877   4.582  16.930 -0.0266  0.3356  0.1211
 7431W        W23048   3.309   9.279  15.543 -0.1362  0.0605  0.0353
 7432W        W23049  17.252   5.569  12.170 -0.3746  0.1911 -0.1659
 7433W        W23050   7.235  12.087   5.068 -0.0383  0.1651 -0.0595
 7434W        W23051  11.772   0.020  12.117 -0.0161  0.3781  0.1911
 7435W        W23052  16.704   2.574  13.869 -0.2709 -0.2048 -0.1268
 7436W        W23053   1.098  15.594  12.925  0.1703 -0.1157  0.1264
 7437W        W23054   7.141   5.195  14.981  0.2480  0.0524 -0.0332
 7438W        W23055  11.141   2.552  15.328  0.0016  0.0615 -0.2404
 7439W        W23056   5.277  14.664   0.138  0.1772  0.3084  0.0785
 7440W        W23057   8.381   9.134   0.413  0.0055  0.1105 -0.0377
 7441W        W23058   4.704   9.690  14.724 -0.0118 -0.1832  0.1497
 7442W        W23059  13.054  17.217  16.924  0.0433 -0.1787 -0.0445
 7443W        W23060  16.546  16.045  14.983 -0.0054 -0.1612  0.0207
 7444W        W23061   1.966   1.617  17.191  0.2062 -0.1138 -0.0390
 7445W        W23062   1.423  14.787   0.264 -0.0414 -0.2394 -0.0086
 7446W        W23063  13.139   7.881  13.136  0.1325 -0.3500 -0.1179
 7447W        W23064   4.692   7.835  16.014 -0.0744  0.0295 -0.1475
 7448W        W23065   8.676  15.034   2.806  0.0456  0.3072 -0.3069
 7449W        W23066   8.587   8.681  14.885 -0.2281 -0.2262 -0.1188
 7450W        W23067   4.673  13.010   0.847  0.3239  0.1214 -0.0279
 7451W        W23068  14.900   8.274   5.895  0.0130 -0.0145 -0.0053
 7452W        W23069   1.122  12.537   2.911  0.0552 -0.2270 -0.0502
 7453W        W23070  17.467  14.937   4.829  0.0757 -0.1279  0.1456
 7454W        W23071   8.793   1.071   6.148 -0.1858 -0.1923  0.0684
 7455W        W23072  15.578   2.026  14.798 -0.1481 -0.1234 -0.1065
 7456W        W23073   1.695  16.012  15.036  0.0303  0.1478 -0.2533
 7457W        W23074   4.469  16.497   5.627  0.1097 -0.0319  0.0075
 7458W        W23075   1.532  16.600   3.787 -0.1293 -0.0290  0.0069
 7459W        W23076  13.213   6.753   2.940  0.0444 -0.0917 -0.0425
 7460W        W23077   7.272   3.099  16.567  0.0656  0.0830 -0.2230
 7461W        W23078   6.731  14.390   1.257  0.1062  0.0185 -0.0046
 7462W        W23079  13.876   8.832   2.607 -0.1171 -0.3043  0.1485
 7463W        W23080   4.672  12.048   4.520 -0.0932 -0.2784  0.0796
 7464W        W23081   3.797   3.031  13.177 -0.1036 -0.3932  0.2578
 7465W        W23082  13.866   3.850   3.481 -0.0641 -0.0179 -0.0494
 7466W        W23083   8.197  14.845   5.189 -0.1192  0.5243  0.1106
 7467W        W23084  15.634  16.562   1.848  0.0037 -0.0140 -0.2404
 7468W        W23085   1.806   8.536   2.689 -0.0722  0.2466 -0.2972
 7469W        W23086  14.070  12.377   3.413  0.3059 -0.1547  0.1422
 7470W        W23087   4.887   3.056   5.458  0.2225  0.1577  0.0592
 7471W        W23088  10.117   5.755   0.479  0.1443  0.2275  0.0943
 7472W        W23089  16.610   3.963   4.528  0.1307 -0.0017  0.3361
 7473W        W23090  13.340  11.080  13.526 -0.1440 -0.1702 -0.1311
 7474W        W23091   3.551  13.004   3.484 -0.0063 -0.2672 -0.0202
 7475W        W23092   3.134  13.114   4.311 -0.3807  0.0509  0.0317
 7476W        W23093  10.202   4.019  12.370  0.1252  0.1359 -0.1500
 7477W        W23094  16.308   5.276   5.671 -0.0920  0.2895 -0.5118
 7478W        W23095  13.258  16.090   0.158  0.0496  0.1539 -0.0648
 7479W        W23096   1.519   9.654   4.583  0.0074 -0.0808  0.1046
 7480W        W23097   1.525   0.864   5.779  0.1905 -0.0925  0.1018
 7481W        W23098  13.822   0.587  16.471 -0.3109  0.1066 -0.0943
 7482W        W23099  11.038  14.708  12.200 -0.0356 -0.1252 -0.1304
 7483W        W23100  16.552  10.708  15.736 -0.0536 -0.0118  0.0930
 7484W        W23101   2.978   1.651  16.184 -0.0810 -0.0504  0.0987
 7485W        W23102   9.462  11.084  12.913  0.2693  0.0996 -0.0276
 7486W        W23103   2.950  12.343  16.415 -0.0732  0.0974 -0.2111
 7487W        W23104  17.505  11.234  16.438 -0.0869 -0.0206 -0.1428
 7488W        W23105  11.325  12.468   2.660  0.1816 -0.0162 -0.2233
 7489W        W23106  16.731  11.078  15.007 -0.0651  0.0851  0.0838
 7490W        W23107  16.044  13.983  16.437 -0.3088  0.0167 -0.4070
 7491W        W23108   0.988   3.485   4.375 -0.0446  0.0308  0.0287
 7492W        W23109   8.670   2.429  11.408  0.1286  0.1772  0.1340
 7493W        W23110  13.370   1.535  12.584  0.1202 -0.0712  0.1000
 7494W        W23111   3.401   2.595   0.927  0.3077 -0.0224 -0.2203
 7495W        W23112  11.903  12.373  13.077 -0.0427  0.0199 -0.0665
 7496W        W23113  17.462   0.795   2.269 -0.0118 -0.0888  0.0119
 7497W        W23114   1.022   9.027   2.323  0.0796 -0.0699 -0.4003
 7498W        W23115   5.022  12.210   1.383  0.1490  0.1976 -0.0402
 7499W        W23116  11.382   1.852  15.328 -0.0149 -0.3083 -0.0146
 7500W        W23117  12.471  17.185  15.918 -0.0211 -0.2521  0.2895
 7501W        W23118  12.430   6.852  14.757 -0.0066 -0.1269  0.0480
 7502W        W23119  16.789   0.841   2.749  0.1806 -0.0290  0.3295
 7503W        W23120   5.911  15.647   0.853 -0.0010 -0.0145  0.0313
 7504W        W23121  16.794   9.090   6.514 -0.0935  0.1608 -0.2130
 7505W        W23122  14.996  15.850   5.040 -0.0727 -0.0837  0.1721
 7506W        W23123   2.190  10.173  14.147 -0.0583  0.0545  0.4655
 7507W        W23124  16.176   3.538   2.741  0.0316  0.1892  0.3389
 7508W        W23125  10.210  17.505   1.461 -0.0663  0.1987 -0.1437
 7509W        W23126  12.976   3.981  14.043  0.0558 -0.1481  0.2601
 7510W        W23127  14.416  14.111  12.741 -0.0766 -0.0375  0.4237
 7511W        W23128   8.153   9.535   1.231 -0.1339 -0.0005 -0.1757
 7512W        W23129   5.517  10.933  12.414 -0.0611 -0.2279  0.3273
 7513W        W23130  11.153  13.069  13.272  0.0924  0.3368  0.1195
 7514W        W23131   2.031  14.829   0.380  0.1570  0.0908  0.0972
 7515W        W23132  14.868   8.676   5.439  0.1552 -0.1625 -0.0379
 7516W        W23133   7.164   3.452  14.667 -0.2146 -0.0519  0.2251
 7517W        W23134   9.293   4.542  13.193  0.0679 -0.1707 -0.0259
 7518W        W23135  10.032  11.134   2.065 -0.1177 -0.0418 -0.1653
 7519W        W23136   0.764  11.444  16.551  0.0638 -0.2614  0.3406
 7520W        W23137  17.438  11.179  14.079  0.0052 -0.0287 -0.1316
 7521W        W23138   4.731  17.246   2.973  0.0898 -0.1154 -0.1794
 7522W        W23139  10.050   1.458  16.361  0.3259  0.0443 -0.3785
 7523W        W23140  14.574   0.557   5.522 -0.1722 -0.0695  0.1559
 7524W        W23141  12.728  15.983   0.063  0.1824 -0.2014  0.0009
 7525W        W23142  12.351  15.785   3.252 -0.2198 -0.0555  0.2991
 7526W        W23143   1.254   4.589  17.262  0.0580 -0.0332  0.1511
 7527W        W23144   7.827   0.937  12.894 -0.0600 -0.1121  0.0456
 7528W        W23145  10.441  15.681   3.589  0.2946 -0.0462  0.0673
 7529W        W23146   3.678   5.643   2.046 -0.5413 -0.0166  0.1143
 7530W        W23147   8.004  14.390   0.160 -0.0677 -0.0238  0.1547
 7531W        W23148   1.555   0.015  16.426 -0.0794  0.0426 -0.1113
 7532W        W23149  10.872  13.590   3.327 -0.5896 -0.4247 -0.0074
 7533W        W23150   1.734   7.657  15.403  0.0829 -0.1661 -0.2638
 7534W        W23151   6.339  13.803   4.089 -0.2102  0.0705  0.1627
 7535W        W23152  15.251   8.745   2.878 -0.3205  0.0826  0.1247
 7536W        W23153   2.600   7.001   0.540  0.3951 -0.1750  0.1014
 7537W        W23154   6.405  10.088  17.074  0.1969 -0.1280 -0.1062
 7538W        W23155  10.552  16.545   2.385 -0.0360 -0.0091 -0.0177
 7539W        W23156   8.469  16.010  11.938 -0.2263  0.2356 -0.0053
 7540W        W23157   8.096  11.703   4.768  0.1440  0.0102  0.2041
 7541W        W23158   0.185   2.482   4.603 -0.0493  0.1915 -0.1344
 7542W        W23159   0.534   9.128  14.230 -0.1031 -0.2361  0.0784
 7543W        W23160   6.185   2.428  14.416  0.0383  0.0371  0.1859
 7544W        W23161   8.576   2.481  13.972  0.1745 -0.1155  0.1705
 7545W        W23162   8.890   2.895  14.036 -0.1532 -0.1289  0.1373
 7546W        W23163   9.561   2.890  16.944 -0.0281 -0.1349  0.1853
 7547W        W23164   6.307   0.527   3.412  0.0096 -0.1805  0.0805
 7548W        W23165  14.085  17.236   3.873 -0.0217 -0.2073 -0.2218
 7549W        W23166   1.647  13.780   2.812 -0.1672  0.0569 -0.1181
 7550W        W23167  11.274  16.708  13.897  0.0183 -0.0940 -0.2586
 7551W        W23168  14.599  10.543   3.337  0.1942  0.3020 -0.4001
 7552W        W23169  16.258   3.310   4.770  0.2853 -0.1840 -0.0775
 7553W        W23170   7.970  10.063   4.883  0.0844  0.1258  0.2706
 7554W        W23171   4.852   1.494   1.008  0.0136 -0.1963 -0.2389
 7555W        W23172   0.239   9.033  12.420  0.0282 -0.0004  0.0386
 7556W        W23173   3.618   9.994   5.210 -0.2718 -0.0760  0.1387
 7557W        W23174  14.203   4.665  12.912 -0.4365 -0.0262 -0.3462
 7558W        W23175  15.007  13.822  16.148  0.0157 -0.1368 -0.3737
 7559W        W23176   1.327   1.250  15.709  0.2701 -0.0450 -0.3221
 7560W        W23177  14.890   1.017  12.537  0.0909 -0.3139 -0.1392
 7561W        W23178   3.844   6.517  11.983 -0.0463 -0.0467 -0.3166
 7562W        W23179  16.178   6.042   5.879 -0.0015 -0.0283 -0.4366
 7563W        W23180   7.752  15.548   0.564  0.0329  0.0109 -0.0706
 7564W        W23181   4.966  10.762  12.151 -0.0031 -0.0110  0.2581
 7565W        W23182   3.958  10.462  11.097  0.2900  0.2744 -0.1363
 7566W        W23183  14.092   1.417   3.132  0.2362  0.1361 -0.0571
 7567W        W23184   8.241   9.282   2.587 -0.0778 -0.0443  0.0245
 7568W        W23185  17.514   3.187   2.867  0.2197 -0.1144 -0.2540
 7569W        W23186  12.057  13.439  17.285 -0.0369 -0.3165 -0.1420
 7570W        W23187   8.771  13.971  16.011 -0.1268 -0.2571  0.2723
 7571W        W23188   7.531   5.290  15.857  0.0953 -0.1207  0.0035
 7572W        W23189   0.279   8.866  16.307  0.3030 -0.0462  0.0282
 7573W        W23190   6.707   8.501  15.432 -0.0681 -0.3953 -0.0928
 7574W        W23191  16.842  10.940   1.955 -0.0494  0.1471  0.1597
 7575W        W23192  13.743   5.495  12.508 -0.2711 -0.1507 -0.5268
 7576W        W23193   8.327   8.025  16.947 -0.3408  0.1422 -0.3831
 7577W        W23194  16.257  12.033   5.435 -0.0452 -0.1741  0.0378
 7578W        W23195   7.616  12.904  14.504 -0.0667  0.3150 -0.0443
 7579W        W23196   9.310  14.187  14.467 -0.1772  0.0031  0.4210
 7580W        W23197  11.509  16.354   0.232 -0.0376  0.1769  0.0407
 7581W        W23198   3.603  15.035   1.795  0.0741  0.0918 -0.0040
 7582W        W23199   7.090  15.849   4.676  0.1073 -0.2503 -0.1949
 7583W        W23200  15.005   9.869  14.586  0.1173  0.3035 -0.3184
 7584W        W23201   5.426   6.191   1.719  0.2588 -0.2594  0.1433
 7585W        W23202  12.645   6.122   4.664 -0.0119 -0.1530  0.3152
 7586W        W23203   0.504  11.614   5.319  0.2314  0.0284  0.3954
 7587W        W23204   9.519  15.589   3.053  0.0831  0.0948 -0.1858
 7588W        W23205  11.024   7.925  17.229 -0.1429  0.0624  0.1084
 7589W        W23206   7.084   8.270  15.702  0.3049  0.0062 -0.2447
 7590W        W23207   4.541   2.579  12.020 -0.0698  0.1415 -0.1455
 7591W        W23208  17.526   6.254  16.083  0.1450  0.1575  0.2125
 7592W        W23209   6.651   7.360   3.271 -0.1180 -0.0453 -0.0635
 7593W        W23210   7.274  12.103   2.960  0.1640 -0.0232  0.0642
 7594W        W23211   8.857  13.116  13.533 -0.0214 -0.0075 -0.1926
 7595W        W23212   6.560   4.527   4.023 -0.1810 -0.0246 -0.3357
 7596W        W23213  11.561  13.329  13.421  0.1575  0.0980 -0.0097
 7597W        W23214   3.755  13.230   1.369 -0.0255 -0.1143  0.1293
 7598W        W23215   0.129   4.692   0.470 -0.2660  0.2124  0.2274
 7599W        W23216   1.164   7.427  15.330 -0.0301 -0.0713  0.2887
 7600W        W23217   8.132   9.915  17.278  0.1976  0.1386  0.1125
 7601W        W23218   2.337   9.892  12.394 -0.0922 -0.0614  0.2069
 7602W        W23219   3.404   1.664  14.280  0.0661  0.0904  0.2937
 7603W        W23220   5.883  11.604  14.245  0.1397 -0.0247  0.0032
 7604W        W23221   0.723  14.715   1.224 -0.0625 -0.0996  0.3215
 7605W        W23222  10.286   5.931   5.543  0.0934 -0.2331  0.1326
 7606W        W23223  13.572   8.296   3.415 -0.0084  0.0744  0.1600
 7607W        W23224  13.154   9.555   0.101  0.1565 -0.3224  0.0241
 7608W        W23225  17.109   3.616   4.464  0.0403 -0.1633 -0.0804
 7609W        W23226  12.219   5.174  10.959 -0.1463  0.0394 -0.1275
 7610W        W23227   9.997   6.439   1.995  0.0311 -0.1195 -0.1018
 7611W        W23228  10.604  13.627  16.206  0.1734  0.2211 -0.1262
 7612W        W23229   2.280  16.088  16.994  0.0276  0.0631 -0.0247
 7613W        W23230   5.206  17.591  16.328  0.1279 -0.0137  0.1866
 7614W        W23231  16.871   7.238  11.611  0.2589 -0.0850 -0.0426
 7615W        W23232   1.529   3.439  16.938  0.1187 -0.0122  0.0243
 7616W        W23233  16.834   7.071   0.007  0.1185  0.0336 -0.0076
 7617W        W23234   5.293   7.305   0.099 -0.2394  0.1154 -0.3399
 7618W        W23235   0.638  15.368   4.405 -0.2545  0.0445  0.1846
 7619W        W23236   8.357  10.718   6.318  0.1009 -0.0637  0.0285
 7620W        W23237   8.484  14.764   6.152 -0.0192  0.0519 -0.3293
 7621W        W23238   9.771   5.234  16.243 -0.1679  0.1854 -0.0663
 7622W        W23239   8.293   2.872  12.771 -0.1540 -0.3715  0.0756
 7623W        W23240   4.516  10.722   3.850 -0.5145 -0.2110  0.0111
 7624W        W23241   4.982  11.923  17.036  0.0809 -0.3401  0.2507
 7625W        W23242   2.180  13.506   3.481 -0.3292  0.0111  0.0097
 7626W        W23243  17.582   3.631   1.335  0.1842 -0.0080 -0.0925
 7627W        W23244  12.317   7.975  13.401 -0.1230 -0.1697 -0.2251
 7628W        W23245  14.896   4.056   1.311 -0.2062  0.3100 -0.2335
 7629W        W23246   7.062   5.796  16.701 -0.3293  0.1585  0.0359
 7630W        W23247   3.929  13.086  15.745 -0.1454  0.1806  0.2658
 7631W        W23248   6.154  15.962   4.541 -0.0872 -0.0993 -0.0198
 7632W        W23249  15.260  10.967  15.862  0.1723 -0.1394 -0.1470
 7633W        W23250   6.621  17.303   1.431  0.1768 -0.4004  0.2937
 7634W        W23251   0.278   0.393   0.844  0.0778  0.0030 -0.4686
 7635W        W23252  12.765   0.661  15.255  0.3677 -0.0721  0.1916
 7636W        W23253   9.848  16.593   9.868 -0.1755  0.0620  0.1126
 7637W        W23254  10.159  12.749  13.185 -0.3610  0.0209 -0.0797
 7638W        W23255  11.007   5.355   5.113  0.1189  0.1023  0.1983
 7639W        W23256   5.317   4.965   1.364  0.0994 -0.0399 -0.0577
 7640W        W23257   4.632  15.190   3.401 -0.0020 -0.0092  0.1033
 7641W        W23258  11.100   9.363   4.980  0.1124  0.1298  0.0398
 7642W        W23259  17.072  14.176   4.479 -0.3407  0.3234 -0.1195
 7643W        W23260  12.457  15.619  13.306 -0.0747 -0.1026 -0.3027
 7644W        W23261  13.446  10.400   5.661  0.2431 -0.0388 -0.1076
 7645W        W23262   4.315   7.191  12.494  0.3563 -0.2631  0.0974
 7646W        W23263   9.999   5.655  17.280  0.0992  0.1080  0.0679
 7647W        W23264  13.980  12.975   2.660 -0.0068 -0.0345  0.4148
 7648W        W23265   7.144   5.496  12.472 -0.1577  0.0068  0.1545
 7649W        W23266   0.228   8.722   5.634  0.2115 -0.2300  0.1862
 7650W        W23267  10.026  17.151  11.104 -0.0829  0.0792  0.1515
 7651W        W23268  14.887   2.737  16.661 -0.0335 -0.0580 -0.0372
 7652W        W23269  10.077   9.006  17.291 -0.0263  0.0004  0.0095
 7653W        W23270   6.381   8.224   5.078 -0.3123 -0.0067  0.0585
 7654W        W23271  10.906  12.960  12.494 -0.0286  0.0349 -0.1315
 7655W        W23272  11.948   8.816   3.203 -0.0646  0.3469  0.2738
 7656W        W23273   2.594  14.030   4.835 -0.0466 -0.0121  0.1339
 7657W        W23274   8.975   5.464   2.895  0.1562  0.1657 -0.0094
 7658W        W23275   0.361  12.331   5.908 -0.1921 -0.1911  0.3020
 7659W        W23276  13.901  14.660  13.471 -0.0875 -0.1741  0.1968
 7660W        W23277   6.570   4.049   2.371  0.5838  0.0695 -0.0366
 7661W        W23278   5.577  11.946   0.725  0.4164  0.0234  0.2830
 7662W        W23279  10.529   4.901   3.936 -0.0343  0.0969  0.0289
 7663W        W23280   3.953  11.356  15.332 -0.1473  0.0616 -0.1034
 7664W        W23281   9.445   7.889   3.428  0.2959  0.0637  0.1413
 7665W        W23282   0.267  15.962   5.337 -0.3398 -0.4350  0.0090
 7666W        W23283  16.374  11.482  15.190 -0.1465 -0.0443  0.0082
 7667W        W23284   1.937   7.879   0.257 -0.3209  0.2425 -0.0314
 7668W        W23285   7.948  16.355  15.811 -0.0267 -0.0046 -0.0687
 7669W        W23286  15.550   8.779  13.164  0.2495  0.0107  0.0711
 7670W        W23287   9.648  17.376  11.504 -0.2133  0.3471  0.4389
 7671W        W23288  15.035  16.704  15.477  0.1700  0.1783 -0.0264
 7672W        W23289  12.728   2.767   6.037  0.2315  0.1425  0.3263
 7673W        W23290  13.949  11.809  12.275  0.0026 -0.0197  0.0909
 7674W        W23291   0.420   8.273  16.768  0.0406  0.1655 -0.0736
 7675W        W23292  15.368   7.639   1.338 -0.0516  0.0573  0.0870
 7676W        W23293  16.999  14.522   1.001 -0.1627  0.0145 -0.0233
 7677W        W23294   6.649  15.613   2.810 -0.4425 -0.1679 -0.0296
 7678W        W23295  12.653   2.557  11.248 -0.0574  0.0193  0.0640
 7679W        W23296  10.075   3.472  14.269  0.0507 -0.4565  0.1186
 7680W        W23297  10.829   3.867  15.760 -0.1722  0.1906 -0.0171
 7681W        W23298  15.886  16.788   0.328  0.1269 -0.2219  0.2124
 7682W        W23299  10.680  11.573  14.423 -0.0486  0.1949  0.0783
 7683W        W23300  10.805   6.862  17.194  0.1288 -0.0827 -0.1699
 7684W        W23301   6.725   7.099   1.413  0.4672 -0.0432 -0.0976
 7685W        W23302   5.562   5.136  15.450  0.0513  0.0206 -0.1626
 7686W        W23303   4.198   9.314   6.120  0.0632  0.2541  0.0326
 7687W        W23304   7.898  16.587  10.745 -0.1718 -0.0281  0.0776
 7688W        W23305  15.629   3.485  15.197  0.0656  0.1715  0.4021
 7689W        W23306  14.038  10.226  15.018 -0.1428 -0.1625  0.0196
 7690W        W23307   1.511   1.359  17.114  0.1322  0.0609  0.3121
 7691W        W23308   4.191   4.490   5.306  0.0243  0.1977  0.0929
 7692W        W23309   2.524   7.835   1.192  0.1053  0.3219 -0.2733
 7693W        W23310  12.043  11.825   3.548  0.0415 -0.2228  0.0168
 7694W        W23311  12.315  14.939  12.694  0.2163  0.0343 -0.1289
 7695W        W23312   2.647   9.045   4.653 -0.0934 -0.0221  0.2507
 7696W        W23313  17.501  13.179  16.095  0.2540  0.0227 -0.1918
 7697W        W23314  10.337   5.877   4.962  0.0215 -0.1341 -0.0987
 7698W        W23315  13.893   5.361   5.546  0.0329  0.3969  0.1386
 7699W        W23316  10.639   8.523  13.733  0.4207 -0.2981  0.0604
 7700W        W23317   7.279   1.811  15.175 -0.0503  0.0927  0.0319
 7701W        W23318   4.484   8.275   5.338 -0.1288 -0.2859 -0.0141
 7702W        W23319   3.250  15.301   2.528  0.2103  0.0892 -0.0254
 7703W        W23320   6.528  16.350   0.983 -0.1389 -0.0328 -0.0911
 7704W        W23321   2.644   8.050  13.435  0.2190  0.1857  0.3394
 7705W        W23322   7.547  10.354  12.697 -0.1589  0.0124  0.0239
 7706W        W23323   6.994   0.133  11.567 -0.0911  0.0323 -0.2052
 7707W        W23324   4.886  13.224  14.503 -0.0603  0.2932  0.0118
 7708W        W23325   7.292  16.442  12.004 -0.2614  0.0264 -0.1489
 7709W        W23326   1.770  11.364  16.582 -0.2195  0.2281 -0.0442
 7710W        W23327   6.754  15.838   1.966  0.0561  0.2612  0.0972
 7711W        W23328  10.385   9.109  15.784 -0.0890 -0.1032 -0.0158
 7712W        W23329   8.681  10.670   5.383  0.0266 -0.0697 -0.3787
 7713W        W23330   6.788  12.281   4.034 -0.2874  0.2241 -0.0223
 7714W        W23331   4.224  12.627  15.065  0.1595 -0.1943 -0.0983
 7715W        W23332  10.618   4.421  13.683 -0.0737  0.0001  0.0013
 7716W        W23333  10.512  11.957   3.185 -0.3647 -0.0211  0.0580
 7717W        W23334  10.327   2.485   1.710 -0.0472  0.0215 -0.0201
 7718W        W23335   5.384  14.999  16.500 -0.0903 -0.1150  0.1940
 7719W        W23336  11.301   9.153  14.809 -0.1736 -0.0934 -0.1360
 7720W        W23337  16.362  16.184  14.563  0.3419 -0.1605 -0.1086
 7721W        W23338   5.568  16.788  15.983  0.1921 -0.0480  0.0100
 7722W        W23339   4.940   8.876  12.457 -0.2747  0.0402 -0.0195
 7723W        W23340  14.635  16.850  16.396  0.0317 -0.4369 -0.3430
 7724W        W23341   8.998   1.202   0.738  0.0580  0.1848  0.1677
 7725W        W23342   5.633   9.507   5.957  0.0150 -0.3005 -0.1662
 7726W        W23343   6.654   0.087   3.218 -0.0726 -0.3714  0.2769
 7727W        W23344  13.385   2.779   1.589 -0.1765 -0.1583  0.1683
 7728W        W23345   9.223  15.392   1.487 -0.1509  0.0483 -0.4808
 7729W        W23346  10.575   4.198  13.149  0.1476  0.1631  0.0958
 7730W        W23347   6.919   6.025  14.569  0.3401 -0.1319  0.2280
 7731W        W23348   0.287   5.146   0.664  0.2435  0.0782  0.1218
 7732W        W23349   5.767   2.766  15.049  0.4162 -0.3821  0.0167
 7733W        W23350  11.833   6.219   4.214 -0.1497 -0.1534  0.0503
 7734W        W23351   1.088  16.098  12.779  0.0139  0.0465  0.1529
 7735W        W23352  16.023   6.517   5.738 -0.0561 -0.2521 -0.0011
 7736W        W23353  10.806  11.572   2.761  0.1669  0.0347  0.1717
 7737W        W23354   7.290  11.514  15.898  0.6089  0.0843  0.0224
 7738W        W23355  17.162   8.243  13.144  0.2271  0.2044  0.0321
 7739W        W23356   7.872  17.579   4.869 -0.0979 -0.2714  0.0416
 7740W        W23357  12.041   5.388  16.737 -0.0408  0.3386  0.2006
 7741W        W23358   2.761   2.708   4.823 -0.1904  0.2451 -0.1804
 7742W        W23359  17.379  15.805   5.138  0.4025  0.0623  0.0681
 7743W        W23360   8.036  15.981   1.501  0.0822 -0.0354 -0.0326
 7744W        W23361   8.229   8.141   2.930 -0.0107  0.3294  0.1034
 7745W        W23362   6.403   9.262   2.327 -0.2961  0.1323  0.2819
 7746W        W23363   5.072   5.790   5.374  0.2043  0.0445  0.0299
 7747W        W23364   7.846  17.542  17.153 -0.0678 -0.0258  0.1118
 7748W        W23365   5.072   7.484  15.645 -0.0862 -0.0056  0.0848
 7749W        W23366   7.839  12.184   4.660  0.0892 -0.0862  0.1616
 7750W        W23367  15.029  14.704  13.687  0.1139 -0.2412  0.2991
 7751W        W23368  11.899   9.154   5.935  0.2093  0.0094 -0.0193
 7752W        W23369  14.747  10.779   1.326  0.1816 -0.1872 -0.1386
 7753W        W23370   7.566   4.589   0.990 -0.0565 -0.0365 -0.2667
 7754W        W23371   1.497  15.152  13.466 -0.1563  0.1945 -0.0727
 7755W        W23372  16.178   1.242   4.364 -0.2772 -0.1595  0.1130
 7756W        W23373  11.366   2.558   0.902 -0.1306  0.2959 -0.5851
 7757W        W23374  11.745   3.505  13.088 -0.2664 -0.0997 -0.1990
 7758W        W23375  11.608  10.946   0.204 -0.0166 -0.0788 -0.0796
 7759W        W23376  16.604   3.537   3.743  0.0104  0.1489 -0.0589
 7760W        W23377   1.529   6.865   3.515  0.0730 -0.0146  0.0273
 7761W        W23378   5.487  10.697   5.253  0.1738 -0.3816  0.0948
 7762W        W23379  10.823  13.557  11.146 -0.0246 -0.0317  0.1989
 7763W        W23380   8.798  13.425  11.432 -0.1519 -0.1998 -0.2907
 7764W        W23381  17.184  16.573   5.605  0.2527 -0.1490 -0.0402
 7765W        W23382  14.401   2.578  13.744  0.0921 -0.0150  0.0243
 7766W        W23383   2.895   5.892   3.094 -0.1350 -0.4336  0.0573
 7767W        W23384  14.575   8.075  15.716  0.1720 -0.0378 -0.0778
 7768W        W23385   3.654   5.236   4.552 -0.3568  0.0838  0.1834
 7769W        W23386  12.464  16.224   0.483  0.2066 -0.2086  0.1307
 7770W        W23387   4.705   0.017  16.233  0.0186 -0.0341 -0.0425
 7771W        W23388  13.722   5.887  14.613 -0.1511 -0.0324  0.0021
 7772W        W23389   2.322   7.277  13.937  0.2122 -0.2032  0.0208
 7773W        W23390  16.136  11.141   2.368  0.0633  0.3772 -0.1030
 7774W        W23391  13.587  16.802  13.311  0.0479  0.1905 -0.2823
 7775W        W23392  11.095  17.492  16.067  0.0933  0.2161 -0.1969
 7776W        W23393  15.776   4.488   2.330 -0.0237 -0.0798 -0.6525
 7777W        W23394   1.515   4.771   6.720 -0.2352  0.0513  0.2233
 7778W        W23395   9.857  14.321   0.993 -0.0790 -0.4359 -0.0731
 7779W        W23396   5.736  13.965   0.827 -0.0409 -0.3993  0.1354
 7780W        W23397  13.186  15.485   6.502 -0.0143 -0.0661 -0.3519
 7781W        W23398  16.821   9.355  12.191  0.2569  0.0297 -0.2327
 7782W        W23399  14.711   5.473   2.643  0.3497  0.0061  0.3338
 7783W        W23400  13.348   0.395  15.973  0.0305  0.1880  0.3359
 7784W        W23401  17.036   2.289  13.640 -0.2783 -0.1742  0.1140
 7785W        W23402  11.987   2.333   5.773 -0.1376  0.0930 -0.1950
 7786W        W23403   7.499   2.542  14.122  0.0148 -0.0514  0.3479
 7787W        W23404  12.601  14.055  15.640 -0.0309 -0.0230 -0.0089
 7788W        W23405   7.216  17.341  11.887  0.2493  0.3059  0.1528
 7789W        W23406  16.582  17.370   3.147  0.1767  0.0797 -0.1577
 7790W        W23407  14.794   2.045  12.939  0.1444  0.2879  0.0223
 7791W        W23408  15.274  13.358  16.461  0.4397 -0.1339  0.0416
 7792W        W23409   4.927  16.308   0.293  0.1858  0.2343 -0.1090
 7793W        W23410   8.502  15.147  12.699 -0.0828 -0.3858  0.4355
 7794W        W23411  17.092  11.080   4.157 -0.0487 -0.2751 -0.0159
 7795W        W23412   0.679   9.986  12.047 -0.0988  0.0308 -0.2180
 7796W        W23413  13.654  11.150   6.093  0.1719 -0.3697 -0.1202
 7797W        W23414  14.724  16.891   3.806 -0.0234 -0.3160  0.0585
 7798W        W23415  12.252  13.632   5.307 -0.0893  0.2002 -0.2107
 7799W        W23416   3.386  11.720   2.256  0.0232 -0.3633 -0.1550
 7800W        W23417   3.914  11.429   0.192  0.0621  0.4172 -0.1793
 7801W        W23418  16.852   9.600  17.181  0.3418 -0.1914  0.0544
 7802W        W23419   8.039  17.095   4.845  0.0021  0.1531 -0.0592
 7803W        W23420   2.174  15.637   3.259 -0.0079 -0.2931  0.0055
 7804W        W23421  12.129   9.776  12.611 -0.0470  0.1802 -0.0519
 7805W        W23422   7.968  14.548  14.328  0.1488  0.1001  0.0578
 7806W        W23423  12.294   4.029   4.896  0.0321 -0.1712 -0.1743
 7807W        W23424  12.047   9.447   3.692  0.0230  0.3015 -0.0761
 7808W        W23425  16.238  10.770   0.387  0.1050  0.1132 -0.0654
 7809W        W23426  13.504   5.181  17.095 -0.2842 -0.1104 -0.1624
 7810W        W23427  11.075  15.342  13.533  0.1405  0.0809  0.2111
 7811W        W23428   2.672   3.656   1.642  0.1455  0.0791 -0.2209
 7812W        W23429  13.164  12.955  13.498 -0.1299 -0.4049 -0.4002
 7813W        W23430   2.067  14.857   4.305 -0.0287 -0.1237 -0.2734
 7814W        W23431   8.225  10.787  12.401 -0.5346 -0.0111  0.0634
 7815W        W23432  15.145   0.446  16.706  0.1214 -0.3297  0.2841
 7816W        W23433   0.256  14.145   1.521 -0.0935 -0.0402 -0.0441
 7817W        W23434   4.870  16.924  14.570 -0.2632 -0.4401  0.0795
 7818W        W23435   7.072  12.634   2.812  0.2297  0.2174  0.1876
 7819W        W23436  17.091  14.844   0.263 -0.0901  0.2041  0.1504
 7820W        W23437   9.981   3.662  17.273  0.1839 -0.1188  0.2361
 7821W        W23438   3.998   9.353   6.906  0.0975 -0.0962 -0.3644
 7822W        W23439   2.376   4.362  13.112 -0.1690 -0.2346  0.0838
 7823W        W23440   7.843  13.014   4.226  0.0149 -0.0871 -0.1455
 7824W        W23441  13.295   5.922   5.009 -0.1296 -0.0578  0.1200
 7825W        W23442   4.088  14.849   2.624  0.0496 -0.0473  0.0422
 7826W        W23443   0.202   5.491  14.192 -0.0711  0.1001 -0.0281
 7827W        W23444   6.139  16.252   3.356  0.2413 -0.3305 -0.3466
 7828W        W23445   9.140  15.290   3.767 -0.0813 -0.1739 -0.0663
 7829W        W23446  16.568  10.507  12.927  0.0129 -0.0583 -0.2205
 7830W        W23447  13.577  16.662  12.441 -0.0312  0.0117  0.1892
 7831W        W23448  15.967  15.147   5.861 -0.2120  0.1830 -0.0256
 7832W        W23449  10.400  12.570   5.041 -0.0939 -0.0331  0.3513
 7833W        W23450  14.680   6.216   4.044  0.3982 -0.0639 -0.0470
 7834W        W23451   0.516   8.569  12.503  0.1481  0.0597  0.0977
 7835W        W23452   0.847  15.597  16.021  0.0336 -0.0836 -0.1736
 7836W        W23453  15.248  15.355   4.781 -0.2711  0.0134  0.0601
 7837W        W23454  16.673   2.148  14.843  0.0993  0.1955  0.1879
 7838W        W23455  17.029   8.283   5.354 -0.3188  0.0112 -0.1917
 7839W        W23456  17.254  11.474   0.723  0.1319  0.1345 -0.0372
 7840W        W23457  14.400   2.771  11.792  0.1716 -0.2859 -0.3235
 7841W        W23458   2.117   8.231  12.961 -0.2049 -0.3589 -0.0949
 7842W        W23459  13.331   3.459  14.660  0.1082 -0.2590 -0.0785
 7843W        W23460   2.323   0.245   3.914 -0.0138  0.1174 -0.1631
 7844W        W23461   7.150  15.561  11.951 -0.0639  0.2599 -0.0051
 7845W        W23462   9.831  16.639  12.034 -0.1377  0.2068  0.0242
 7846W        W23463  10.721   9.684   5.318 -0.2506  0.0452  0.1099
 7847W        W23464  16.397   9.036   4.723  0.1367 -0.1923  0.0778
 7848W        W23465   5.033   6.503   6.210  0.1790 -0.0026 -0.1029
 7849W        W23466  11.365   9.898  16.533  0.0244 -0.0110  0.2262
 7850W        W23467   2.390   3.825   6.387 -0.0796 -0.0018 -0.1588
 7851W        W23468   3.079   1.155  17.014  0.1837 -0.0127 -0.0288
 7852W        W23469   9.423   9.509   2.407 -0.0721  0.0720  0.0390
 7853W        W23470   5.686   5.886  16.896  0.0010  0.1249 -0.1521
 7854W        W23471   7.991   8.797   0.830  0.1932 -0.0870 -0.2221
 7855W        W23472   0.755  10.510   0.191  0.0162  0.3064 -0.1775
 7856W        W23473   3.797   3.160   2.020  0.0707  0.0494 -0.2230
 7857W        W23474  14.248   5.266   5.215  0.0697  0.0083 -0.2319
 7858W        W23475   0.527   0.633  17.222  0.1970 -0.0401  0.0105
 7859W        W23476   7.920  16.308  16.819  0.0135  0.0634 -0.0387
 7860W        W23477   1.776   4.638   3.264 -0.1326  0.0478 -0.2899
 7861W        W23478  14.552   1.136   2.531  0.1010  0.1860 -0.1138
 7862W        W23479   1.155   8.028   4.951  0.2741 -0.1193  0.0563
 7863W        W23480   2.857  14.711  14.035  0.0110 -0.3030  0.1313
 7864W        W23481  10.733   1.911  16.493  0.1494  0.3381 -0.0415
 7865W        W23482   0.744   7.209   6.034  0.0327  0.0728  0.0129
 7866W        W23483  17.188   2.004   2.911  0.1479  0.1727  0.1583
 7867W        W23484   9.662   5.988  16.911 -0.2817 -0.2924 -0.1359
 7868W        W23485   1.648  12.713  13.199 -0.1481  0.1716  0.1865
 7869W        W23486  16.896  10.907   1.045 -0.0359 -0.1820  0.0936
 7870W        W23487   9.347  12.882  14.863 -0.0016 -0.2141 -0.1767
 7871W        W23488  11.468   0.131  16.274 -0.1610  0.4940 -0.4285
 7872W        W23489  11.828   9.886   2.470  0.0566 -0.2776 -0.1735
 7873W        W23490   0.589  14.232  13.021 -0.2865  0.1873 -0.2791
 7874W        W23491   8.628   6.345  14.773  0.0520  0.0369  0.0531
 7875W        W23492  12.367  13.625  15.828  0.2339 -0.1856 -0.0872
 7876W        W23493   9.557  11.314   0.713 -0.0637  0.0437 -0.3403
 7877W        W23494  16.388   4.151  15.790  0.1901 -0.1356  0.1176
 7878W        W23495  16.586  16.549  15.705  0.1116  0.0323  0.0952
 7879W        W23496   5.496   9.025   4.571 -0.0628 -0.0758  0.0040
 7880W        W23497   5.985   0.411   0.006  0.4351  0.1063 -0.1264
 7881W        W23498  17.001   4.354  14.661 -0.0389  0.0588  0.1107
 7882W        W23499   9.734   8.358  13.982 -0.2051 -0.0446 -0.1091
 7883W        W23500  14.143  11.897  16.158  0.1084  0.3784 -0.1032
 7884W        W23501  13.825  16.444  14.106  0.4239  0.2165  0.1775
 7885W        W23502  10.294  16.864   0.024  0.2782  0.0784 -0.1095
 7886W        W23503  15.671   9.690  15.958 -0.3018  0.0832 -0.0501
 7887W        W23504  12.581  15.523  12.717  0.1372 -0.0496  0.0868
 7888W        W23505  11.102  12.775   0.365 -0.2010 -0.0105 -0.1696
 7889W        W23506   4.844   4.642   3.872 -0.4698  0.0644 -0.1536
 7890W        W23507  16.875   7.032  13.477  0.0658 -0.1273  0.0731
 7891W        W23508  15.583   9.223   5.323  0.2571 -0.0310 -0.2541
 7892W        W23509   1.280   8.650  12.613  0.0161  0.2902  0.0329
 7893W        W23510   7.186   4.262  15.529 -0.1528 -0.2121  0.2474
 7894W        W23511  17.361  16.671   6.095  0.1104  0.0172  0.0688
 7895W        W23512   2.426   0.414  13.347 -0.2161 -0.3249  0.2571
 7896W        W23513   4.303  13.879   1.689 -0.1644  0.0390  0.3873
 7897W        W23514   7.229  15.859  12.426  0.3035  0.2573  0.0291
 7898W        W23515  14.815  10.370   3.813 -0.2130 -0.1766 -0.1677
 7899W        W23516  10.784  10.720   5.103  0.4378  0.1950  0.0092
 7900W        W23517  14.315  13.733   4.757 -0.2828  0.0019  0.0900
 7901W        W23518  16.766   6.333   1.283 -0.2307 -0.0911 -0.0658
 7902W        W23519   9.287  13.975  16.870 -0.1137  0.0063  0.0023
 7903W        W23520   0.327   9.621   1.313  0.1001 -0.3364  0.1096
 7904W        W23521   9.832   5.320  15.220 -0.1040  0.3295  0.1071
 7905W        W23522   8.739  12.441  15.057 -0.1257 -0.0086 -0.1705
 7906W        W23523   2.542  12.739  12.805  0.0810 -0.1535  0.0829
 7907W        W23524   4.899  13.430  12.489 -0.0604  0.1530 -0.0211
 7908W        W23525  16.952  14.915  12.844 -0.2082  0.0861 -0.0638
 7909W        W23526  16.151   3.264  13.244  0.1207 -0.0441 -0.0976
 7910W        W23527   5.979  16.374  11.677  0.0022  0.1124  0.0913
 7911W        W23528   6.920   9.648   3.871 -0.0071  0.2655  0.1858
 7912W        W23529   6.750   5.061  16.878 -0.0011 -0.1029  0.0660
 7913W        W23530  12.212   0.279  13.150 -0.0577  0.2682 -0.0012
 7914W        W23531   3.606  14.904   2.739 -0.1703 -0.0527  0.0382
 7915W        W23532   3.407   9.056  13.400  0.0611  0.0220  0.0851
 7916W        W23533  15.292  15.328   4.239 -0.0360 -0.4864  0.2113
 7917W        W23534  10.428  13.121   1.148  0.0891  0.2525 -0.4603
 7918W        W23535   4.636   2.657   1.186 -0.1566 -0.2803 -0.1838
 7919W        W23536  15.510  12.327   0.546  0.0386 -0.3233  0.1962
 7920W        W23537  15.714   8.502  16.331 -0.2307 -0.0164 -0.0217
 7921W        W23538  10.410  17.557   3.991  0.0501  0.3340  0.1838
 7922W        W23539   7.918   8.792  16.538 -0.0708 -0.2329 -0.0503
 7923W        W23540   6.986  17.472  11.015  0.0264  0.2211 -0.1615
 7924W        W23541   9.889   8.749   0.357  0.2589  0.1950 -0.3016
 7925W        W23542  15.593  16.412  13.033 -0.2623  0.2159 -0.2065
 7926W        W23543   1.390   0.437   6.575  0.1208  0.0894 -0.2876
 7927W        W23544   1.290  10.137   1.767 -0.1392  0.3150 -0.3338
 7928W        W23545   4.608   0.098  16.751 -0.0234  0.0357  0.3076
 7929W        W23546   4.578   1.964   0.410 -0.1381 -0.0846  0.1427
 7930W        W23547   7.544   8.903   2.178  0.2547  0.0264  0.0413
 7931W        W23548  11.769   3.282  17.285 -0.2021  0.0769  0.1308
 7932W        W23549  10.372   2.909  17.275 -0.0183 -0.0170  0.0628
 7933W        W23550   9.643   9.777  16.057  0.0980 -0.2028  0.0619
 7934W        W23551  12.947  12.408  16.318  0.0570  0.0066 -0.2668
 7935W        W23552   6.200  10.139   3.651  0.0328  0.2626 -0.0601
 7936W        W23553  11.487   0.380  10.042  0.0048  0.0856 -0.1029
 7937W        W23554  11.408   2.939  14.374  0.2399 -0.0180 -0.1671
 7938W        W23555  15.321   9.249   6.032  0.0672  0.1741  0.0102
 7939W        W23556  10.237  17.342   0.374  0.2280 -0.0396  0.1575
 7940W        W23557  12.588   1.109  12.601  0.1944  0.0038 -0.1448
 7941W        W23558   0.634   0.267  15.161 -0.1620 -0.0845 -0.0045
 7942W        W23559  12.073  14.123  13.040  0.0492  0.2910  0.2480
 7943W        W23560   1.034   3.396   0.949 -0.0353 -0.1779 -0.0942
 7944W        W23561  11.436  17.562   1.691 -0.2644 -0.0401  0.2507
 7945W        W23562   8.712   7.173  14.727  0.0321  0.0933  0.0903
 7946W        W23563  16.891   8.240   4.856  0.0585  0.0352  0.2310
 7947W        W23564  12.308  14.439   5.795  0.1076  0.1615  0.0808
 7948W        W23565   0.419   3.491   2.711  0.1981 -0.0461 -0.1155
 7949W        W23566   8.912  10.733  14.880 -0.4175 -0.0967  0.0130
 7950W        W23567  15.291   5.709   4.867  0.0846 -0.4730 -0.1701
 7951W        W23568   0.918  16.156  16.139 -0.0978 -0.0424 -0.0687
 7952W        W23569  12.337   2.766   0.003 -0.0221  0.1544 -0.0502
 7953W        W23570   9.329   6.439  12.069 -0.0779 -0.0403  0.1764
 7954W        W23571   0.508  11.141  15.315  0.1349 -0.3189  0.0477
 7955W        W23572   7.128  13.508   4.532 -0.2130  0.3346  0.0336
 7956W        W23573   5.032   3.546  14.406 -0.0657 -0.0673 -0.0081
 7957W        W23574   3.964   9.934  13.580 -0.2072  0.2032 -0.1422
 7958W        W23575  11.674  10.858   6.057 -0.2051  0.2285  0.3180
 7959W        W23576   7.098   9.279   6.011 -0.0084  0.1549  0.1679
 7960W        W23577  15.698  16.975  13.652 -0.1914 -0.1017 -0.1923
 7961W        W23578   2.443  16.766   0.461 -0.0345  0.1434  0.0709
 7962W        W23579   3.700   8.329   3.799  0.0956 -0.1359 -0.2869
 7963W        W23580   4.720  15.693   2.608 -0.0287  0.1113 -0.0757
 7964W        W23581   3.568  12.074  13.414 -0.2720  0.2254  0.1232
 7965W        W23582  11.377  15.760   0.724 -0.2211 -0.0872  0.1281
 7966W        W23583  15.126  12.548  16.096  0.2010  0.0378 -0.2339
 7967W        W23584  17.408  13.040  13.806 -0.0977 -0.1992  0.0445
 7968W        W23585   5.572   9.020   5.103  0.3848 -0.0452  0.0518
 7969W        W23586   9.107  11.699  12.086  0.0446 -0.2602 -0.2362
 7970W        W23587  13.863  11.689  15.791 -0.4639 -0.1973 -0.0375
 7971W        W23588  12.037  16.573  16.434  0.1219  0.1734 -0.1346
 7972W        W23589   7.302  15.223  16.776  0.0325 -0.0684 -0.4996
 7973W        W23590   8.582   4.743  12.680  0.2226  0.2110 -0.2025
 7974W        W23591  14.838   8.245  14.348  0.2759 -0.1244  0.1644
 7975W        W23592   4.915   5.103  15.052 -0.2614 -0.1212 -0.0226
 7976W        W23593  16.640  14.622  16.804  0.3218 -0.1398  0.0784
 7977W        W23594  13.680   4.917   4.408  0.2112 -0.1570  0.1713
 7978W        W23595  14.116  14.205   6.237  0.1061  0.3242  0.1773
 7979W        W23596  12.176   7.578  14.312  0.1139  0.0950 -0.1029
 7980W        W23597  16.454   4.693  16.441  0.2583  0.0481 -0.1115
 7981W        W23598   7.980   7.616   4.007 -0.0653  0.0876 -0.1163
 7982W        W23599  15.645  10.233   2.081 -0.0242  0.0118 -0.1516
 7983W        W23600   9.573  12.392  15.005  0.0716 -0.2361  0.1244
 7984W        W23601   7.225  14.128   0.314 -0.0311  0.2250 -0.0864
 7985W        W23602   6.454   2.792   4.752 -0.0705  0.0982  0.1456
 7986W        W23603  14.063   7.913   0.139 -0.5376 -0.1914 -0.3368
 7987W        W23604   5.390   6.563   0.924 -0.0129 -0.0292 -0.0313
 7988W        W23605   0.436   1.895   1.902 -0.1193  0.0929 -0.3293
 7989W        W23606   3.083  10.338   0.615 -0.1252  0.1820 -0.1169
 7990W        W23607  14.336  14.335  15.505 -0.0582  0.5408  0.1343
 7991W        W23608  16.537   6.564  17.282  0.1231 -0.0245 -0.0806
 7992W        W23609   2.824  11.222   0.469 -0.1719  0.0782  0.3016
 7993W        W23610  14.218   1.057   0.663  0.0440 -0.0804  0.3617
 7994W        W23611   0.436  10.974   3.180 -0.1705  0.0261 -0.1322
 7995W        W23612  11.035  13.162  11.460 -0.1980 -0.2126 -0.1103
 7996W        W23613   4.470  17.346   1.980  0.2872 -0.2756  0.1246
 7997W        W23614  17.463  12.249   0.606 -0.1855  0.0589  0.1493
 7998W        W23615   1.221   3.910  12.514  0.1852 -0.0619  0.0505
 7999W        W23616   9.601  17.385  13.926 -0.0511 -0.1126  0.3937
 8000W        W23617   3.653  11.308   4.489  0.3733 -0.1445 -0.1599
 8001W        W23618  11.906  16.410  12.158 -0.2872  0.0958 -0.1635
 8002W        W23619  15.817   5.971  12.900 -0.0171  0.0951  0.1082
 8003W        W23620  14.973   2.488  13.235 -0.2601 -0.0513 -0.0107
 8004W        W23621   2.020   7.828   5.146 -0.0836  0.0060 -0.3389
 8005W        W23622   5.083   6.642  16.911 -0.2674 -0.0858  0.0835
 8006W        W23623   9.788   6.855  12.425 -0.0177 -0.0506  0.0349
 8007W        W23624   7.590   4.579  15.279 -0.0047 -0.0287  0.1778
 8008W        W23625   3.928  12.946   2.620  0.5032 -0.1580 -0.0908
 8009W        W23626  13.286  15.699   2.128 -0.1126 -0.0783  0.0310
 8010W        W23627  10.434   9.327  15.152 -0.0388 -0.0052  0.0243
 8011W        W23628  14.877   6.494   1.512 -0.0056  0.0991  0.0925
 8012W        W23629   7.088   4.839  14.128 -0.2700  0.0244 -0.1803
 8013W        W23630   2.231   9.011  12.116  0.0388 -0.2882  0.0645
 8014W        W23631   8.266   9.962  12.456  0.1369  0.0169  0.0520
 8015W        W23632  14.086   4.035  14.675 -0.1403  0.1143 -0.1925
 8016W        W23633   3.271   3.221   1.013  0.1257 -0.2344 -0.1090
 8017W        W23634  12.675  10.600   2.733  0.3106 -0.2988  0.0819
 8018W        W23635   2.800   3.788   0.749 -0.0032  0.1014 -0.1937
 8019W        W23636  15.492  13.128   1.991  0.0496  0.0038  0.0707
 8020W        W23637  10.414  12.768  14.703  0.0767  0.1350 -0.0802
 8021W        W23638   0.725   4.228  15.981 -0.0844  0.1071  0.1178
 8022W        W23639   7.111   2.604  16.650  0.0003  0.1139 -0.0348
 8023W        W23640  15.379  16.451   1.250  0.0717  0.2256  0.0546
 8024W        W23641   0.254   6.486  16.474  0.0219 -0.4868 -0.2529
 8025W        W23642   2.536  10.393   6.005 -0.1150 -0.0045  0.0284
 8026W        W23643  11.719  11.344   0.978 -0.2447  0.0930 -0.0114
 8027W        W23644   7.094   6.779   5.709  0.1875 -0.0390 -0.2966
 8028W        W23645  10.905  12.987   5.727  0.1983  0.2433  0.0706
 8029W        W23646   5.904   9.154  13.353 -0.1020 -0.0975  0.0769
 8030W        W23647  11.074   7.747   0.556 -0.1031 -0.2000 -0.0350
 8031W        W23648  15.244   2.495  16.365 -0.1765  0.3007 -0.0098
 8032W        W23649  10.044  13.572   1.393 -0.0950  0.1979  0.1895
 8033W        W23650   7.251  12.670   2.243 -0.0785  0.1513 -0.0152
 8034W        W23651   6.059   5.591   4.977 -0.3134 -0.0166 -0.2023
 8035W        W23652   8.152  10.033  15.455 -0.1659 -0.4002  0.2543
 8036W        W23653   1.706  12.334  12.880 -0.2276 -0.3034  0.1061
 8037W        W23654   0.412  10.074  15.272  0.0270  0.3375  0.0981
 8038W        W23655   3.253   2.260   3.106  0.2359  0.0690 -0.0835
 8039W        W23656  13.977  12.951  16.463 -0.1019 -0.2201  0.0031
 8040W        W23657  13.529  15.287  12.628  0.0113  0.4439  0.1300
 8041W        W23658   9.174   2.304   3.121  0.1250 -0.1101 -0.1278
 8042W        W23659   1.552  11.221   5.161  0.1721  0.2963  0.1956
 8043W        W23660  14.383  17.329   0.870  0.3269  0.1118 -0.0893
 8044W        W23661   2.093   5.895   0.282 -0.0306 -0.1751 -0.1185
 8045W        W23662   9.269   4.356  17.102 -0.1250 -0.1031  0.0590
 8046W        W23663  13.884  15.930  15.277 -0.1477 -0.0496 -0.0572
 8047W        W23664   6.202   9.167   3.528 -0.0450  0.3234  0.1623
 8048W        W23665   8.308   8.933  12.465 -0.2636 -0.2633  0.0772
 8049W        W23666  11.262  10.219  14.605 -0.1223 -0.0185 -0.4172
 8050W        W23667   0.276  14.873  15.917 -0.1616 -0.1012 -0.0250
 8051W        W23668  15.314  11.983   0.838  0.0409 -0.1001 -0.0696
 8052W        W23669   2.197  11.425   3.353  0.1028  0.1328 -0.3409
 8053W        W23670   0.154   4.772  17.038 -0.0196  0.1745 -0.0875
 8054W        W23671   4.525   8.981  12.227  0.3175 -0.3587 -0.2724
 8055W        W23672  12.977  11.547   0.190  0.2290 -0.0426  0.2949
 8056W        W23673   7.402  10.694  16.304  0.0312 -0.0843  0.3118
 8057W        W23674   7.336   8.638  12.472 -0.0177  0.0744 -0.5391
 8058W        W23675   1.021   6.608  14.589 -0.0332  0.0895  0.3243
 8059W        W23676  12.943   6.093  16.395  0.1582  0.0278 -0.0667
 8060W        W23677  15.683  10.465  14.414 -0.2287  0.1032  0.0578
 8061W        W23678  17.521   0.346  16.054  0.3718 -0.0032  0.0535
 8062W        W23679   1.997  13.756  11.996 -0.0867 -0.0207  0.0952
 8063W        W23680  12.902  11.544   2.344 -0.0285  0.1666 -0.1280
 8064W        W23681  12.613   6.909   4.826 -0.0508  0.1489  0.0429
 8065W        W23682   3.789   4.528  12.122 -0.0220 -0.1625  0.2449
 8066W        W23683  13.721  11.305  15.508 -0.0384 -0.1663 -0.1770
 8067W        W23684   4.871  14.351  13.464  0.0188 -0.2182  0.3045
 8068W        W23685   5.521  14.024   3.600  0.1767 -0.1526  0.1703
 8069W        W23686  10.430   2.175  12.408 -0.0695  0.1566  0.0067
 8070W        W23687  13.756  16.773   0.414  0.0265  0.0829 -0.0585
 8071W        W23688   2.127   4.314   6.241  0.1446 -0.0108  0.3071
 8072W        W23689  15.866   7.820  12.948  0.0647  0.0136  0.2073
 8073W        W23690  14.594   7.258  16.031  0.4136  0.2877 -0.0506
 8074W        W23691  14.393  12.371  12.237  0.2461 -0.0099  0.0969
 8075W        W23692   4.417  17.225   0.196 -0.0438  0.1153  0.0170
 8076W        W23693  14.670   9.930   3.642  0.1464 -0.1859 -0.1574
 8077W        W23694  11.368   2.341   4.304  0.3724  0.2897 -0.1082
 8078W        W23695   4.900  13.884   5.265  0.1103  0.1677 -0.3014
 8079W        W23696   5.420  16.463   4.741  0.0797 -0.1929 -0.2617
 8080W        W23697  17.116   4.913  17.236 -0.0241 -0.0780  0.0311
 8081W        W23698   2.318  16.735   2.868  0.1603 -0.0434  0.4846
 8082W        W23699   6.939   2.623   1.445  0.0094 -0.0134 -0.0231
 8083W        W23700   4.127  16.127  15.581 -0.1209  0.0003  0.0268
 8084W        W23701  16.689   0.710   2.283 -0.2026  0.0844 -0.0412
 8085W        W23702  16.645   8.044   5.505 -0.0291 -0.0432 -0.5468
 8086W        W23703  16.909   0.158   1.221  0.2042 -0.1526  0.1188
 8087W        W23704   1.370   4.366   3.467  0.1343  0.0937  0.2391
 8088W        W23705   6.507  14.041  12.402  0.0944  0.1389 -0.2703
 8089W        W23706  12.964   1.161   0.196 -0.3816  0.0965 -0.1618
 8090W        W23707   6.702   4.956   1.268  0.0361  0.1593 -0.0032
 8091W        W23708   8.809   4.137   4.227 -0.0715 -0.1734 -0.2218
 8092W        W23709  11.874  12.973  15.227  0.0989 -0.0045 -0.0479
 8093W        W23710  12.003   0.636  14.627  0.0738  0.1525 -0.0648
 8094W        W23711   3.845   7.680  13.197  0.1218 -0.0959  0.1618
 8095W        W23712  17.429   9.566   5.874 -0.0912  0.2623 -0.0210
 8096W        W23713   1.346  11.964   3.269 -0.1337 -0.1403 -0.2908
 8097W        W23714   3.582   1.383   5.384  0.1959  0.0508 -0.1089
 8098W        W23715   7.348  15.054   2.370 -0.0615  0.0920 -0.2968
 8099W        W23716  17.030   0.876   3.204 -0.1239  0.2764  0.0741
 8100W        W23717   7.602   1.316  11.940 -0.1421 -0.1266 -0.0192
 8101W        W23718  16.778  16.388  17.206  0.1239  0.0277  0.1333
 8102W        W23719   1.994   7.096  16.837 -0.0880 -0.2794 -0.1380
 8103W        W23720  16.822  16.609   0.395  0.2375 -0.2652 -0.1254
 8104W        W23721   4.212  12.425  12.313  0.0503 -0.0204 -0.0934
 8105W        W23722   2.918   3.480  16.830 -0.1488 -0.0571 -0.0331
 8106W        W23723   8.497   1.453   1.646 -0.2419 -0.0590 -0.0700
 8107W        W23724  14.890  17.007   0.739 -0.0613 -0.0912 -0.0614
 8108W        W23725   2.857   4.126   1.139  0.0044  0.1962  0.2159
 8109W        W23726  11.150  16.260  11.849  0.1064  0.0057 -0.3214
 8110W        W23727   6.563   4.993  15.071 -0.2791 -0.2130 -0.2694
 8111W        W23728   2.736  16.673  11.932 -0.2226  0.2007 -0.2433
 8112W        W23729   6.062  12.807  16.001 -0.2286 -0.1590  0.1068
 8113W        W23730  17.138   0.620   1.979  0.2700 -0.1050  0.0191
 8114W        W23731   2.797  11.002  15.440  0.1671  0.0556 -0.1618
 8115W        W23732  12.153  16.340  14.276  0.0222  0.0669 -0.1456
 8116W        W23733   2.161   1.581   0.362 -0.0321 -0.2533 -0.0757
 8117W        W23734   2.950   2.607  13.311 -0.2745  0.0869 -0.2757
 8118W        W23735  14.440  16.103   0.250 -0.0129 -0.0577 -0.1683
 8119W        W23736  17.259  12.183   3.199 -0.0479  0.0726 -0.0405
 8120W        W23737  14.417   0.664   2.891 -0.6683 -0.2274  0.0971
 8121W        W23738  17.025   2.096  15.789 -0.2144  0.0365  0.2035
 8122W        W23739   0.538   6.406  14.584 -0.2202 -0.0791  0.1219
 8123W        W23740  17.215  13.187  14.924 -0.1071 -0.0536  0.1341
 8124W        W23741   2.789  11.365   4.519 -0.0075 -0.2171  0.2991
 8125W        W23742  11.943   4.090  15.020 -0.0456 -0.3029  0.0938
 8126W        W23743  14.671   1.327   1.847 -0.2215 -0.0162 -0.2763
 8127W        W23744  17.168  14.948  14.246  0.3017 -0.2887  0.0646
 8128W        W23745   2.083   2.506  14.774  0.0853 -0.0418 -0.0811
 8129W        W23746   8.367  14.494   1.857  0.1627  0.1021  0.1602
 8130W        W23747   1.923  14.547  17.252 -0.2574 -0.0162  0.0532
 8131W        W23748  11.804   1.572   4.087  0.2856 -0.2341  0.1153
 8132W        W23749   6.769   9.555   2.512  0.0695  0.1508 -0.0099
 8133W        W23750  15.837  11.198   1.957  0.0096  0.1495  0.2683
 8134W        W23751   5.878   6.344   0.810  0.1232  0.2439  0.3089
 8135W        W23752   8.330   7.662   3.101  0.1903 -0.0703 -0.0672
 8136W        W23753   2.582  10.144  14.410 -0.0650  0.0420 -0.1441
 8137W        W23754  11.644   0.668  15.596 -0.1712  0.2275 -0.0629
 8138W        W23755  10.048   2.475  12.243 -0.0155  0.0055  0.2093
 8139W        W23756  12.215  10.949  15.419  0.0753 -0.3081 -0.1916
 8140W        W23757   4.229   1.254  13.730 -0.3431 -0.0364 -0.0219
 8141W        W23758   9.733   1.632  13.004  0.0132 -0.0373  0.0369
 8142W        W23759   1.969   1.044  15.171 -0.1593  0.1437  0.0885
 8143W        W23760   0.251   4.517   2.924 -0.0046 -0.0597  0.2243
 8144W        W23761   9.027  10.050   5.655  0.0939 -0.0432 -0.2442
 8145W        W23762  13.647   4.002   5.885  0.1728 -0.3312  0.0988
 8146W        W23763   8.547  11.015   2.006 -0.1794  0.0303  0.1981
 8147W        W23764   5.289   4.443  14.717  0.2867  0.1754  0.3418
 8148W        W23765  16.389  11.526   5.391 -0.1294  0.1073 -0.3102
 8149W        W23766   7.141   9.430  16.044 -0.0827  0.0890  0.0378
 8150W        W23767  14.985  13.951   6.395 -0.2168 -0.4865  0.0071
 8151W        W23768   4.901   7.288   2.062 -0.0724  0.3193 -0.2300
 8152W        W23769   6.030  14.528  14.945 -0.3881  0.1100  0.1664
 8153W        W23770   7.943   9.247  14.229  0.2611  0.2416 -0.0602
 8154W        W23771  12.574  12.999   4.895  0.0008 -0.3829 -0.0041
 8155W        W23772  14.883   4.023   5.505 -0.1614 -0.0092 -0.0229
 8156W        W23773  10.079  17.451   4.985  0.0398  0.1638 -0.0562
 8157W        W23774   2.336   8.842   0.707  0.0987 -0.2391 -0.0260
 8158W        W23775  10.699  12.110   5.228 -0.1828 -0.0916  0.0759
 8159W        W23776   0.606   3.381  17.004  0.0141  0.0410 -0.0513
 8160W        W23777  16.466   5.723   4.262 -0.1365  0.1027 -0.0641
 8161W        W23778   3.389  10.712   2.338  0.3413 -0.1274  0.0151
 8162W        W23779   4.639  12.288   5.356  0.1280  0.3681  0.1087
 8163W        W23780  17.041  16.838  12.305  0.1908 -0.0487 -0.4449
 8164W        W23781   7.895  13.388  16.336  0.2771 -0.4368  0.2526
 8165W        W23782  10.132  10.541   5.769  0.0590 -0.0301 -0.0634
 8166W        W23783  13.091   7.715   1.774 -0.0200 -0.0361 -0.0968
 8167W        W23784   4.709  13.562   2.998  0.0181  0.0962 -0.0036
 8168W        W23785  11.566   5.717   5.743 -0.1085  0.0451  0.3522
 8169W        W23786  16.715   0.862   0.926 -0.2137  0.2838 -0.0594
 8170W        W23787   5.252  17.015   5.494 -0.1324 -0.1129 -0.1655
 8171W        W23788   8.917  10.042  16.379 -0.1135  0.0033 -0.2140
 8172W        W23789  17.358   0.113  14.741  0.0267  0.0625  0.2780
 8173W        W23790  11.976   0.563   1.119  0.3579 -0.1841  0.0924
 8174W        W23791   3.718   7.546   5.129 -0.2379 -0.1881  0.2201
 8175W        W23792  16.112   8.679   2.731 -0.0230  0.2034 -0.0453
 8176W        W23793  11.704  16.324  15.177  0.1264 -0.0063 -0.0751
 8177W        W23794  15.277  10.052   5.581 -0.2824 -0.2942  0.1153
 8178W        W23795   4.454   2.435   1.949  0.1140 -0.0129 -0.2207
 8179W        W23796   5.820   0.434  11.801 -0.2097  0.3055  0.0359
 8180W        W23797  13.975  17.294  15.825  0.2868 -0.3252  0.1475
 8181W        W23798  10.982   7.002   3.523  0.1939  0.0608  0.2480
 8182W        W23799   6.192   3.361  12.610  0.4473 -0.3510 -0.0142
 8183W        W23800  17.545  11.963   4.981 -0.0137 -0.2231 -0.0442
 8184W        W23801  11.604  15.741   1.717  0.2202 -0.0617 -0.0101
 8185W        W23802   5.560  14.225   5.774  0.0345 -0.0663  0.1323
 8186W        W23803  16.298   4.596   2.294 -0.0431 -0.5030 -0.3232
 8187W        W23804   4.376  15.556   5.690 -0.2074  0.0248  0.2152
 8188W        W23805   8.978   0.843  12.317  0.2188  0.0513 -0.0283
 8189W        W23806   9.284  12.498  11.391  0.1744 -0.0571  0.0676
 8190W        W23807  15.613  13.292   5.978 -0.0884  0.1660 -0.0748
 8191W        W23808   0.339  12.728  12.964  0.1884  0.0173 -0.1084
 8192W        W23809   6.900  10.528  12.010  0.0960  0.5176  0.1081
 8193W        W23810  10.712   7.611  15.773  0.0780 -0.0348 -0.3058
 8194W        W23811   3.083  11.320   2.535 -0.1874  0.0339 -0.0244
 8195W        W23812   5.628  13.826  17.243  0.1085  0.2170  0.4732
 8196W        W23813   1.823   0.881  16.497 -0.1503  0.1822 -0.0860
 8197W        W23814   1.688  15.705   1.251  0.2345  0.0631 -0.2242
 8198W        W23815   6.383   8.118   0.939 -0.1657 -0.0678  0.1241
 8199W        W23816   4.793   2.163   4.005  0.0261  0.1613  0.1815
 8200W        W23817  15.440  16.117  13.694  0.0368  0.0399  0.2643
 8201W        W23818  15.531   9.376  17.262 -0.0317 -0.1180 -0.1928
 8202W        W23819   6.845   3.082  16.312 -0.1234 -0.2592  0.2818
 8203W        W23820  10.790   1.858  15.268 -0.4033  0.1115 -0.1282
 8204W        W23821   9.909   2.785  14.847  0.0116 -0.0559  0.2413
 8205W        W23822   2.178   8.883  13.533 -0.0179 -0.1040 -0.2149
 8206W        W23823   2.026  14.897   2.483 -0.0416 -0.2128 -0.1499
 8207W        W23824  10.493  16.247  15.946 -0.0483 -0.1145  0.3803
 8208W        W23825  13.316  11.055  16.548 -0.1438  0.1347  0.0822
 8209W        W23826  15.561   2.258   0.699 -0.2277  0.1498 -0.1450
 8210W        W23827   0.197   4.757  15.781 -0.0816 -0.5841 -0.1431
 8211W        W23828   3.773   8.491  12.882 -0.2370  0.1307 -0.0205
 8212W        W23829   4.649  15.487  15.829  0.0015  0.0253 -0.1192
 8213W        W23830  14.170  12.153  15.227  0.1595  0.2212  0.0259
 8214W        W23831   0.317   1.128   4.361  0.3513 -0.0566 -0.1045
 8215W        W23832  14.689   5.583   2.134 -0.1072  0.2752  0.0272
 8216W        W23833  14.212  13.168   1.742 -0.1674 -0.2124 -0.2101
 8217W        W23834  11.040  12.123   1.829 -0.4551  0.0522  0.0036
 8218W        W23835   9.512   4.218  16.682  0.2870  0.1218 -0.1266
 8219W        W23836   8.862  16.416  10.722  0.0338  0.3119 -0.1160
 8220W        W23837  14.053  13.488   0.816  0.2329  0.0247 -0.0453
 8221W        W23838  11.318   1.032  13.748 -0.0259 -0.1023  0.1438
 8222W        W23839  12.719  13.920   5.056  0.1221  0.1447 -0.2055
 8223W        W23840   1.109  12.741   6.173 -0.3368  0.0704  0.0823
 8224W        W23841   5.998   8.857   1.361  0.0704 -0.0196 -0.1199
 8225W        W23842   1.731   1.449   5.506 -0.1209 -0.0446  0.1341
 8226W        W23843   9.747   7.734  12.234  0.0271 -0.1164  0.0939
 8227W        W23844   7.458  16.896  11.835  0.0648 -0.0797 -0.1008
 8228W        W23845   1.267   1.708   0.420 -0.1567  0.1004 -0.0456
 8229W        W23846   7.940  10.147   4.280 -0.0800 -0.0936 -0.0658
 8230W        W23847  13.763  13.729  12.350  0.2099 -0.1638  0.4527
 8231W        W23848  13.870   1.151  16.223 -0.0295  0.1890  0.1415
 8232W        W23849   2.423   8.273  16.363  0.0167  0.2110  0.0137
 8233W        W23850   1.705   6.311  14.990  0.0848  0.0230  0.1152
 8234W        W23851  16.616  14.086  16.569  0.1193  0.3808 -0.0568
 8235W        W23852  10.404   8.161  13.982 -0.1563 -0.0633  0.0072
 8236W        W23853   1.816   1.195   0.746 -0.1173  0.4175  0.1011
 8237W        W23854   5.082   8.300   3.098 -0.1323 -0.0995 -0.1782
 8238W        W23855  13.333   5.763   2.849  0.0442  0.0525 -0.1398
 8239W        W23856   8.844   7.728  17.287  0.0381 -0.0327 -0.2014
 8240W        W23857  15.634   2.603  12.918  0.0393 -0.1074 -0.2216
 8241W        W23858   2.314  10.268  16.906  0.3167  0.3353 -0.1225
 8242W        W23859   2.763   1.606  14.680  0.1127  0.0763  0.0877
 8243W        W23860  11.716   7.435   2.131 -0.0626  0.1588 -0.0918
 8244W        W23861   6.656   1.737  14.799 -0.0848 -0.0292  0.1307
 8245W        W23862   1.619  14.508  14.748  0.0450 -0.0354 -0.1565
 8246W        W23863  16.622  15.200  16.704 -0.1543  0.2583  0.1445
 8247W        W23864   8.689  16.811  12.266 -0.0932 -0.1270  0.0189
 8248W        W23865  11.891   0.032   0.450 -0.0899 -0.0160  0.1175
 8249W        W23866   2.158   1.169  16.113  0.0360  0.0100  0.3343
 8250W        W23867   4.624  12.559   3.772  0.4013  0.3490 -0.0862
 8251W        W23868   0.784   8.964  14.625  0.0349  0.1742  0.1117
 8252W        W23869  14.025  12.802  15.985 -0.2422 -0.1542  0.3122
 8253W        W23870   7.595  14.315  12.256  0.0651  0.0553 -0.2444
 8254W        W23871   4.644   1.811  14.987  0.0203  0.0234  0.2028
 8255W        W23872  12.200   8.498  15.329 -0.1466  0.3490 -0.0195
 8256W        W23873  12.550   9.545   3.713  0.1376  0.1342 -0.0820
 8257W        W23874  14.649   7.765  14.062 -0.1625  0.0520 -0.0652
 8258W        W23875   8.293   4.045   4.157  0.1381 -0.0252  0.0590
 8259W        W23876   9.781   1.213   3.472  0.0724  0.0525 -0.1500
 8260W        W23877   2.385  12.215   5.545 -0.0316  0.0372 -0.0815
 8261W        W23878   4.885  13.454  16.652  0.0541  0.1709  0.0054
 8262W        W23879  11.246  14.127   0.435 -0.4580 -0.2378 -0.0634
 8263W        W23880   3.922  10.308   3.097  0.2013 -0.2693  0.0597
 8264W        W23881   8.722   7.935   4.147 -0.3070 -0.0061  0.0069
 8265W        W23882   1.068   9.617  14.222  0.0087  0.0509 -0.1733
 8266W        W23883  11.168  10.767  13.002 -0.2713 -0.2910 -0.1749
 8267W        W23884  13.239   3.251   0.667  0.1385 -0.1010 -0.0009
 8268W        W23885  11.082   1.588  15.614  0.1051  0.0342 -0.0888
 8269W        W23886   3.681   7.609   1.168  0.0703  0.1327  0.0003
 8270W        W23887   9.834   4.755   2.027  0.0117  0.0216 -0.2375
 8271W        W23888   8.141  17.277  15.954 -0.0305 -0.2323  0.1376
 8272W        W23889   0.049   0.673  13.295 -0.0411 -0.2875  0.0891
 8273W        W23890   4.413  11.615  12.570  0.0649 -0.1547  0.0202
 8274W        W23891  13.421  11.901   3.710 -0.1320  0.0364  0.0452
 8275W        W23892  16.725   7.645  15.523 -0.0456  0.1091 -0.3546
 8276W        W23893   2.429  12.349  16.405  0.2178 -0.0156 -0.1630
 8277W        W23894   4.767  13.116   2.787  0.0983  0.0645 -0.2708
 8278W        W23895  15.824   7.100   0.390 -0.0018  0.2690  0.0667
 8279W        W23896   0.965   3.873  16.261  0.0736 -0.1585  0.4213
 8280W        W23897   0.212   7.232  15.739  0.3206 -0.1242  0.1798
 8281W        W23898  14.841  13.171  12.242  0.0590  0.2315  0.0779
 8282W        W23899   4.177   9.568   4.227 -0.1467  0.5391  0.0824
 8283W        W23900   5.900  10.164  16.232  0.1254 -0.0257 -0.3996
 8284W        W23901   1.719   3.878   5.847 -0.0697 -0.0082 -0.0218
 8285W        W23902   0.619   3.826   0.938 -0.0202  0.0671  0.2847
 8286W        W23903  10.532  13.563  14.158  0.0783  0.0031  0.1332
 8287W        W23904   1.398   6.707   5.267  0.2797  0.2107 -0.0299
 8288W        W23905  16.526  17.249  14.660 -0.1847  0.1052  0.3005
 8289W        W23906   7.742  15.367  12.094 -0.0544  0.0956  0.1868
 8290W        W23907  10.275   5.449   3.678  0.0890  0.0369 -0.3326
 8291W        W23908   0.794   7.469  15.674 -0.0889 -0.1351 -0.2508
 8292W        W23909  15.942  16.549  14.541  0.1436 -0.0859  0.0852
 8293W        W23910  13.784   9.770  14.264  0.0489  0.0178  0.2332
 8294W        W23911  12.792  16.154  12.295 -0.1112  0.1988 -0.1325
 8295W        W23912  11.959  14.486  15.336 -0.2034 -0.1883  0.1064
 8296W        W23913   5.926  17.374  14.669 -0.2027  0.5152 -0.1021
 8297W        W23914  12.878  11.593   1.562  0.0178 -0.4956  0.2163
 8298W        W23915  10.000  13.236  14.571  0.1042 -0.0821  0.2925
 8299W        W23916  16.775   7.722   2.671  0.2335 -0.2971  0.3017
 8300W        W23917   6.296  11.222   6.611 -0.0370 -0.0506  0.0830
 8301W        W23918  13.729   6.206   5.537  0.0965  0.0549  0.1064
 8302W        W23919  16.312   5.176   1.286  0.2664 -0.3195  0.1240
 8303W        W23920  15.040  15.791  15.261  0.0227 -0.0038 -0.1196
 8304W        W23921  11.891   1.004  12.004 -0.1962 -0.4533 -0.0189
 8305W        W23922  12.186   6.767   5.044  0.1283 -0.1320  0.1747
 8306W        W23923  15.522   6.984  12.045  0.1128 -0.0909  0.2249
 8307W        W23924   2.925  12.203  14.514  0.1195 -0.0918 -0.3064
 8308W        W23925  14.614  16.380   2.736 -0.2903 -0.4122  0.1751
 8309W        W23926  15.712  15.929   5.494  0.0103  0.0434 -0.0994
 8310W        W23927  14.884  10.402   4.553 -0.0285  0.1355 -0.2428
 8311W        W23928  16.119  10.811  16.773  0.2057  0.1783  0.0366
 8312W        W23929   8.318   4.639   5.950  0.0448  0.0877  0.0351
 8313W        W23930   0.415   7.406   0.767  0.0350  0.1033 -0.2599
 8314W        W23931   7.576   2.073   0.072 -0.1823  0.0067  0.2597
 8315W        W23932   7.229  13.058   4.853 -0.0516 -0.0847 -0.1202
 8316W        W23933  17.260  11.084  13.216  0.3122  0.1520  0.2469
 8317W        W23934   4.116   6.492   2.850  0.2488 -0.0154 -0.1607
 8318W        W23935   2.829  12.714  14.186  0.1729 -0.4168 -0.0176
 8319W        W23936   2.461   2.239  13.863 -0.1567  0.0548 -0.0786
 8320W        W23937   9.756   7.697  13.376  0.0192 -0.3458 -0.0544
 8321W        W23938   5.549  12.174   6.036  0.0509 -0.1257  0.2158
 8322W        W23939   7.467   4.304   4.864 -0.0677 -0.0303 -0.1103
 8323W        W23940  11.233   7.290   4.032  0.0807  0.0973 -0.1574
 8324W        W23941   7.283  17.033  15.280  0.0809 -0.0900 -0.1937
 8325W        W23942   9.047  14.781   4.191 -0.2980 -0.0934 -0.0620
 8326W        W23943  14.156  16.375  15.826  0.1474  0.0380  0.0570
 8327W        W23944  12.443  14.846   1.443 -0.1747 -0.0299  0.1404
 8328W        W23945   6.737   5.455  15.044  0.0057  0.2948 -0.0573
 8329W        W23946   3.736   3.524  15.827 -0.0829  0.0632 -0.1100
 8330W        W23947  16.427   5.272  15.199 -0.1158  0.1476 -0.0599
 8331W        W23948   7.086   3.115   5.379 -0.0755 -0.0359 -0.0699
 8332W        W23949  10.430   5.867  14.709  0.4473 -0.0408  0.1760
 8333W        W23950   2.225   0.333  16.965  0.1385 -0.1866  0.1704
 8334W        W23951  12.538   8.678  15.748  0.1702  0.1487  0.2781
 8335W        W23952   8.227  16.421  11.070 -0.1960  0.0719  0.1084
 8336W        W23953   3.208  11.324   4.734  0.0906  0.0200 -0.2390
 8337W        W23954   8.211   6.044  13.639  0.0255  0.0359  0.0010
 8338W        W23955  11.719   7.473   3.917  0.0823  0.2615  0.3426
 8339W        W23956  15.720  11.859   3.958  0.2228  0.3405 -0.1827
 8340W        W23957   8.950   6.469  16.616  0.4009 -0.0491  0.2199
 8341W        W23958   9.047   5.072  14.263  0.1264  0.1683  0.3035
 8342W        W23959   5.579   4.524   0.425 -0.2221 -0.1198  0.0692
 8343W        W23960  13.862   0.729  17.231  0.3649 -0.2667  0.2116
 8344W        W23961  12.431  12.725  12.169 -0.5834 -0.0857 -0.2046
 8345W        W23962  13.513   1.770   3.174 -0.0669  0.3022 -0.1378
 8346W        W23963   4.417   9.630  14.224 -0.1914  0.1068 -0.1697
 8347W        W23964   7.469   4.339  16.649 -0.1314 -0.0609 -0.0323
 8348W        W23965   3.344   0.207   2.727  0.0009  0.0924  0.3259
 8349W        W23966   0.145  11.778   1.083  0.0657 -0.1542  0.0241
 8350W        W23967   4.901   7.416  13.439  0.1987  0.2137 -0.1335
 8351W        W23968   1.001   0.529  16.207 -0.0605 -0.3280 -0.0159
 8352W        W23969  15.622   0.096   0.663  0.0633  0.0781  0.0912
 8353W        W23970   7.759  10.973  17.101  0.1297 -0.0394 -0.1451
 8354W        W23971  11.352   7.752   1.994 -0.1190  0.3519  0.1928
 8355W        W23972   7.640   2.025  13.930  0.0627  0.1520 -0.0768
 8356W        W23973  15.452   1.991  16.164 -0.0481 -0.2710  0.0565
 8357W        W23974   2.786  13.017  13.701  0.0828 -0.1029 -0.2050
 8358W        W23975  12.810   2.754   5.480 -0.4275 -0.2471  0.1976
 8359W        W23976  14.091  13.711  12.740  0.0718  0.1953  0.1936
 8360W        W23977   0.873   7.249   4.662  0.1422 -0.0646 -0.0704
 8361W        W23978  16.318  17.022  12.921  0.0552 -0.0600 -0.0091
 8362W        W23979   0.041  13.107  15.186  0.5526  0.0557  0.2134
 8363W        W23980   0.736  14.529   6.101 -0.1572  0.2853 -0.1798
 8364W        W23981   0.429  10.751  14.296  0.1101 -0.1582 -0.1060
 8365W        W23982   9.567   4.766   2.526  0.0896 -0.0325 -0.3721
 8366W        W23983  11.784   4.147   1.033  0.1808  0.0564 -0.0651
 8367W        W23984  16.730   5.964  13.892 -0.0150 -0.1913 -0.2260
 8368W        W23985  14.165  11.815   1.598  0.0504 -0.0882 -0.3031
 8369W        W23986   7.294   6.309  15.795  0.1347  0.1062  0.0679
 8370W        W23987   6.654  12.557   3.633 -0.2182 -0.4128  0.0595
 8371W        W23988  14.877   8.595   0.900  0.1588  0.4141 -0.0670
 8372W        W23989   4.509  13.325   3.931  0.1499 -0.0587  0.2786
 8373W        W23990   2.964   9.945   2.532 -0.0305  0.0678 -0.2729
 8374W        W23991   3.113  10.221  14.561 -0.3666 -0.2010  0.3020
 8375W        W23992  13.293  11.526   2.037  0.0746  0.1334  0.0199
 8376W        W23993  10.389  14.407   3.150 -0.0531  0.1034  0.1241
 8377W        W23994   9.754   2.080   2.233  0.1008  0.1231 -0.3364
 8378W        W23995  12.983   7.215  16.836 -0.0132  0.1611 -0.0922
 8379W        W23996   4.449   6.898  14.142  0.0514  0.0962 -0.0073
 8380W        W23997   1.843  16.826   2.994 -0.0814 -0.0868  0.0233
 8381W        W23998   1.213  17.317  16.167 -0.2038  0.0881  0.0075
 8382W        W23999   9.563   7.351   0.895  0.2035 -0.1935 -0.2280
 8383W        W24000  12.946  10.158   6.534  0.1920  0.1424 -0.2325
 8384W        W24001  17.383   6.187   2.622 -0.4617  0.3328 -0.0856
 8385W        W24002  17.005   0.823  16.776 -0.1105 -0.0024  0.2617
 8386W        W24003   1.073   6.448  16.698  0.0222 -0.0536 -0.3363
 8387W        W24004  10.095  11.304  14.579 -0.1763 -0.0126  0.1808
 8388W        W24005   4.582   5.029   2.630  0.0563 -0.0355 -0.1394
 8389W        W24006  15.216   2.987   3.410  0.0297 -0.0990  0.0588
 8390W        W24007   3.033  17.398   3.470  0.0047 -0.1262  0.0737
 8391W        W24008   4.995   0.640   0.334  0.1312  0.3104  0.1525
 8392W        W24009   3.240   9.584   2.175 -0.1793 -0.0206 -0.2941
 8393W        W24010  14.183   9.292   1.475 -0.2499 -0.1804 -0.0072
 8394W        W24011   7.044   6.192   1.564  0.0347 -0.0812 -0.2749
 8395W        W24012   7.293  15.477  13.377  0.0789  0.1691  0.0996
 8396W        W24013  16.058   3.905  16.300 -0.1718  0.0985 -0.1217
 8397W        W24014   1.515   8.407  14.088  0.1188 -0.0146 -0.0914
 8398W        W24015  10.937  14.237   2.049  0.0211  0.0536  0.1073
 8399W        W24016  14.753  15.476   4.559  0.0567  0.0111  0.0155
 8400W        W24017  14.473  10.343   1.124  0.0635  0.0902 -0.0727
 8401W        W24018   3.636  14.440   3.372  0.0834  0.0234 -0.1667
 8402W        W24019  14.925  10.915  14.070  0.2956 -0.2914  0.0712
 8403W        W24020   9.795  12.166  12.408 -0.2205 -0.2952  0.1655
 8404W        W24021   5.229   4.351   3.009  0.1746  0.1452 -0.0178
 8405W        W24022   8.026  14.601   2.183 -0.0284  0.0943  0.0796
 8406W        W24023   0.836   7.024  16.510 -0.0801 -0.0974  0.0691
 8407W        W24024   9.328  15.549  15.577  0.0128 -0.0266 -0.0847
 8408W        W24025  16.797  17.502   2.528 -0.0300 -0.0355  0.0914
 8409W        W24026   2.002  11.519  14.427  0.0132 -0.3607 -0.0856
 8410W        W24027   9.132   9.727   1.479 -0.0621 -0.0083  0.1680
 8411W        W24028  17.460  17.451   1.828  0.0806 -0.1869 -0.0753
 8412W        W24029   5.823  10.593  13.179  0.2560 -0.1422  0.1419
 8413W        W24030   0.017   8.801   3.392  0.1075  0.1416  0.1341
 8414W        W24031  16.271   2.636   0.502  0.1755 -0.1110  0.0476
 8415W        W24032  16.905  15.655  15.130 -0.0208  0.0659  0.1922
 8416W        W24033   8.671  14.182   0.779 -0.0544  0.0371 -0.3588
 8417W        W24034   8.117  12.940  16.121 -0.2251 -0.0661  0.0660
 8418W        W24035  15.952   8.973  14.975  0.1062 -0.1136  0.2467
 8419W        W24036   0.271   1.724  12.898  0.0593 -0.1380  0.0184
 8420W        W24037   9.973   3.581   1.899 -0.0925 -0.3286  0.1490
 8421W        W24038  17.089   2.711   4.120  0.3072  0.0826  0.3335
 8422W        W24039  15.046  13.910   3.464  0.0699 -0.2748 -0.0185
 8423W        W24040  12.606  15.321  15.873 -0.2639  0.0120 -0.2052
 8424W        W24041  13.754  14.316   6.570 -0.3641 -0.2710  0.0148
 8425W        W24042   7.051  15.175  14.587  0.1759  0.1717 -0.0146
 8426W        W24043  10.954  17.135  12.283  0.0654 -0.0655 -0.0395
 8427W        W24044  11.976   3.154  16.231 -0.1492  0.1204  0.1534
 8428W        W24045  12.490   2.516  11.735 -0.1538  0.1016  0.0183
 8429W        W24046  10.898  16.671   2.741 -0.3320 -0.0772  0.2080
 8430W        W24047   3.074  16.110  16.270 -0.0521 -0.5006 -0.1626
 8431W        W24048   6.655  11.411   5.559  0.0453 -0.0990 -0.1365
 8432W        W24049  17.529  13.368   1.369  0.1269  0.2469  0.1118
 8433W        W24050  11.379   5.889   5.350 -0.0356 -0.0018 -0.2554
 8434W        W24051   7.443  11.812  12.750  0.0003  0.0660 -0.1027
 8435W        W24052  11.431   1.284   4.502  0.0791  0.0381 -0.1861
 8436W        W24053   6.023  17.374   3.002 -0.0975  0.1024  0.1575
 8437W        W24054   8.008   2.909  15.780  0.2916 -0.1892  0.1756
 8438W        W24055  16.960  16.302  13.336 -0.0917  0.2509  0.0520
 8439W        W24056   7.388   0.461   1.233  0.0562  0.2689 -0.1199
 8440W        W24057  10.896  13.967  11.498  0.4324 -0.0157 -0.2019
 8441W        W24058  11.148  13.481   2.466  0.0521  0.0017 -0.1676
 8442W        W24059   9.849   5.311   0.354  0.2167 -0.1534 -0.0186
 8443W        W24060   0.501   3.259  14.561 -0.0972 -0.0643  0.1592
 8444W        W24061  13.870   0.110   6.011  0.0347  0.0387  0.1330
 8445W        W24062  15.813  11.300  13.133  0.0393 -0.1436 -0.0146
 8446W        W24063   5.406   7.636  14.774 -0.0862  0.1144 -0.0507
 8447W        W24064   3.214   0.150   1.068 -0.2168 -0.2431  0.0391
 8448W        W24065   6.037  16.350   2.888  0.0680 -0.0188  0.1032
 8449W        W24066   7.878  13.640   4.009  0.0776  0.2103  0.0700
 8450W        W24067   8.656  15.193  17.084  0.1510  0.0944  0.2051
 8451W        W24068  16.426   5.148  16.718 -0.0118  0.2325  0.0033
 8452W        W24069   2.289   3.109   0.184 -0.0764  0.2282  0.4275
 8453W        W24070   2.178   8.260  14.721  0.1972  0.1317 -0.1852
 8454W        W24071   8.709   5.451   4.074  0.2960  0.1934  0.0377
 8455W        W24072   5.395  15.468   4.239  0.2044 -0.2104  0.0722
 8456W        W24073   1.367  15.956   0.030  0.0570  0.0482  0.1447
 8457W        W24074   1.689  10.455  13.839  0.0122  0.0410  0.1757
 8458W        W24075  13.665  10.881   4.428 -0.2359 -0.3370  0.2743
 8459W        W24076  10.387  16.454  14.190 -0.0152 -0.1972  0.1141
 8460W        W24077  13.813   8.460   5.567 -0.0932 -0.0702  0.2089
 8461W        W24078  12.630   3.774   4.612  0.0736  0.0079  0.2321
 8462W        W24079   7.845  17.281  14.270  0.1204 -0.0584 -0.3651
 8463W        W24080   2.730   5.096   2.807  0.1441  0.0801 -0.1528
 8464W        W24081  11.465   1.483  13.946 -0.2136  0.2643  0.0500
 8465W        W24082  11.971   1.992   2.252 -0.0947  0.0086 -0.0030
 8466W        W24083   8.555   8.311   4.481 -0.1489 -0.0989 -0.1041
 8467W        W24084   4.537  11.829   6.233  0.0019  0.0262 -0.1430
 8468W        W24085  14.516   6.145   3.207  0.1890  0.1489  0.0670
 8469W        W24086   9.733   1.151  13.873 -0.0661 -0.0378  0.1721
 8470W        W24087   5.806   6.850  16.347 -0.1760 -0.0305 -0.2927
 8471W        W24088   1.455  14.775  12.829 -0.0201 -0.1866 -0.2472
 8472W        W24089   6.456   4.062  13.637  0.0708  0.0231 -0.2493
 8473W        W24090   6.688  11.749   1.385 -0.0079  0.0166 -0.2602
 8474W        W24091  16.648   7.603  12.904 -0.0526  0.0020  0.0339
 8475W        W24092   4.578   2.469   0.685  0.1378 -0.1907  0.1817
 8476W        W24093   9.661  16.241   3.475 -0.2141 -0.0170  0.0152
 8477W        W24094   1.861   0.054   5.887  0.5509  0.0494 -0.3472
 8478W        W24095   4.232  12.243   6.156 -0.2573  0.0809 -0.3212
 8479W        W24096  14.515  15.713  14.386  0.0917  0.1581  0.2460
 8480W        W24097   4.728  12.195  13.888  0.0652  0.0162 -0.2758
 8481W        W24098  14.504   5.774   3.672  0.1165 -0.0632  0.1557
 8482W        W24099  10.592  15.013   0.002  0.1545 -0.1702 -0.0528
 8483W        W24100   5.243   6.693  11.086 -0.0142 -0.1503 -0.0669
 8484W        W24101   3.304   7.100   4.992 -0.2023  0.0230 -0.1762
 8485W        W24102  14.143  14.219  13.624 -0.2855 -0.0789  0.1623
 8486W        W24103  13.716   1.864  12.687  0.1308 -0.4454 -0.1004
 8487W        W24104  11.615  10.332  12.039  0.0125 -0.0296  0.1170
 8488W        W24105  12.518   7.517  13.902  0.0888  0.1501 -0.2749
 8489W        W24106   2.457   0.090  12.994 -0.0133  0.2897 -0.0232
 8490W        W24107  16.839   3.320   5.714 -0.0092  0.4117  0.0119
 8491W        W24108   3.554   6.198   5.476 -0.1144  0.1277  0.0070
 8492W        W24109  15.732   6.000  15.038  0.1185 -0.1633  0.4718
 8493W        W24110   3.563  12.753  13.320  0.0816 -0.0346 -0.1521
 8494W        W24111  10.819  14.699   0.974  0.1503  0.1131 -0.3736
 8495W        W24112  11.983  13.595  13.213  0.1795 -0.0438  0.3723
 8496W        W24113   7.800   7.058   0.883  0.1065  0.0277 -0.1629
 8497W        W24114   8.728   8.939   6.401  0.1962  0.0403 -0.2454
 8498W        W24115   3.154   2.089  16.381  0.0119 -0.0237  0.0310
 8499W        W24116  14.762   3.221   5.889  0.1532  0.1004  0.1588
 8500W        W24117   3.540   9.235  11.065 -0.1139  0.4288  0.4385
 8501W        W24118  14.503   5.668  16.179  0.0168 -0.1382  0.0262
 8502W        W24119   9.406   3.919   4.162  0.0187  0.0464 -0.0082
 8503W        W24120  11.211  13.883   5.225  0.0552  0.1680 -0.2517
 8504W        W24121   6.073   6.013  12.694  0.0754  0.1155  0.1390
 8505W        W24122  14.655  11.779  15.262  0.0466  0.2713  0.1440
 8506W        W24123  16.260  11.158  14.879 -0.1683  0.0154  0.1332
 8507W        W24124   7.467  12.387  13.184  0.2265 -0.3323  0.0054
 8508W        W24125   3.589  16.564   1.398  0.1157 -0.1658  0.1699
 8509W        W24126   4.903   7.889   2.312 -0.2292  0.1648  0.1772
 8510W        W24127   1.105  14.311  16.082 -0.4282 -0.0606 -0.0999
 8511W        W24128   4.861   8.038   5.595  0.2326  0.0840 -0.0523
 8512W        W24129  13.100   8.871  13.721 -0.0731  0.2884  0.0219
 8513W        W24130   4.424  15.580   4.120  0.1816  0.3369 -0.1790
 8514W        W24131  16.377   2.017  14.352 -0.3057 -0.2147  0.0437
 8515W        W24132   8.254   7.014  12.209  0.1753  0.1094  0.0977
 8516W        W24133  14.212   8.742   4.766 -0.0183 -0.2090 -0.2089
 8517W        W24134   5.395  11.597  14.039 -0.0313  0.5218  0.1067
 8518W        W24135  16.559  12.326   5.714  0.1921  0.1326  0.0005
 8519W        W24136   2.614   1.064  16.216  0.0503 -0.2789 -0.0133
 8520W        W24137  13.976   4.330  15.438  0.2014  0.0725  0.0844
 8521W        W24138  14.215   7.414  16.352  0.3767 -0.0470  0.2288
 8522W        W24139   3.882  16.779  12.771  0.1758  0.1455  0.1017
 8523W        W24140   6.160   5.866   0.957  0.4762 -0.0896 -0.3097
 8524W        W24141  11.710   5.256   0.909  0.2643  0.1907  0.5621
 8525W        W24142   7.993   7.773   3.539  0.1444 -0.2206 -0.0381
 8526W        W24143  16.316   7.853   5.829 -0.0935 -0.0506 -0.0410
 8527W        W24144   4.278  17.248  16.479 -0.1091  0.3765  0.0588
 8528W        W24145  10.324  12.617   1.159 -0.2101 -0.2139 -0.1492
 8529W        W24146   9.417   6.933   5.009  0.1267  0.0154 -0.1274
 8530W        W24147   9.631  15.523  11.388 -0.1267 -0.0549  0.1502
 8531W        W24148   5.492  13.745  16.168  0.0761 -0.1423  0.3140
 8532W        W24149  14.610   1.712   0.647 -0.0437  0.3606  0.0864
 8533W        W24150   2.284  13.387   0.205 -0.3703  0.0435 -0.0608
 8534W        W24151  10.446   5.433   2.643 -0.0399  0.0909 -0.0855
 8535W        W24152   2.445   9.495  16.397 -0.3031 -0.0788 -0.1419
 8536W        W24153  10.701   7.242   4.025 -0.2853 -0.0258  0.3158
 8537W        W24154  14.270  15.656   3.678  0.0282  0.2820 -0.0231
 8538W        W24155  11.076   5.480   1.109  0.1985 -0.1228 -0.0210
 8539W        W24156  11.858   8.644  13.271 -0.0532 -0.0723  0.3362
 8540W        W24157  12.043  12.300   5.432  0.4650 -0.4631  0.0939
 8541W        W24158   2.892  15.090   1.325 -0.1182 -0.1301 -0.0798
 8542W        W24159  16.885   1.773  14.468  0.0154 -0.0558  0.1981
 8543W        W24160   9.520   1.658  15.793 -0.2260 -0.0573  0.1462
 8544W        W24161  11.764  13.042  17.257  0.1020 -0.2071 -0.0788
 8545W        W24162   9.692   5.815   1.367  0.0321  0.2153 -0.1838
 8546W        W24163   4.771  17.485   4.643  0.0018 -0.1381 -0.1595
 8547W        W24164  11.825   5.374  11.827 -0.1861  0.0352 -0.1238
 8548W        W24165   5.723   3.782  17.060 -0.2983 -0.0138  0.0445
 8549W        W24166   7.787  16.887  14.794  0.1411  0.0195 -0.0216
 8550W        W24167  17.593  11.333  15.401  0.1424 -0.0243 -0.3085
 8551W        W24168   5.360   7.641  12.866 -0.3158  0.2686 -0.0746
 8552W        W24169  12.721  12.812   5.337 -0.0001 -0.3392  0.0642
 8553W        W24170   7.081   7.724  11.857  0.0549 -0.0420  0.0605
 8554W        W24171   8.822   7.831   0.640 -0.0097  0.2026 -0.2048
 8555W        W24172  12.882   4.060  15.077 -0.0109 -0.0890  0.4248
 8556W        W24173   9.737   4.865  11.917 -0.0395 -0.0782  0.1455
 8557W        W24174  17.045  13.212   3.703  0.1332  0.2292  0.0554
 8558W        W24175   2.553   9.063  13.121 -0.4032 -0.1275  0.1320
 8559W        W24176  14.474   6.821   2.415  0.0374  0.3949  0.2957
 8560W        W24177  14.592   1.687  13.271  0.0545 -0.1049  0.1380
 8561W        W24178  13.480   3.636   4.452 -0.1079  0.3601 -0.0458
 8562W        W24179  15.478  10.476   0.072  0.1984 -0.4949 -0.0843
 8563W        W24180  10.279   5.315  16.585  0.3415 -0.2736  0.1497
 8564W        W24181  10.253  17.599   3.550  0.0185  0.2357  0.2906
 8565W        W24182   0.612   7.647  12.374  0.1751 -0.0729  0.2240
 8566W        W24183   5.596   1.816  16.825  0.2043  0.1313  0.0296
 8567W        W24184  17.378   2.185   4.359  0.0420  0.1642  0.0190
 8568W        W24185   1.170  16.740  16.813 -0.2956  0.0922  0.3085
 8569W        W24186   6.134   5.441  15.228 -0.0346 -0.1100  0.1338
 8570W        W24187  13.947   8.489   3.089  0.1178 -0.1631 -0.2047
 8571W        W24188   2.524  13.920   0.083  0.0625  0.0519 -0.3415
 8572W        W24189   1.656  12.417   1.546  0.2577 -0.0578  0.3190
 8573W        W24190   5.695  16.232   1.513 -0.2093  0.0463 -0.1004
 8574W        W24191   4.500  10.154   5.879 -0.1745 -0.0739  0.1255
 8575W        W24192   1.837   6.713  12.365  0.0225 -0.1495  0.1126
 8576W        W24193   1.877   5.142   4.143  0.1609 -0.3134 -0.2790
 8577W        W24194   9.224  16.611   1.235 -0.1572 -0.3510 -0.2808
 8578W        W24195   9.940  15.280   0.433 -0.1153  0.1431  0.4211
 8579W        W24196   2.257   5.272  16.673 -0.1451  0.1526 -0.1751
 8580W        W24197  10.298  16.636  16.852  0.1097  0.1402  0.2254
 8581W        W24198   3.602   7.273   0.041 -0.0447  0.0287  0.0637
 8582W        W24199   3.736  10.864   3.795  0.3636 -0.0749 -0.3251
 8583W        W24200   1.943   0.655   5.852  0.1359 -0.2349 -0.0117
 8584W        W24201  15.853   4.073  12.027  0.0996 -0.2664 -0.1378
 8585W        W24202  10.197   5.461  14.824  0.2587 -0.0189  0.0411
 8586W        W24203   4.239  16.026   2.053  0.1490 -0.0172 -0.2187
 8587W        W24204  16.968   0.637  12.058 -0.3933  0.0262  0.0702
 8588W        W24205   3.576  14.918  15.142 -0.5377 -0.0706 -0.0362
 8589W        W24206  14.569  12.431   0.620 -0.2600 -0.2344 -0.1873
 8590W        W24207  17.429   4.721   4.378  0.0102  0.1880 -0.0482
 8591W        W24208   6.771  17.077   4.024 -0.0713 -0.0067 -0.0354
 8592W        W24209   9.448   6.993   0.443  0.1372 -0.4279  0.0331
 8593W        W24210  16.771  13.116  16.895  0.4004  0.0662 -0.1051
 8594W        W24211   9.951   6.436  12.910 -0.0511 -0.2346  0.0899
 8595W        W24212   4.067  14.855   5.452  0.0103 -0.0466  0.0875
 8596W        W24213  11.901   5.526   2.851 -0.1225 -0.2315 -0.1240
 8597W        W24214   2.058   1.627   6.235  0.0314  0.0271 -0.4260
 8598W        W24215  13.347   0.034  13.694 -0.0553 -0.1737  0.0345
 8599W        W24216   2.165   2.914  13.830 -0.2343 -0.0253  0.0647
 8600W        W24217   5.838  14.157   5.358  0.0611  0.0731  0.0352
 8601W        W24218  13.676   0.503  15.635 -0.2827  0.0516 -0.1321
 8602W        W24219  10.277  16.573   3.643 -0.0354  0.0360  0.0509
 8603W        W24220   7.395   1.052  14.969 -0.0026  0.1446 -0.1063
 8604W        W24221  11.418  13.531  14.132  0.2307  0.1199 -0.0189
 8605W        W24222  12.744   7.102  13.200  0.0236 -0.0021 -0.1381
 8606W        W24223   8.648  12.016  13.514 -0.0212 -0.0525  0.0135
 8607W        W24224   5.343   9.834   5.546 -0.0935  0.1391 -0.2705
 8608W        W24225  13.599   7.884   3.678  0.2022 -0.2042 -0.1612
 8609W        W24226   2.934   2.094  14.673  0.1378  0.0395 -0.3500
 8610W        W24227  11.683   9.883  16.956  0.2303  0.0669 -0.0918
 8611W        W24228   1.942   6.186  16.814  0.4496 -0.0301 -0.1303
 8612W        W24229  16.727   4.408   6.601 -0.1135 -0.1290 -0.3201
 8613W        W24230  15.467   7.869   0.648 -0.1247  0.1505  0.1161
 8614W        W24231   1.482   3.654  13.746  0.2889 -0.2449 -0.0426
 8615W        W24232  15.052   3.895   0.829 -0.0381 -0.2289  0.4333
 8616W        W24233   7.830   1.828  16.851 -0.0781 -0.0482  0.0882
 8617W        W24234   4.908   5.319   1.023 -0.1942 -0.1249  0.1089
 8618W        W24235  12.098   7.703  13.722  0.1364  0.1751 -0.1016
 8619W        W24236  16.468  16.660  16.931 -0.0812 -0.1928  0.0480
 8620W        W24237  17.455   8.987   5.328  0.1598  0.0035 -0.1486
 8621W        W24238   0.152  13.365   3.804 -0.2757 -0.0515 -0.0893
 8622W        W24239   7.867   0.628  16.749  0.1076  0.4564  0.1341
 8623W        W24240  14.981   3.085   2.239 -0.0750 -0.0595 -0.0091
 8624W        W24241  12.054   8.244  13.854  0.1149  0.3455 -0.0001
 8625W        W24242   3.921   8.350   5.622 -0.1565 -0.1849 -0.3000
 8626W        W24243  11.450  13.754   4.828  0.1611 -0.1116 -0.2241
 8627W        W24244   3.944  11.730  12.776 -0.0941  0.2977 -0.0206
 8628W        W24245   5.149   9.351   1.645  0.1313  0.0469 -0.0664
 8629W        W24246   2.506  10.832   4.140  0.0172 -0.0006  0.0942
 8630W        W24247   3.323  11.680   3.306  0.3783 -0.0677 -0.1564
 8631W        W24248  17.224   1.662   1.008  0.4032  0.4564  0.2166
 8632W        W24249   8.552  13.912   3.612  0.0156 -0.1298  0.1600
 8633W        W24250   4.007   8.673   0.090  0.0521  0.2817 -0.1223
 8634W        W24251  17.585  15.076   1.162 -0.3977  0.0053 -0.1575
 8635W        W24252   3.804   1.870   1.838  0.1072  0.1522 -0.2115
 8636W        W24253   7.847  15.958  11.569 -0.0594 -0.1209 -0.0805
 8637W        W24254  13.570   0.739   2.024 -0.0456  0.0767 -0.1164
 8638W        W24255   6.772   8.006   2.640  0.0864  0.3417 -0.1969
 8639W        W24256  17.594  11.282   0.380  0.0314 -0.0141  0.0160
 8640W        W24257  12.597  16.834  17.000  0.1709  0.1607 -0.0408
 8641W        W24258   0.075   0.308   3.569  0.0262  0.3804  0.1079
 8642W        W24259   9.772   4.302   0.027  0.0828  0.3748 -0.0595
 8643W        W24260  11.012   5.151   3.615 -0.0282  0.1835 -0.2540
 8644W        W24261   8.597   4.530  16.161  0.0679 -0.1160 -0.0406
 8645W        W24262   2.144   3.932  12.154  0.1805 -0.0454 -0.4200
 8646W        W24263   3.855  11.737   3.468 -0.1378 -0.2168 -0.1807
 8647W        W24264   0.297   9.666   2.520  0.0238 -0.0111  0.3505
 8648W        W24265  11.071  12.664  13.496  0.1599  0.0542  0.0344
 8649W        W24266  15.124   4.508  16.338  0.0828 -0.1186  0.1870
 8650W        W24267  13.366  12.806  16.439  0.0073 -0.1948  0.3308
 8651W        W24268   2.233  13.280  11.994  0.1679 -0.0668  0.2213
 8652W        W24269   9.930  17.355   4.005  0.0056  0.1141  0.0239
 8653W        W24270  13.240   5.658  13.913 -0.0680 -0.3177 -0.0038
 8654W        W24271   8.207   5.073  13.694  0.1571 -0.0804  0.1624
 8655W        W24272  13.234  16.517  15.714 -0.0047  0.2344  0.2356
 8656W        W24273  10.630   1.211   0.548 -0.0334  0.4326 -0.2453
 8657W        W24274   5.376   5.453   2.133  0.1088 -0.0923 -0.1861
 8658W        W24275   8.621   1.125   4.475 -0.0449 -0.3452 -0.2392
 8659W        W24276   7.247  13.880   5.504 -0.2125 -0.0521 -0.0510
 8660W        W24277  15.179  13.123  14.491  0.0348 -0.2001 -0.3503
 8661W        W24278  11.209  13.309  15.160 -0.2069  0.1237  0.1667
 8662W        W24279  12.006   4.270   4.086  0.0776  0.1340  0.1429
 8663W        W24280  15.476  15.308   3.015 -0.1667 -0.2180 -0.0399
 8664W        W24281  14.343  17.002   1.454 -0.0560 -0.1875  0.2391
 8665W        W24282   6.038   5.451  14.682  0.0655  0.1027  0.0190
 8666W        W24283   8.534  14.336  11.615  0.2376  0.2165 -0.1308
 8667W        W24284   6.121  15.058  14.987  0.0050 -0.1510  0.1283
 8668W        W24285  13.106  17.042  14.178 -0.2668  0.2247 -0.1983
 8669W        W24286   8.158   3.520  12.988  0.2623  0.1844  0.3854
 8670W        W24287   0.577   6.971   4.355 -0.0185  0.3229  0.3573
 8671W        W24288   9.611   7.591   4.083 -0.0011  0.1819  0.0534
 8672W        W24289  12.506  12.239  13.532 -0.0367 -0.0190  0.0152
 8673W        W24290   7.110  14.623   0.312 -0.2901 -0.0344  0.1200
 8674W        W24291   2.186   1.426   4.183 -0.0482  0.2659  0.0075
 8675W        W24292   9.947  11.346   0.245  0.1659  0.0709  0.2568
 8676W        W24293  17.271   8.407   0.856 -0.0273  0.0541 -0.0677
 8677W        W24294  12.079   7.865   4.551  0.0176  0.0943 -0.0367
 8678W        W24295  16.380  13.774   0.046 -0.1642 -0.4435  0.0772
 8679W        W24296   4.010   1.595   4.308  0.0346 -0.2914 -0.1970
 8680W        W24297   6.156  10.610  14.260  0.0123 -0.0509  0.0800
 8681W        W24298  15.818   9.508   2.446 -0.0368  0.1057  0.0370
 8682W        W24299   9.031   4.221   3.624 -0.0060 -0.0287 -0.0275
 8683W        W24300   4.954   4.350   5.715  0.2235  0.0224 -0.0602
 8684W        W24301  12.641   7.521   1.502 -0.0309  0.1117 -0.1921
 8685W        W24302   9.287   3.317   3.190  0.0909  0.3986  0.2354
 8686W        W24303  11.176   3.646  16.589  0.1460 -0.0048  0.0783
 8687W        W24304  11.612   9.363  17.064 -0.1226 -0.0902 -0.6097
 8688W        W24305  13.134   1.704   2.918 -0.0370  0.2685 -0.1090
 8689W        W24306   9.446   1.728   4.981  0.1376  0.2753  0.0165
 8690W        W24307   1.023  14.329   3.662  0.0402 -0.0486 -0.1347
 8691W        W24308   8.278   1.108  11.292 -0.2687  0.0521 -0.0209
 8692W        W24309   8.856  12.733   1.786 -0.0880  0.4944 -0.0576
 8693W        W24310  17.466   9.588  16.342 -0.2089  0.0094 -0.3765
 8694W        W24311   6.531  10.836  14.023  0.0446 -0.2532  0.1769
 8695W        W24312   9.870  11.147  12.153  0.2760 -0.1397 -0.1922
 8696W        W24313   2.577   4.006   4.388 -0.2210 -0.0360  0.2950
 8697W        W24314   7.075  13.063   3.030  0.0181  0.0478  0.1142
 8698W        W24315  13.087  13.949   0.843 -0.0108  0.2098 -0.2305
 8699W        W24316  15.203  12.305   1.188 -0.2719 -0.3821  0.1043
 8700W        W24317  11.112  16.330   1.741  0.0012 -0.0468  0.1818
 8701W        W24318   1.756  10.256   1.023  0.3149  0.0874 -0.1344
 8702W        W24319  11.677   9.073   3.539 -0.0310 -0.2053 -0.1215
 8703W        W24320  14.597   3.310  17.083 -0.5697  0.1722 -0.2238
 8704W        W24321  10.009   9.832   4.766  0.0884 -0.0863 -0.3900
 8705W        W24322   2.576   4.891  16.941 -0.1801 -0.3587  0.2337
 8706W        W24323  12.778   3.781  16.762 -0.0459 -0.2360 -0.1988
 8707W        W24324  15.007   4.404  12.960  0.1235 -0.1878 -0.3054
 8708W        W24325  13.807  16.255   0.458 -0.0804  0.1298  0.0218
 8709W        W24326   6.405  10.370   5.138  0.1336  0.3505  0.1410
 8710W        W24327  12.104  12.861   2.642  0.0722 -0.4964  0.0217
 8711W        W24328   4.797   2.359  13.213  0.6322 -0.0151 -0.2264
 8712W        W24329  10.500   1.018  12.955 -0.0766 -0.0219  0.3197
 8713W        W24330  16.220   1.192  15.800  0.1472 -0.2514  0.0006
 8714W        W24331   8.445  17.226   4.605  0.1746 -0.1826  0.2144
 8715W        W24332   7.893   8.873  17.071  0.1524 -0.2310 -0.0492
 8716W        W24333   2.433   2.969   0.643 -0.0756 -0.2139 -0.1445
 8717W        W24334  12.949  15.323  14.464  0.0501 -0.2052  0.2770
 8718W        W24335   8.994   9.523  16.460  0.1484  0.1253 -0.2180
 8719W        W24336   7.119   1.127  16.970  0.0931  0.1635  0.2161
 8720W        W24337   6.156  14.262  17.260 -0.3308  0.2293 -0.0719
 8721W        W24338   0.769  13.859  13.436  0.2167  0.1727 -0.1185
 8722W        W24339   5.390   1.737   4.964  0.0892  0.0374 -0.2169
 8723W        W24340   5.818   8.203  12.085  0.1395  0.2363 -0.0256
 8724W        W24341   9.128  15.979   3.330  0.3423  0.1996  0.0156
 8725W        W24342   5.489   0.998  14.781 -0.0668  0.1133 -0.1902
 8726W        W24343  11.915  10.277   1.540 -0.0197 -0.2226  0.1759
 8727W        W24344  14.253   1.642   1.884 -0.2604 -0.1163 -0.1623
 8728W        W24345  12.824   0.427  11.654  0.0789 -0.1103 -0.0826
 8729W        W24346  10.218  10.764  13.810  0.2468  0.1785 -0.0324
 8730W        W24347   7.386  13.166   2.104 -0.1126  0.0993 -0.1069
 8731W        W24348  11.289   8.256  16.418  0.1132 -0.2130 -0.0221
 8732W        W24349   7.538  11.641  15.509 -0.3459 -0.1287 -0.1678
 8733W        W24350   0.322  10.070   4.191  0.2667  0.0158  0.2323
 8734W        W24351  17.420  12.856  11.831  0.0714 -0.0151  0.1311
 8735W        W24352   7.979  14.763   0.610 -0.2402 -0.5323  0.1448
 8736W        W24353   5.874  13.509   5.627  0.2673  0.0040  0.1783
 8737W        W24354   2.525   0.986   1.551  0.0551  0.1395  0.1026
 8738W        W24355   0.883  10.771   5.888 -0.0005 -0.1791  0.0538
 8739W        W24356   5.265   5.788   1.276 -0.2176 -0.2180 -0.0634
 8740W        W24357   1.764  12.999  14.606  0.0415  0.3444  0.0363
 8741W        W24358   6.424   5.334   6.574 -0.1541  0.0261  0.0467
 8742W        W24359   4.495   1.790   5.499 -0.0352 -0.0007  0.1273
 8743W        W24360  13.072   8.389  14.005 -0.2270 -0.1365 -0.1081
 8744W        W24361  14.498  14.106   1.938 -0.0957  0.1065 -0.2232
 8745W        W24362   4.463  13.281  12.671 -0.3465  0.1315 -0.2350
 8746W        W24363   4.718   9.279  12.631 -0.0369  0.1757  0.0062
 8747W        W24364  12.327   7.885   1.580 -0.0046  0.0915  0.0520
 8748W        W24365  16.476   1.253  17.140  0.0416 -0.0261  0.0192
 8749W        W24366   6.966  16.423   4.908  0.0896 -0.0283 -0.2502
 8750W        W24367  15.348  16.055  15.928  0.1132  0.1798 -0.2425
 8751W        W24368  12.988   6.875  16.400 -0.0925  0.0975 -0.1315
 8752W        W24369   8.499  17.316   6.393  0.1797 -0.3053  0.2287
 8753W        W24370   4.745  10.347   0.183  0.0942 -0.1019  0.0841
 8754W        W24371   6.486   3.203  13.526  0.0187 -0.0639  0.0358
 8755W        W24372   0.320  13.879  16.948 -0.1078 -0.0449 -0.2830
 8756W        W24373   9.385   7.905  15.497 -0.0491 -0.0727  0.1320
 8757W        W24374   8.564  10.098  14.506  0.1323  0.1417 -0.0823
 8758W        W24375   4.746   3.528   1.988  0.2718  0.0767 -0.0855
 8759W        W24376   4.915   8.823   1.777  0.1708  0.1417  0.0120
 8760W        W24377  14.564   1.659  12.392 -0.0699  0.0594  0.1466
 8761W        W24378  14.796  15.218   0.497 -0.0566 -0.2839  0.0219
 8762W        W24379   5.760   9.845   3.904 -0.2152  0.0754 -0.1645
 8763W        W24380   8.806   1.563  14.153  0.1688 -0.0388  0.2453
 8764W        W24381   3.442   6.150   3.358  0.0287 -0.0085  0.4107
 8765W        W24382   5.407   1.440  12.446 -0.0312  0.0384  0.0880
 8766W        W24383  13.793  13.865   3.961 -0.0465 -0.1864  0.0939
 8767W        W24384  17.394  11.946  16.520  0.1386 -0.3306  0.0797
 8768W        W24385   7.413  16.039   0.614  0.0211  0.1420 -0.0869
 8769W        W24386  13.350  10.497  14.965 -0.0589 -0.1669 -0.1881
 8770W        W24387   1.179  15.424   4.545  0.2173  0.1732 -0.1096
 8771W        W24388  12.427   1.927  15.153 -0.0882 -0.2092 -0.1268
 8772W        W24389  14.358   3.059  13.562  0.2746  0.0561  0.1220
 8773W        W24390  13.369  15.594   4.110  0.2479  0.3864  0.0450
 8774W        W24391  15.469   8.800   0.127 -0.3128  0.4145  0.0720
 8775W        W24392  16.064  15.202  12.813  0.1518 -0.0539 -0.0730
 8776W        W24393  13.109   2.431   2.434 -0.0939  0.3280  0.0658
 8777W        W24394   7.584   1.612   2.084 -0.0103  0.3886 -0.1733
 8778W        W24395   7.354  13.239   1.510  0.0627  0.1335 -0.3198
 8779W        W24396   1.414  13.219   6.157  0.0018  0.5325 -0.0469
 8780W        W24397   4.994   2.585   4.258 -0.2479 -0.1619  0.1603
 8781W        W24398   3.756   4.207  16.288  0.0237  0.0906  0.2354
 8782W        W24399   1.363   9.595   1.649 -0.2792 -0.1038 -0.0075
 8783W        W24400   0.660  10.516  12.125  0.2988 -0.1656 -0.2255
 8784W        W24401   3.790   3.252   4.601 -0.3126  0.1668 -0.0464
 8785W        W24402  16.411  13.544   2.713  0.1386 -0.1625  0.1426
 8786W        W24403  16.608   6.585   5.099 -0.0014 -0.0543 -0.0928
 8787W        W24404  11.765  16.693   4.309 -0.1280  0.0248 -0.2547
 8788W        W24405  12.082  11.092  14.912 -0.0109  0.2154 -0.1110
 8789W        W24406   9.938  15.939   4.330  0.1805 -0.0080 -0.0453
 8790W        W24407   1.048   2.356  15.110 -0.1389 -0.2805 -0.2055
 8791W        W24408   9.058   5.306  13.825 -0.0049 -0.1396  0.0509
 8792W        W24409  10.645   1.068   5.370  0.4974  0.0974 -0.0697
 8793W        W24410   7.379   5.251   5.583  0.0741 -0.1858 -0.0272
 8794W        W24411   3.923   7.768   2.688  0.1220  0.0506  0.2614
 8795W        W24412   3.800   3.588  12.609  0.0882  0.0464 -0.2014
 8796W        W24413  13.273  11.675  13.412 -0.0375 -0.0161  0.2466
 8797W        W24414  13.739   5.324  15.264 -0.1301 -0.3454  0.3402
 8798W        W24415   8.551  17.604   4.192 -0.0596  0.1982  0.0123
 8799W        W24416  14.312   3.820  13.245  0.2151 -0.0377  0.0559
 8800W        W24417  11.895   4.749  14.510 -0.2754  0.0926  0.3399
 8801W        W24418   9.369  10.768  13.356  0.1481 -0.0604  0.0969
 8802W        W24419  16.965   8.817   3.959 -0.0913  0.1841 -0.0716
 8803W        W24420   4.835  13.955  15.767  0.0594 -0.1322  0.1380
 8804W        W24421   6.364  15.264  16.988  0.0859 -0.0186  0.0796
 8805W        W24422   9.881   4.607  13.079  0.2046 -0.3150  0.1778
 8806W        W24423   0.662   3.339  16.005 -0.1308  0.0250 -0.1139
 8807W        W24424  10.287  12.082   4.092 -0.1885 -0.2012 -0.2358
 8808W        W24425  16.871  14.140  12.248  0.0102 -0.3130 -0.3655
 8809W        W24426   1.305   4.608  12.415  0.3006  0.2932  0.2402
 8810W        W24427  10.024   5.223   5.489  0.0754 -0.0092  0.2313
 8811W        W24428   4.765   6.718  15.808 -0.2007  0.1563 -0.1116
 8812W        W24429  16.007   1.697   3.613 -0.0492  0.0363  0.1657
 8813W        W24430  10.331  15.651  14.150  0.0834  0.0335 -0.0322
 8814W        W24431   3.288   5.586  13.819  0.3419 -0.0797 -0.0524
 8815W        W24432   1.365   6.886   2.575  0.1382  0.2112  0.0094
 8816W        W24433   3.664   2.742   2.202 -0.2180  0.2509  0.1175
 8817W        W24434   0.940   8.358   4.523  0.3882 -0.0700  0.0162
 8818W        W24435   1.241  10.730  13.347  0.0793 -0.0952 -0.2486
 8819W        W24436   5.154   3.457   4.145 -0.0514 -0.1121  0.2691
 8820W        W24437   8.764  12.124   2.722 -0.1647 -0.2360 -0.0138
 8821W        W24438   7.509   1.312   3.440  0.2312 -0.2177  0.0710
 8822W        W24439  14.636   0.175  13.259 -0.3185  0.1034 -0.2722
 8823W        W24440   1.323   4.099   6.173  0.1335 -0.0808 -0.0970
 8824W        W24441   1.760  11.181   3.614  0.0892  0.2106 -0.2087
 8825W        W24442   8.157   4.601  15.372  0.0529 -0.0940 -0.0435
 8826W        W24443   9.656  10.302  12.390 -0.2147 -0.2155 -0.3980
 8827W        W24444   6.272  10.198  16.597 -0.2044 -0.4288  0.1648
 8828W        W24445   1.540  15.341   5.470 -0.0750 -0.2736  0.0477
 8829W        W24446   2.489   4.619   2.748  0.0644 -0.3713  0.0981
 8830W        W24447  13.085  15.542  13.973  0.3826  0.1198 -0.1349
 8831W        W24448  13.869  12.306  13.458 -0.1361  0.2460  0.4144
 8832W        W24449   6.734   2.390  16.027  0.4834  0.1862 -0.2096
 8833W        W24450   5.611  14.399   1.574  0.1829 -0.0076  0.1461
 8834W        W24451   5.636   3.967   2.211  0.4140 -0.0103  0.0392
 8835W        W24452   6.804   1.371  12.323  0.0495  0.0366  0.0988
 8836W        W24453  15.832   3.787  14.449  0.1328 -0.0442  0.2261
 8837W        W24454   0.156  12.620  15.467  0.1974  0.0070  0.1237
 8838W        W24455  16.982  12.579  15.865  0.2022 -0.0230 -0.5692
 8839W        W24456  15.155   4.653   0.132 -0.1885  0.3079 -0.3110
 8840W        W24457  15.887  14.833  14.994 -0.1682  0.2717 -0.2023
 8841W        W24458   8.983  11.663   2.657 -0.0638 -0.2363 -0.3071
 8842W        W24459   3.834  16.419   4.973  0.2939 -0.1805  0.0452
 8843W        W24460   9.594   9.510   4.950  0.3485  0.1654 -0.0898
 8844W        W24461   4.250  11.986  14.094 -0.1592  0.0594  0.2315
 8845W        W24462   9.697  10.578  16.255  0.2146  0.0866  0.0101
 8846W        W24463   3.602  15.633  12.528 -0.1934  0.0668  0.0909
 8847W        W24464   6.131  10.117   1.664  0.2308  0.0167 -0.1184
 8848W        W24465   4.821   9.281   2.087 -0.1832  0.0476 -0.0645
 8849W        W24466   6.118  16.054  13.382 -0.2410 -0.1460  0.1611
 8850W        W24467   2.980   8.273  12.363  0.0690 -0.0084 -0.0012
 8851W        W24468   7.137   6.189   2.473  0.2803 -0.2290 -0.0595
 8852W        W24469   5.993   7.138  13.968  0.0030  0.0784 -0.0902
 8853W        W24470  12.065  15.339   3.073 -0.1953 -0.0441 -0.1816
 8854W        W24471   8.860   9.858  13.389  0.2467  0.2586  0.1668
 8855W        W24472  13.963   9.767  17.050  0.1075 -0.0813 -0.2348
 8856W        W24473  12.052   9.713  14.869  0.1362 -0.1262  0.0954
 8857W        W24474   0.848   8.532  12.863  0.0697 -0.2292  0.3040
 8858W        W24475  10.865   3.482  13.872  0.0734 -0.0589  0.2156
 8859W        W24476   2.073   4.510   0.799 -0.0392  0.2044 -0.0160
 8860W        W24477  14.532  13.207   4.777 -0.2659  0.1196  0.0429
 8861W        W24478   3.780  13.815  14.062 -0.0080 -0.3842  0.2488
 8862W        W24479   5.490   4.993  12.914  0.1336  0.1677 -0.1792
 8863W        W24480  13.728   9.950  13.771  0.0085 -0.2348  0.1510
 8864W        W24481   2.591  14.665  12.851 -0.0016 -0.1199 -0.1430
 8865W        W24482   8.463   8.844  13.656 -0.4662  0.0303 -0.0006
 8866W        W24483   7.199   1.640  12.552 -0.0091 -0.1615  0.1768
 8867W        W24484   9.991  10.058   1.328  0.1388 -0.1960 -0.1678
 8868W        W24485  17.032   8.611  12.647  0.0934 -0.1216 -0.0243
 8869W        W24486   4.501   4.251   1.239  0.2462 -0.0508  0.3788
 8870W        W24487  12.986  16.434   3.136 -0.0653 -0.0314  0.1967
 8871W        W24488  14.929  17.358  14.123  0.0096  0.1440  0.0777
 8872W        W24489  16.520  14.230  14.532 -0.4416 -0.0837 -0.0721
 8873W        W24490   8.234  12.827  13.237 -0.0471  0.0096  0.2037
 8874W        W24491  10.212  14.118  13.197 -0.1469  0.0768 -0.0571
 8875W        W24492  10.301   7.806  16.498  0.1962  0.3035  0.1456
 8876W        W24493  16.657  15.261   1.457 -0.2261  0.0524  0.2518
 8877W        W24494  16.153  15.621  13.243 -0.2269 -0.0759 -0.1461
 8878W        W24495   2.354   5.701  13.467 -0.1040  0.2354  0.2358
 8879W        W24496  17.082  10.617  12.126 -0.2542  0.0105 -0.0452
 8880W        W24497  13.955   7.359  14.680  0.1922  0.2978  0.0845
 8881W        W24498   5.260   3.816  12.065 -0.1219  0.0657 -0.0212
 8882W        W24499   6.873  11.480   1.843 -0.1466 -0.3629 -0.0531
 8883W        W24500  16.744  13.680  16.985 -0.0445 -0.1443 -0.0958
 8884W        W24501   5.345  15.840   3.878 -0.0722  0.1629  0.2052
 8885W        W24502  10.746  14.387   4.568  0.1500 -0.2444  0.1088
 8886W        W24503   8.138  15.745   2.317 -0.2156  0.3144  0.1851
 8887W        W24504  13.995  12.536  15.477 -0.1748  0.1628 -0.0503
 8888W        W24505  11.523  15.022   5.932 -0.0645  0.0352  0.0629
 8889W        W24506  12.626  10.110   4.802  0.0343 -0.0551 -0.0707
 8890W        W24507   6.024  12.536  15.016  0.0219  0.0617 -0.0937
 8891W        W24508   4.416  16.513   0.373 -0.1543  0.0582  0.3942
 8892W        W24509   7.426  17.211   2.355 -0.0625 -0.1887  0.1127
 8893W        W24510   3.590   4.599   1.703 -0.1011 -0.0683 -0.0908
 8894W        W24511   7.396  16.076  15.034  0.0474  0.3445  0.1571
 8895W        W24512  16.986  14.097  16.930  0.3323  0.1147  0.0390
 8896W        W24513   9.267   1.957  16.659  0.0634 -0.1127  0.2901
 8897W        W24514   3.310  16.994  15.339  0.1992 -0.1020 -0.1695
 8898W        W24515   5.735  16.456  15.621 -0.1697 -0.0814 -0.2305
 8899W        W24516   1.124  11.967  17.274  0.0080  0.0035  0.0573
 8900W        W24517  15.391  12.484   1.914  0.0651  0.2030  0.1734
 8901W        W24518   2.779  14.427   2.629 -0.1855  0.0782  0.1870
 8902W        W24519   5.468   8.224  16.129  0.3037 -0.6555  0.0089
 8903W        W24520   1.288   1.976  13.749  0.1793  0.0734  0.1417
 8904W        W24521   4.038  14.418  12.726  0.0583  0.1283 -0.0088
 8905W        W24522  12.497  15.236   2.377 -0.2194  0.1802 -0.1486
 8906W        W24523  12.607  12.650   1.034  0.5148  0.0122 -0.0867
 8907W        W24524   0.745   9.045  12.679  0.3425 -0.2157  0.1163
 8908W        W24525  14.043   7.915  13.960  0.1650 -0.0927 -0.1704
 8909W        W24526  11.129  11.839   1.434 -0.0263  0.0037 -0.0410
 8910W        W24527   8.570   2.363   1.912 -0.0188 -0.0793  0.1532
 8911W        W24528  12.594  13.936  16.370 -0.0547  0.2924  0.1581
 8912W        W24529   1.563  15.885   3.239 -0.0524 -0.1016 -0.1605
 8913W        W24530  12.759  13.801   4.533 -0.2151  0.0513  0.4943
 8914W        W24531  11.503   6.936   3.796 -0.2453 -0.1987  0.2065
 8915W        W24532   0.759   5.126   0.513 -0.0895 -0.1760  0.0191
 8916W        W24533  11.124  12.013   0.032 -0.1184  0.7827  0.0009
 8917W        W24534  14.989   0.482  11.675 -0.2626  0.1421 -0.1635
 8918W        W24535  12.780  12.227  11.751  0.0417 -0.0983 -0.1953
 8919W        W24536  13.856  15.031  14.297  0.4831 -0.0015  0.0368
 8920W        W24537   2.206  16.303   0.755  0.2944  0.1712 -0.1032
 8921W        W24538  12.360  10.465  11.532 -0.0312 -0.2171  0.1898
 8922W        W24539   2.935   1.302   1.539 -0.1083  0.1056  0.2083
 8923W        W24540  12.930   0.654   3.815  0.0165 -0.0653 -0.0883
 8924W        W24541  11.506   4.700   2.783 -0.0579  0.0758  0.2880
 8925W        W24542   5.923  16.322   5.603  0.1935  0.2834  0.5086
 8926W        W24543  16.758  13.428   6.276 -0.0427 -0.0983  0.5148
 8927W        W24544   1.469   2.426   0.241  0.1975 -0.3628 -0.0247
 8928W        W24545   7.348  13.461  12.256 -0.1535  0.0128  0.1471
 8929W        W24546   5.060   0.862  13.192  0.0340 -0.0153  0.1152
 8930W        W24547   1.507   9.437  12.062 -0.0765  0.0174 -0.0002
 8931W        W24548   3.274   5.764  12.833  0.0874  0.0807  0.0164
 8932W        W24549  16.623   4.362   7.143 -0.0616  0.0248  0.1291
 8933W        W24550  16.163   1.325  12.265  0.4302  0.2011 -0.1080
 8934W        W24551  11.365   6.430  12.481  0.0717  0.1103  0.2526
 8935W        W24552   9.163   7.488   1.691  0.1820 -0.1043  0.1089
 8936W        W24553   1.920   6.644  15.956 -0.0113 -0.1750  0.0920
 8937W        W24554   9.266   5.435  15.561 -0.0490 -0.0160 -0.1251
 8938W        W24555   2.593   8.750  16.646  0.2500 -0.2133  0.1826
 8939W        W24556  13.430   3.129  15.065  0.0435 -0.2071 -0.1649
 8940W        W24557  16.026   7.558  13.788  0.0180  0.1251  0.4647
 8941W        W24558  10.739   6.366   4.195 -0.0750 -0.0245 -0.1287
 8942W        W24559   9.977   8.565  12.687 -0.1245 -0.2827 -0.1470
 8943W        W24560   5.994   8.884   3.073 -0.2717 -0.2854 -0.1705
 8944W        W24561   4.593   9.576  13.762  0.3010 -0.3814  0.1159
 8945W        W24562  11.953  12.011  13.364  0.1376  0.0751  0.2403
 8946W        W24563   7.022   1.149   0.908 -0.2777  0.1995 -0.0758
 8947W        W24564   3.403  16.940  14.087 -0.1611 -0.2633  0.0890
 8948W        W24565  17.273  12.650   4.017 -0.1716 -0.1764  0.0748
 8949W        W24566  15.966   5.264   1.730  0.0991  0.0394  0.0809
 8950W        W24567  17.493   0.397   5.178  0.2877  0.0104 -0.1491
 8951W        W24568  10.500   5.149   5.758  0.0058 -0.3285  0.0072
 8952W        W24569  17.349   2.998   5.598  0.0920  0.0345 -0.2810
 8953W        W24570  11.987  12.997   3.982 -0.1229 -0.0612 -0.0119
 8954W        W24571   6.367   5.588   3.656 -0.3223 -0.1512 -0.0334
 8955W        W24572   6.894   8.387  14.739 -0.2857 -0.1707 -0.0659
 8956W        W24573   8.320   0.740   4.435  0.1555  0.2358 -0.1926
 8957W        W24574  12.469   0.036   3.276 -0.1920 -0.1949  0.2813
 8958W        W24575   9.232   0.060   0.014 -0.3456  0.1629 -0.0549
 8959W        W24576   4.103   4.512   0.092  0.3570 -0.2260 -0.0051
 8960W        W24577   4.021   0.818  15.006 -0.0256  0.0637 -0.1194
 8961W        W24578   4.277   6.524   6.302 -0.1849  0.1722 -0.4350
 8962W        W24579   1.784   7.801  12.616  0.0899  0.0402 -0.0857
 8963W        W24580   6.169  10.628   3.754  0.0157  0.0258  0.3287
 8964W        W24581   8.798   9.605   3.252  0.0005  0.0586 -0.0106
 8965W        W24582   8.885  10.215  11.886  0.1845 -0.1467  0.1019
 8966W        W24583  12.158  11.193   5.156 -0.0342 -0.2264 -0.1125
 8967W        W24584  11.021   5.483  15.876  0.3305 -0.1142  0.0194
 8968W        W24585  14.744   4.879   3.847 -0.0300  0.0095 -0.1111
 8969W        W24586   6.838  11.659  16.095  0.0618  0.0503 -0.0561
 8970W        W24587   3.497  17.268   2.761 -0.2700  0.0911  0.1816
 8971W        W24588   9.432   5.488   1.140 -0.0980 -0.1402 -0.1665
 8972W        W24589  16.747  10.735  16.206 -0.2969  0.0579 -0.0130
 8973W        W24590  12.364   6.414  14.454  0.3178  0.0317  0.2132
 8974W        W24591  15.894   2.461   2.399 -0.1763  0.0603  0.1115
 8975W        W24592  12.357  13.795   2.727 -0.2063 -0.4515 -0.0961
 8976W        W24593   2.841   8.412   4.760 -0.2187 -0.1990  0.2241
 8977W        W24594   3.912   6.764  14.409 -0.1192 -0.1055 -0.1723
 8978W        W24595   7.091  16.718   3.768  0.1236 -0.0217 -0.0092
 8979W        W24596   6.273   3.286   4.033 -0.0132 -0.1385  0.1198
 8980W        W24597  15.923  16.435  14.016  0.3242  0.0716 -0.0495
 8981W        W24598  12.230  16.835  11.156 -0.1820  0.1831  0.2142
 8982W        W24599  16.057   4.793   1.091  0.2511  0.0150  0.3241
 8983W        W24600   6.208   8.101  13.812 -0.2356  0.2035  0.0459
 8984W        W24601   9.858   2.172  17.211  0.1432  0.2135  0.3049
 8985W        W24602   3.775   6.719   1.693  0.2281  0.3516  0.0220
 8986W        W24603  14.078   9.890  12.998  0.0112  0.0769  0.1072
 8987W        W24604   2.237  14.199  12.056  0.1883 -0.1178  0.1422
 8988W        W24605  13.720   0.772  11.868 -0.1412 -0.2073 -0.2133
 8989W        W24606   7.614   0.350  12.513 -0.1238  0.1599  0.0659
 8990W        W24607   1.587   2.260   2.223 -0.3442 -0.2729 -0.2470
 8991W        W24608   2.919  13.905   0.391  0.0516  0.1352 -0.4417
 8992W        W24609  10.247  12.084   2.787  0.1242 -0.4659  0.0350
 8993W        W24610  11.659  12.625  12.663 -0.2774 -0.3145 -0.0216
 8994W        W24611  15.356   0.489   1.787  0.0783 -0.0574 -0.0881
 8995W        W24612   6.345   1.132   4.732  0.1142  0.2524 -0.2174
 8996W        W24613   1.070   8.185   0.444 -0.1521  0.2571 -0.1457
 8997W        W24614   9.856   1.120  16.080 -0.1404  0.0590  0.0141
 8998W        W24615   7.979  12.390  13.240  0.2040 -0.1470  0.1569
 8999W        W24616  13.412  16.462   1.763 -0.1409 -0.0694 -0.0479
 9000W        W24617   2.093  12.728   3.136 -0.0510  0.1429 -0.0021
 9001W        W24618   6.320  17.579  16.063 -0.1106 -0.0960  0.0450
 9002W        W24619   3.571  16.340  14.825  0.1202 -0.0132  0.1589
 9003W        W24620   4.362  11.426   2.629  0.2071  0.1815  0.0052
 9004W        W24621   0.145   2.935   1.958 -0.1307 -0.1235 -0.3104
 9005W        W24622  12.101  11.628   4.003  0.1089 -0.1311 -0.1328
 9006W        W24623   4.323  11.309  14.553 -0.0030 -0.2942  0.0228
 9007W        W24624  15.004   8.042  16.858  0.0921 -0.0053  0.1704
 9008W        W24625   1.415   8.473  13.267 -0.0577 -0.3620  0.0826
 9009W        W24626  16.273  14.430  16.472  0.1132 -0.3874  0.1079
 9010W        W24627   2.759   4.750  12.430  0.2440 -0.2460 -0.2781
 9011W        W24628  12.465   3.375   1.376  0.0471 -0.0889  0.2569
 9012W        W24629   1.921   6.967   5.325  0.4146 -0.0307  0.1518
 9013W        W24630  15.623  14.723  12.506 -0.1197 -0.1221  0.2197
 9014W        W24631  14.818  14.809  14.661  0.2591  0.0340 -0.0089
 9015W        W24632  11.104  17.159  14.056 -0.0787 -0.5263 -0.0035
 9016W        W24633   3.999   7.402   1.894  0.1794 -0.0292  0.1995
 9017W        W24634  12.711   8.234  16.033  0.1837  0.3573 -0.1590
 9018W        W24635  16.819  13.753  14.288  0.2650  0.2501  0.0012
 9019W        W24636   5.819   7.153   0.109 -0.0644  0.3924 -0.1523
 9020W        W24637   2.499  13.598   5.429 -0.1112 -0.0637  0.0494
 9021W        W24638  15.153  17.593   1.860  0.1026 -0.4746  0.0810
 9022W        W24639   4.126   9.854   6.077  0.1044  0.0561 -0.2442
 9023W        W24640  10.013  16.065  14.227  0.1198 -0.3068 -0.1440
 9024W        W24641  14.994  11.191   1.330 -0.0188  0.0700 -0.2186
 9025W        W24642   3.766  12.780  13.807 -0.2949  0.4275 -0.2049
 9026W        W24643   4.638  11.459   1.376  0.1585  0.1635 -0.1052
 9027W        W24644   4.839   7.884  14.242  0.0647 -0.1509  0.0934
 9028W        W24645   6.606  16.357  15.597  0.2961  0.0173  0.0959
 9029W        W24646  10.000   8.796   1.507 -0.0576 -0.1153  0.0336
 9030W        W24647   4.360   5.571  16.784 -0.2208 -0.2215  0.0561
 9031W        W24648  13.436   7.275  13.791  0.3684  0.2591  0.1781
 9032W        W24649  13.967   9.502  13.819  0.2897  0.0986  0.1890
 9033W        W24650  10.736  16.856   6.297 -0.2581  0.1355 -0.0214
 9034W        W24651   7.581   8.515  17.270  0.1911  0.3389  0.0060
 9035W        W24652   8.628  12.761  16.228  0.0509  0.1781  0.2721
 9036W        W24653   7.864   5.263  12.270  0.0835  0.1544  0.1167
 9037W        W24654  13.308   2.855   1.096  0.0269 -0.0906  0.2321
 9038W        W24655   2.903  14.052  14.254 -0.0044 -0.0995 -0.2347
 9039W        W24656  16.084  16.520   0.727  0.2713 -0.0354  0.1817
 9040W        W24657   6.774  11.173  17.292 -0.0188 -0.2869 -0.0846
 9041W        W24658  11.615   3.041  12.869  0.1494 -0.3102  0.0918
 9042W        W24659  16.814   3.908   1.844  0.2088 -0.0369  0.2672
 9043W        W24660  15.899  12.390   0.208  0.0286 -0.0349 -0.0104
 9044W        W24661  13.598   0.256  11.944 -0.0833  0.0601  0.1027
 9045W        W24662  11.711   9.391   2.647  0.1934 -0.0638  0.0335
 9046W        W24663   0.115  17.290  12.597  0.0976  0.0243 -0.0772
 9047W        W24664   9.242   8.863  15.608  0.2692 -0.0413  0.1293
 9048W        W24665   8.492  13.251  13.194  0.0282 -0.1425  0.0209
 9049W        W24666   4.377   8.252   2.237 -0.3508 -0.0424  0.1879
 9050W        W24667   4.769   3.782  12.878 -0.1152 -0.1009 -0.2359
 9051W        W24668  10.408  10.060   1.651  0.0490  0.1446  0.1220
 9052W        W24669  16.448   8.107   5.037  0.0715 -0.0536  0.2442
 9053W        W24670  13.030   1.655  10.332 -0.3306  0.1067 -0.1409
 9054W        W24671  15.193   0.476  16.104  0.0136 -0.2156 -0.3351
 9055W        W24672   0.898  15.377   0.153 -0.1137  0.1431 -0.2570
 9056W        W24673   5.699  16.229   2.036 -0.0334 -0.4084 -0.1252
 9057W        W24674   1.624  17.477  14.189 -0.4257  0.5471 -0.2318
 9058W        W24675  11.435  14.361  15.285 -0.2300  0.0699  0.0105
 9059W        W24676   8.983  13.331  16.416 -0.3629 -0.0330 -0.0905
 9060W        W24677  12.899   0.869   4.259  0.1412  0.0980 -0.2184
 9061W        W24678  12.504   6.176   2.992 -0.1904  0.0254  0.0273
 9062W        W24679   9.125   9.377   4.147 -0.0851 -0.0219 -0.0003
 9063W        W24680   9.919   4.462  14.541 -0.2383  0.0596 -0.0893
 9064W        W24681  11.458  16.219  13.735 -0.0831  0.2574 -0.0483
 9065W        W24682  15.653  15.636  12.360 -0.2338  0.1458 -0.3294
 9066W        W24683   7.214   9.283  13.147  0.1548 -0.2595 -0.1759
 9067W        W24684  17.528  10.292  17.044 -0.1155 -0.3477 -0.0336
 9068W        W24685   3.338  17.323  15.868  0.1308  0.0238 -0.0455
 9069W        W24686  15.886  16.748   3.174  0.0070  0.2199 -0.1537
 9070W        W24687  14.918   5.770  13.964 -0.1164 -0.0124 -0.1415
 9071W        W24688  11.243   5.537   3.261  0.0405  0.0726 -0.2499
 9072W        W24689   9.336  13.205  13.958 -0.1109 -0.2156 -0.3144
 9073W        W24690  13.744  10.183  16.902  0.0074  0.1061 -0.1191
 9074W        W24691  12.773  12.243   0.402 -0.2632 -0.1269 -0.0104
 9075W        W24692  12.118   3.708   1.211 -0.2476 -0.2768 -0.0519
 9076W        W24693   4.444  16.447  15.245  0.0669  0.2426 -0.0202
 9077W        W24694  11.918  14.806  16.342 -0.2659 -0.3086 -0.2112
 9078W        W24695  13.732  17.515   4.234  0.1454  0.1075  0.2426
 9079W        W24696   7.858   7.441   3.212  0.1720 -0.0569  0.0730
 9080W        W24697  12.051   9.598   1.787 -0.2013 -0.0231 -0.0114
 9081W        W24698  16.132   7.724  15.099  0.2621 -0.1184  0.1024
 9082W        W24699  14.783   6.743   2.864  0.1081 -0.0367 -0.1467
 9083W        W24700   8.028  11.759   3.126 -0.1352 -0.1265 -0.0843
 9084W        W24701   9.021   2.497  12.278 -0.1359  0.0355  0.1641
 9085W        W24702   4.841  11.476   6.017 -0.0540  0.0071  0.2594
 9086W        W24703  12.416   0.693   0.962 -0.0716  0.0334 -0.3266
 9087W        W24704  10.916  13.313   1.162  0.2670 -0.0266 -0.0469
 9088W        W24705   4.599   9.106   5.468 -0.1566  0.2079 -0.3179
 9089W        W24706  17.152  12.139   6.382  0.0904  0.0101 -0.1614
 9090W        W24707  12.031   2.744   1.360 -0.0377 -0.0037 -0.3008
 9091W        W24708  10.576  11.386  11.556  0.2581 -0.0912 -0.0078
 9092W        W24709   0.043  14.837   2.142 -0.0742  0.2461  0.1029
 9093W        W24710  12.401   1.108   0.190 -0.0928 -0.3817 -0.1004
 9094W        W24711  13.916  17.296   0.187  0.0504  0.0604  0.0103
 9095W        W24712   0.058   1.882  14.800 -0.1535 -0.0506  0.1929
 9096W        W24713  15.825  11.005  15.135 -0.0287 -0.2865 -0.1721
 9097W        W24714   6.602   4.567   2.561  0.1942 -0.1734 -0.1527
 9098W        W24715  17.308  14.995  11.979  0.0297  0.1241  0.1849
 9099W        W24716   2.972   7.543   2.806  0.1980 -0.2515  0.0426
 9100W        W24717   1.234  16.487  15.893 -0.0029 -0.0800 -0.2445
 9101W        W24718   5.060  11.182   5.555 -0.1251 -0.3548  0.1592
 9102W        W24719  10.762   1.248  13.904  0.0027  0.1961  0.0443
 9103W        W24720  11.512   0.689   0.958 -0.0523  0.0165 -0.0791
 9104W        W24721   2.299   5.473   6.013  0.0783 -0.2246 -0.2669
 9105W        W24722   9.322   1.540  14.458  0.0912 -0.1571  0.0059
 9106W        W24723  10.236   4.505  15.674 -0.0583 -0.3767  0.1499
 9107W        W24724   1.076   8.524   6.139 -0.1946  0.0298  0.0636
 9108W        W24725  16.504  14.299   0.787  0.0498  0.0412  0.4969
 9109W        W24726  16.364   2.676  12.565  0.0343 -0.0763  0.1519
 9110W        W24727   6.989  16.213  16.348  0.4974 -0.0470  0.3295
 9111W        W24728  16.753   9.993  13.819  0.1894  0.1725  0.0148
 9112W        W24729   9.277  10.741   4.785  0.3255  0.2416 -0.0467
 9113W        W24730  14.174   7.065   3.215 -0.1505 -0.0624 -0.1010
 9114W        W24731   4.615   3.826   2.423  0.3798  0.0285  0.0187
 9115W        W24732  11.727  16.087  13.261  0.0656  0.1052 -0.1869
 9116W        W24733   0.357  16.058   0.980  0.1493 -0.2822  0.4676
 9117W        W24734  12.623   9.887   0.169  0.0271 -0.0378  0.0471
 9118W        W24735  17.285  16.614  14.960  0.2222  0.0329  0.1393
 9119W        W24736   1.316  16.454  16.427  0.1644  0.0326 -0.0802
 9120W        W24737  16.868   2.180  12.335  0.1557 -0.1648  0.1410
 9121W        W24738  12.845  13.004   3.509 -0.1517  0.0945  0.0596
 9122W        W24739   3.813   7.234   1.436 -0.0518 -0.0481 -0.1158
 9123W        W24740   9.608  16.286   1.684  0.0249 -0.0238 -0.0285
 9124W        W24741   0.596   2.295   3.494 -0.1196  0.0367 -0.0392
 9125W        W24742   2.429  17.193  11.845  0.0242 -0.0175 -0.0575
 9126W        W24743  12.329   5.427  12.790 -0.5178 -0.1414 -0.1332
 9127W        W24744  16.725  10.610  16.663 -0.0442 -0.0836  0.1467
 9128W        W24745  14.334  16.904  12.991 -0.0491 -0.0059 -0.0420
 9129W        W24746  13.651   5.078   1.089 -0.2200  0.0003  0.0059
 9130W        W24747   2.652  10.096   4.241 -0.0572  0.3021 -0.3687
 9131W        W24748  11.605   4.944  14.086 -0.0852  0.2567  0.1513
 9132W        W24749  10.015   3.531  15.695  0.0021 -0.0860  0.4097
 9133W        W24750   0.341  14.811  16.455 -0.3630 -0.1342  0.0083
 9134W        W24751   6.806   4.633   3.611  0.0690  0.0097  0.1399
 9135W        W24752   4.980   8.446   5.361 -0.0100 -0.1528  0.0566
 9136W        W24753  11.115  16.386   1.240 -0.1773 -0.4142 -0.1839
 9137W        W24754  10.661  10.435   1.139 -0.0989 -0.0111  0.3410
 9138W        W24755   5.708   7.264  12.169  0.0645 -0.6198  0.0739
 9139W        W24756   7.592  12.268   1.944 -0.0441  0.4218  0.1640
 9140W        W24757   0.964   2.481   0.783 -0.1131  0.2279  0.1883
 9141W        W24758   4.126   7.604  16.579  0.1295 -0.1333  0.1585
 9142W        W24759   2.365  16.056  15.487  0.0366  0.0100  0.1306
 9143W        W24760   8.823  16.932  10.620  0.2981 -0.0065  0.1834
 9144W        W24761  11.032   7.278  12.535  0.2908  0.0009  0.1634
 9145W        W24762  13.212   0.207   1.008 -0.0375  0.0473 -0.0380
 9146W        W24763   4.834   0.541   3.544  0.2048  0.3139 -0.0244
 9147W        W24764   0.313  16.362  13.916 -0.1600 -0.1791  0.1334
 9148W        W24765   8.835   9.454   0.214  0.2408  0.0258 -0.0473
 9149W        W24766  12.698   7.642   3.818 -0.0971  0.3397 -0.0649
 9150W        W24767   6.736   9.454   4.381 -0.1083  0.0364 -0.0645
 9151W        W24768   2.325  13.084  16.575 -0.1371  0.0571 -0.0296
 9152W        W24769   5.169  16.015   2.407  0.1367  0.3934 -0.3737
 9153W        W24770   1.897   6.555   3.395 -0.3665  0.0019 -0.1199
 9154W        W24771  11.519   7.576  16.861  0.2284  0.0779  0.1261
 9155W        W24772   5.545  13.242   5.970 -0.0751  0.3577  0.1976
 9156W        W24773   5.039   4.212   6.334 -0.0188  0.1823 -0.1194
 9157W        W24774   6.232  13.565   4.809 -0.0242  0.0835  0.0327
 9158W        W24775   4.735  11.322   2.968 -0.1954 -0.3304 -0.3022
 9159W        W24776   9.791  10.438  14.576  0.0452 -0.0327 -0.1583
 9160W        W24777   8.560   4.246   2.475  0.1595  0.2660 -0.1226
 9161W        W24778  14.322  12.336   2.004  0.0145  0.1123 -0.2469
 9162W        W24779   3.337  14.771   5.774  0.1978  0.1831 -0.1974
 9163W        W24780  14.238   3.616   4.072 -0.0575  0.0648  0.1618
 9164W        W24781   4.025   8.692   2.086  0.0422 -0.1228 -0.3863
 9165W        W24782  14.946   2.073  13.497 -0.1112 -0.1809 -0.0179
 9166W        W24783   6.425   6.317  16.286  0.2600 -0.0267  0.1286
 9167W        W24784  15.249  12.845   1.405  0.2038 -0.0616 -0.0635
 9168W        W24785   7.438  12.663  13.984 -0.0795  0.0663 -0.2081
 9169W        W24786  11.049  17.550   2.043 -0.0493  0.0564 -0.0457
 9170W        W24787  12.932   9.306   2.074  0.2492  0.1087  0.0504
 9171W        W24788   3.269   8.509  12.773 -0.2483 -0.2987  0.0910
 9172W        W24789  15.292  10.376   4.016  0.1358 -0.1025 -0.0300
 9173W        W24790  16.970   4.322   1.580  0.2372 -0.0995 -0.0247
 9174W        W24791  14.521   9.955  14.872 -0.0787 -0.2058 -0.0305
 9175W        W24792   8.501   6.061   3.315 -0.1630  0.0877  0.0180
 9176W        W24793   3.860  12.108   5.038  0.1821 -0.1088  0.0650
 9177W        W24794   0.685   5.964   0.939 -0.0456 -0.2097 -0.0477
 9178W        W24795   6.146   5.954   3.411  0.1520 -0.0969 -0.0736
 9179W        W24796   5.986  15.870   3.049 -0.1653 -0.0213 -0.2359
 9180W        W24797   5.299  11.431   1.904  0.0577  0.0698  0.5173
 9181W        W24798   8.934   8.579  16.435  0.4373 -0.0158 -0.1798
 9182W        W24799  11.824   5.281   0.308 -0.1207 -0.2898  0.0500
 9183W        W24800  12.969   9.352  13.755 -0.3077 -0.0041  0.1376
 9184W        W24801  16.422  14.143  12.710 -0.1947  0.1499  0.0844
 9185W        W24802  11.033   4.192  15.366 -0.0563 -0.0122  0.3777
 9186W        W24803  10.577   4.110   4.496  0.1298  0.1426  0.1275
 9187W        W24804   9.701   5.171   0.874  0.1407  0.1174 -0.0732
 9188W        W24805   3.035  11.468  15.623 -0.0241  0.0098  0.0346
 9189W        W24806   2.659   6.473   1.396  0.1483  0.3689  0.0173
 9190W        W24807   4.398   6.414  16.973 -0.2060  0.2905  0.1434
 9191W        W24808   7.009  14.405   2.697 -0.2881 -0.3005 -0.3301
 9192W        W24809   5.451   0.421  16.525  0.2472  0.0781  0.0452
 9193W        W24810  15.320  11.037  15.171 -0.0641 -0.0511 -0.1262
 9194W        W24811   9.666  12.071  14.600  0.0922 -0.2220 -0.0585
 9195W        W24812  10.244  16.955  12.788 -0.1167 -0.1259 -0.2591
 9196W        W24813  12.764  14.917   3.217 -0.2625 -0.3531 -0.3628
 9197W        W24814   0.993  15.607  11.942 -0.1756 -0.0991  0.1174
 9198W        W24815  10.372   3.808   5.896  0.1727 -0.2611 -0.0722
 9199W        W24816   4.628  14.177  14.252 -0.0827  0.1797 -0.2644
 9200W        W24817  11.083   8.982   3.305  0.1219 -0.0963  0.1656
 9201W        W24818   5.113   2.653   2.529 -0.1475  0.0166  0.2763
 9202W        W24819  15.873   7.359   4.727  0.0728  0.1105  0.0446
 9203W        W24820  11.291  16.624  13.386  0.0934 -0.1115  0.0442
 9204W        W24821   4.568   3.615   2.934 -0.2507 -0.0060 -0.1415
 9205W        W24822  12.166   2.103   4.951 -0.0807 -0.2801 -0.0884
 9206W        W24823   7.528   7.732   1.468  0.1668  0.0526 -0.1512
 9207W        W24824  10.678   5.013   1.702 -0.1680  0.1431  0.3347
 9208W        W24825  11.504  17.533   4.948  0.2210  0.0605 -0.0578
 9209W        W24826  12.622  10.534   0.824 -0.1030 -0.2178 -0.0724
 9210W        W24827  11.798   7.234  13.527  0.1794 -0.1435  0.0316
 9211W        W24828   7.294  12.109  14.874 -0.1642  0.0172 -0.0443
 9212W        W24829  11.733  11.517   5.401 -0.1576  0.1261  0.0600
 9213W        W24830  14.329   1.959  11.781  0.2254  0.1163  0.1243
 9214W        W24831  17.422   0.610   4.405 -0.0572 -0.0223 -0.0441
 9215W        W24832   2.067   2.490   3.068  0.0547 -0.0992 -0.1755
 9216W        W24833   2.733   6.053   1.757  0.1245  0.0458  0.2104
 9217W        W24834  15.782  12.901   5.613 -0.0610 -0.0300 -0.0282
 9218W        W24835   8.059  13.253  11.932 -0.0568 -0.0961 -0.0531
 9219W        W24836   3.445   1.896   0.004  0.3261 -0.1524 -0.0472
 9220W        W24837   1.297   3.878  17.133  0.0538 -0.2119  0.1665
 9221W        W24838   3.652   9.526   5.992  0.0265 -0.1491  0.2832
 9222W        W24839  15.716   7.010   2.359  0.0732 -0.1911 -0.1377
 9223W        W24840   5.194  11.276  11.952 -0.0039 -0.2798 -0.1720
 9224W        W24841  16.947  11.249  14.177 -0.1055  0.1794 -0.1510
 9225W        W24842   8.406   8.634  16.281  0.1130 -0.0806 -0.0441
 9226W        W24843  13.120  13.343   2.971 -0.2672 -0.1778  0.2743
 9227W        W24844   5.446  12.544   3.476 -0.0979 -0.0041  0.0208
 9228W        W24845  13.250  10.072   0.272  0.2923  0.0238 -0.1031
 9229W        W24846   8.543   9.457   4.902 -0.0745  0.1211 -0.0988
 9230W        W24847   5.610  13.858  13.728  0.2744  0.0731  0.1568
 9231W        W24848  11.052  11.005  14.965 -0.0737 -0.1145 -0.0042
 9232W        W24849  14.807  14.941   1.644 -0.0940  0.3387  0.1245
 9233W        W24850   1.232   7.551   4.819  0.0476 -0.0636 -0.0155
 9234W        W24851   7.392  14.673  16.829 -0.1228 -0.0841 -0.0670
 9235W        W24852   9.600  17.613   5.048 -0.1263  0.2747 -0.2072
 9236W        W24853   2.337   9.181   3.953 -0.2423 -0.1190  0.1743
 9237W        W24854  11.980  14.966   4.701 -0.2289 -0.0791  0.1212
 9238W        W24855  12.038  16.007   1.386 -0.2231 -0.0200  0.0727
 9239W        W24856   7.479   8.844   2.690  0.2324  0.0056  0.0995
 9240W        W24857   6.185   1.137   1.828  0.2826 -0.0491  0.3388
 9241W        W24858   4.422  12.243   4.106 -0.1110 -0.2622 -0.0533
 9242W        W24859   6.024  17.086   2.434 -0.2561  0.1101  0.2463
 9243W        W24860   1.840   6.015   1.614  0.0867 -0.0136 -0.1520
 9244W        W24861   4.373  15.285  13.360  0.1453 -0.0147 -0.2110
 9245W        W24862  10.183  16.245  12.961 -0.3242  0.0298 -0.1050
 9246W        W24863   6.472   2.291  12.716  0.3678  0.2718 -0.1373
 9247W        W24864  17.509   7.095   3.153  0.3726 -0.1888 -0.2871
 9248W        W24865   1.663   6.001   1.109  0.2765  0.2616  0.1686
 9249W        W24866   0.740   7.321   6.972 -0.0904 -0.0052 -0.0859
 9250W        W24867   3.830   0.047   2.749  0.1570 -0.0614 -0.0575
 9251W        W24868   1.998   2.129   4.669  0.1626  0.0171  0.2009
 9252W        W24869  10.937  10.326   0.569 -0.1055 -0.1876  0.2871
 9253W        W24870  10.421  14.719  13.713 -0.2678 -0.0671  0.0458
 9254W        W24871   2.850   9.674  14.452 -0.3125 -0.2942  0.0121
 9255W        W24872   8.298  14.897  15.170  0.0456  0.2533  0.0365
 9256W        W24873   2.130   2.903  16.334  0.0599 -0.4091  0.0751
 9257W        W24874  13.749   1.394   0.953 -0.2117 -0.0502 -0.3302
 9258W        W24875   1.793   9.494   0.674 -0.0513  0.2718 -0.2014
 9259W        W24876  17.080   6.231   0.783  0.3013  0.0451  0.2955
 9260W        W24877   0.888  12.109   3.386  0.1592 -0.0445  0.2834
 9261W        W24878   1.002  15.251   1.059  0.1079 -0.0068  0.0165
 9262W        W24879   0.257  14.230   3.958  0.0816  0.1608 -0.2799
 9263W        W24880   5.128   5.116   0.554  0.4052  0.0972 -0.0596
 9264W        W24881   3.199  13.143  14.434  0.1321 -0.0487 -0.1026
 9265W        W24882   4.361  10.856   4.296  0.0044  0.4327 -0.2228
 9266W        W24883   5.257   8.794   3.043 -0.1342  0.1370  0.0971
 9267W        W24884   3.123  13.590   0.792  0.1781 -0.0578  0.2987
 9268W        W24885   6.529  13.316  11.584  0.1787 -0.4772  0.5125
 9269W        W24886  12.187  13.979  17.288 -0.0376  0.2634  0.1194
 9270W        W24887  12.460  17.312   1.966  0.0079  0.0730 -0.0874
 9271W        W24888  10.840  14.283  15.377  0.1858  0.3488 -0.0122
 9272W        W24889  12.748  11.387   6.037 -0.0353  0.0642 -0.1237
 9273W        W24890  14.841  11.916   2.464 -0.1376 -0.0765  0.2339
 9274W        W24891  14.038   4.734  13.414  0.2531 -0.3085 -0.0804
 9275W        W24892  13.834   5.377   1.447  0.0763  0.1764 -0.2613
 9276W        W24893   8.460  10.673   5.823  0.0898 -0.0779 -0.3478
 9277W        W24894  16.260  14.646  13.762 -0.2749 -0.1847  0.0116
 9278W        W24895  12.799   1.679  13.779  0.0616 -0.0131  0.2410
 9279W        W24896  10.741   6.730  14.880 -0.0424  0.1183 -0.1890
 9280W        W24897  17.122  11.255   2.900  0.1712 -0.2959  0.0643
 9281W        W24898   5.106   1.403   3.646 -0.0454  0.2211  0.2029
 9282W        W24899   3.773  17.200  12.603  0.1225  0.2234  0.0424
 9283W        W24900  14.428  16.743  13.443 -0.0338  0.1802  0.3133
 9284W        W24901   4.477   7.438  13.185 -0.1717 -0.0936  0.2254
 9285W        W24902   5.080   2.801   2.984 -0.0201  0.2127  0.1342
 9286W        W24903   7.720   2.979   1.601  0.0963 -0.0603  0.2689
 9287W        W24904   0.277  10.686  13.506  0.1530 -0.0762  0.1630
 9288W        W24905  12.131   3.705  13.320  0.0513 -0.0640 -0.2884
 9289W        W24906   8.118   6.490  12.891 -0.1352  0.1289  0.0861
 9290W        W24907  14.229   9.134  14.085 -0.1033 -0.0875  0.0164
 9291W        W24908   0.593  14.758   2.272 -0.5035 -0.3993  0.0389
 9292W        W24909  15.820   2.857   2.031 -0.1103 -0.0993 -0.0640
 9293W        W24910   0.669   4.078   1.372  0.0215 -0.1430  0.0391
 9294W        W24911  15.880  14.416  17.023  0.0961  0.1167 -0.0440
 9295W        W24912   9.938   9.564  15.028  0.1566  0.0708  0.1356
 9296W        W24913   6.935  13.876   4.144 -0.3083  0.2005 -0.1766
 9297W        W24914   1.485  13.145  16.796  0.3816 -0.0375 -0.3204
 9298W        W24915   2.043   9.650  14.244 -0.2211  0.1849  0.3219
 9299W        W24916   9.946  15.268   3.266 -0.1826 -0.1103 -0.1629
 9300W        W24917   6.831  11.276   2.993 -0.0991  0.0275  0.1282
 9301W        W24918  14.754  13.023   1.476 -0.0789  0.0647  0.2018
 9302W        W24919   2.607   1.584   2.908  0.0398  0.0481  0.0095
 9303W        W24920  12.780  13.914   2.110  0.2061  0.0408  0.1110
 9304W        W24921   3.352  10.887  16.533  0.2566 -0.0740  0.0784
 9305W        W24922   9.726   1.117  12.680  0.0410 -0.1659  0.0848
 9306W        W24923   8.673  13.025   3.792  0.0821 -0.2996  0.0971
 9307W        W24924   7.666   9.482   1.561  0.0262  0.1489  0.0646
 9308W        W24925   7.414   8.428   3.551 -0.2632  0.1809 -0.1097
 9309W        W24926  12.304  13.059   3.542 -0.0501  0.2701 -0.0877
 9310W        W24927   9.112   9.602  13.865  0.0459  0.0818 -0.1329
 9311W        W24928   0.352  14.667  16.907  0.0583 -0.2741 -0.0171
 9312W        W24929  12.772  15.297   5.742  0.0992  0.2009 -0.1082
 9313W        W24930   0.446   4.876  15.341 -0.4718 -0.1362  0.1041
 9314W        W24931   5.186  10.588  14.843 -0.4281  0.1817 -0.0139
 9315W        W24932  13.645  10.146  14.711  0.0580 -0.1852  0.2750
 9316W        W24933   8.972   4.325  11.466 -0.1911 -0.0251  0.0461
 9317W        W24934   7.905   8.450  16.176 -0.1860 -0.0513 -0.2174
 9318W        W24935   6.138   3.536   4.952 -0.1818 -0.1351  0.0478
 9319W        W24936  11.282   9.001  17.238 -0.1449 -0.0436  0.0414
 9320W        W24937  12.755  16.399  15.430 -0.2504  0.2685 -0.2044
 9321W        W24938  10.403   0.794   3.281 -0.1007 -0.0364 -0.3601
 9322W        W24939   0.166  12.127  15.322  0.0464 -0.0577 -0.1213
 9323W        W24940   6.277   8.817   6.159  0.2076 -0.0961 -0.0865
 9324W        W24941  10.156   1.976   2.576 -0.1233  0.0625 -0.3098
 9325W        W24942  13.418   1.317   5.339 -0.2206  0.2311  0.0691
 9326W        W24943  16.274   6.228   4.164  0.0843  0.1904  0.0647
 9327W        W24944   6.125  13.486  17.142 -0.2881 -0.0357  0.1437
 9328W        W24945  13.257  16.528  14.226  0.1162  0.1439  0.0259
 9329W        W24946  13.666   1.271   4.834  0.1272  0.0989  0.0245
 9330W        W24947  17.205   7.827  17.054 -0.2245  0.0497  0.2763
 9331W        W24948  15.149   1.975  12.401 -0.3493 -0.2269 -0.0747
 9332W        W24949  17.450  10.888  13.641  0.0017 -0.0402  0.1009
 9333W        W24950  13.221   9.540   4.109 -0.0631  0.1001 -0.1201
 9334W        W24951   3.489   3.525  13.181  0.1404 -0.2790 -0.1149
 9335W        W24952   1.374  16.243   3.532 -0.2585  0.1376  0.1022
 9336W        W24953   3.303  11.824   0.853 -0.0340  0.0880 -0.2769
 9337W        W24954  16.243   4.869   2.766  0.1183 -0.1299  0.0357
 9338W        W24955   4.998   5.601  13.581  0.0667 -0.1326  0.0417
 9339W        W24956  15.155  16.169  14.725  0.2562 -0.2220 -0.0591
 9340W        W24957   8.125  15.178   0.394  0.1051 -0.1229  0.3642
 9341W        W24958  10.851   3.558  17.069  0.0025 -0.1906 -0.0105
 9342W        W24959   0.123   1.269  15.625 -0.2582  0.2462 -0.3519
 9343W        W24960   6.901  16.357  12.931  0.2858 -0.1986 -0.0677
 9344W        W24961  14.354  10.748  11.986  0.0927 -0.1955  0.3437
 9345W        W24962   3.157  11.366   1.630 -0.1688 -0.0554 -0.0284
 9346W        W24963  17.354  16.728  11.900  0.0639 -0.1686 -0.1079
 9347W        W24964  11.456   6.692   4.793  0.0563  0.1150 -0.1269
 9348W        W24965   7.095   8.964   2.978  0.0408 -0.0843 -0.4572
 9349W        W24966  12.167  17.396   5.616 -0.2325  0.1154  0.1622
 9350W        W24967  12.511   0.600   0.470  0.0362 -0.3053  0.0897
 9351W        W24968  12.495   2.258   5.931 -0.0330  0.0049  0.1148
 9352W        W24969   7.971   3.533   1.637  0.4769  0.2283 -0.0670
 9353W        W24970   6.629  11.117  12.800  0.2948 -0.3693  0.2554
 9354W        W24971   6.754  12.516   1.059  0.0326  0.1334  0.0800
 9355W        W24972   2.503  16.970   2.443  0.1378 -0.0101  0.2820
 9356W        W24973   5.361   8.428   2.736 -0.1438  0.1054 -0.1126
 9357W        W24974   1.456   3.704   1.020  0.1806 -0.0620  0.0969
 9358W        W24975  17.305   8.184  14.030  0.0002 -0.0472  0.0075
 9359W        W24976  16.809  12.596  17.108  0.1679 -0.5584  0.1408
 9360W        W24977   9.080  15.849   2.320 -0.0970 -0.1382  0.0562
 9361W        W24978  15.833  13.450   0.999 -0.1144  0.1357  0.2211
 9362W        W24979   1.128   5.984   5.949  0.1344  0.5346 -0.1630
 9363W        W24980  15.997  14.043   3.667  0.0010 -0.0888 -0.1248
 9364W        W24981  12.193  16.678   2.194 -0.0959  0.0972 -0.1782
 9365W        W24982  13.663   8.072   6.493 -0.2397  0.0374  0.2172
 9366W        W24983   5.712  13.120   0.670 -0.1058 -0.0383  0.1832
 9367W        W24984   9.363   4.654  15.810 -0.1347  0.0328  0.0460
 9368W        W24985  16.835  14.579  15.517 -0.2408  0.0508  0.1166
 9369W        W24986  13.463   9.595  15.437  0.0337  0.2137  0.0352
 9370W        W24987   0.444   1.700  15.343  0.1379  0.1096 -0.1191
 9371W        W24988  13.288   8.419  13.553 -0.0522  0.0018 -0.1242
 9372W        W24989  13.711   1.383  15.826  0.1081  0.0780 -0.1691
 9373W        W24990  16.168  16.855  13.377 -0.2955 -0.1011 -0.0589
 9374W        W24991   1.911  11.468  13.880 -0.1601 -0.0801 -0.2298
 9375W        W24992   4.998  17.526  14.945  0.1048  0.3336  0.0491
 9376W        W24993   0.440  17.123   3.327  0.2306 -0.2040 -0.0860
 9377W        W24994   1.918   8.764   3.573 -0.0195  0.1505 -0.1361
 9378W        W24995   3.215  14.349  16.276  0.3355 -0.1429  0.2116
 9379W        W24996   2.016  12.509  12.442 -0.0353 -0.0092 -0.0676
 9380W        W24997   8.716   0.069   3.630  0.2425 -0.0759 -0.3472
 9381W        W24998   5.421  16.302  16.932 -0.1315  0.0935  0.0543
 9382W        W24999   8.378  15.333  14.214 -0.1004 -0.1341 -0.2028
 9383W        W25000  16.787   9.827   1.527  0.0260 -0.0252 -0.0494
 9384W        W25001  15.968  15.744  15.258  0.1210 -0.0200  0.0054
 9385W        W25002  14.399   7.161   2.041 -0.1385 -0.0929 -0.2107
 9386W        W25003   9.297   8.944  14.573 -0.1827 -0.3616  0.2573
 9387W        W25004  14.689   6.303  14.065 -0.1996 -0.2646  0.0160
 9388W        W25005   7.548   6.236   1.501  0.1517 -0.0537 -0.0076
 9389W        W25006   9.236  12.166   2.619  0.1071 -0.1544  0.1894
 9390W        W25007  16.877   0.268   1.717  0.1244  0.0170  0.2773
 9391W        W25008  10.346   1.620  16.032 -0.0216 -0.1001 -0.3744
 9392W        W25009   1.097  10.630   3.205  0.1817  0.0962  0.0868
 9393W        W25010  17.094   0.583  13.395  0.0381 -0.0583  0.1957
 9394W        W25011   8.860  15.229  16.638 -0.1737  0.0916 -0.2655
 9395W        W25012   3.760  10.478   5.200 -0.1880 -0.3148  0.0061
 9396W        W25013   1.584   3.213  14.957  0.1827  0.0690  0.2312
 9397W        W25014  10.147   9.184   5.320 -0.2069  0.1439 -0.2054
 9398W        W25015  17.233   2.334   5.939  0.1920  0.1241 -0.1714
 9399W        W25016   9.295  16.026   5.096 -0.2013 -0.0532 -0.2252
 9400W        W25017  11.266  12.390   1.468 -0.2463  0.1971  0.0673
 9401W        W25018  10.268   3.311   2.222  0.3207 -0.1221  0.1824
 9402W        W25019   2.244  10.370   4.003  0.0327 -0.0680  0.1764
 9403W        W25020  14.753  12.119   4.187 -0.1772 -0.2745 -0.0838
 9404W        W25021   2.814  16.247  13.577 -0.0125 -0.1287  0.1723
 9405W        W25022  11.381   9.729  13.943 -0.1151  0.5015 -0.0203
 9406W        W25023   8.977   9.313  15.412 -0.0421  0.1008  0.1522
 9407W        W25024   3.226  10.725   2.953 -0.2673  0.1663 -0.0646
 9408W        W25025   8.650   2.075  12.710 -0.0013  0.1531 -0.4614
 9409W        W25026  11.487  14.030  14.004  0.1445  0.0869 -0.1815
 9410W        W25027  16.369  10.266  14.590 -0.1756 -0.3153  0.1213
 9411W        W25028   8.581   9.156  15.011  0.1517  0.2694  0.0047
 9412W        W25029   8.251   6.999   4.393  0.0543 -0.0638  0.1989
 9413W        W25030   2.206  13.257   0.740 -0.1919  0.1480  0.1637
 9414W        W25031  13.219  14.635  11.446 -0.0992  0.1311  0.2790
 9415W        W25032  12.063  13.608   4.040  0.2438 -0.0540 -0.0471
 9416W        W25033   7.360   2.932   3.974  0.0112 -0.0749 -0.3992
 9417W        W25034   7.805  16.566   4.766 -0.1548 -0.1191  0.4231
 9418W        W25035   3.587   3.774   6.966 -0.0714  0.0944  0.0333
 9419W        W25036   8.916   5.035   3.182 -0.3053 -0.0827  0.2129
 9420W        W25037   6.420   8.941   4.500 -0.0211 -0.1826 -0.0730
 9421W        W25038   0.047  10.685   3.556 -0.4407 -0.1365 -0.0078
 9422W        W25039  13.061   3.352  13.263 -0.1695 -0.1282 -0.0316
 9423W        W25040  14.865   4.426   3.483 -0.2026  0.0743 -0.0555
 9424W        W25041   9.700  10.461   0.449 -0.0774 -0.0793 -0.0492
 9425W        W25042  12.938   4.012  13.065  0.2796  0.2620 -0.0430
 9426W        W25043   1.848   0.776   1.257 -0.0490  0.2588  0.1144
 9427W        W25044   7.958   0.203  11.535 -0.0715  0.6319 -0.0117
 9428W        W25045  15.490  12.060   0.111 -0.1446  0.2175 -0.0568
 9429W        W25046  16.489  13.531  15.628 -0.0979  0.1285  0.1391
 9430W        W25047   5.455   7.046   0.967 -0.1449  0.1081 -0.2424
 9431W        W25048  14.767  15.501  11.014 -0.0132  0.0986  0.3855
 9432W        W25049  15.018   3.155   1.729  0.1179 -0.0356 -0.0729
 9433W        W25050   5.518  10.636  13.991 -0.1880  0.0730 -0.0016
 9434W        W25051   7.523   8.958   1.593  0.2762 -0.2659  0.3966
 9435W        W25052  16.729   2.564   4.488 -0.1226 -0.0527  0.2184
 9436W        W25053  14.234   8.891  15.334  0.2997 -0.0579  0.2897
 9437W        W25054   6.443   2.346   0.525 -0.2472  0.2098  0.1349
 9438W        W25055   7.589  12.401   3.708  0.2871  0.1166 -0.1255
 9439W        W25056   6.434   9.755  16.692  0.2962  0.0164  0.0497
 9440W        W25057   0.720  12.452   0.128  0.0856 -0.0406 -0.1570
 9441W        W25058   0.577   7.891   1.946 -0.0582 -0.1178 -0.1040
 9442W        W25059   7.970   9.404   2.053 -0.0160  0.0360 -0.1747
 9443W        W25060   1.241  10.626  12.864 -0.1168 -0.0388  0.1960
 9444W        W25061   1.376   9.339  13.206  0.0901 -0.1980 -0.0527
 9445W        W25062   6.072   4.542  16.409 -0.3195 -0.2128  0.1571
 9446W        W25063  12.857   7.845  13.525 -0.0146 -0.1576 -0.2034
 9447W        W25064   5.442   3.348   6.018 -0.1027 -0.0226 -0.0055
 9448W        W25065  13.822   5.089  16.707  0.2772 -0.3433  0.1131
 9449W        W25066   1.028   2.173  16.406 -0.1521 -0.2728  0.3184
 9450W        W25067  12.459   7.405   5.033 -0.3017  0.2877  0.0094
 9451W        W25068  13.343   2.110  11.876  0.0098 -0.0582 -0.1415
 9452W        W25069   5.562   3.892   3.053 -0.1272  0.0147  0.3375
 9453W        W25070   0.809   7.658   2.434  0.1956  0.1967 -0.0760
 9454W        W25071  11.749  11.257   4.256  0.1733  0.2234 -0.0312
 9455W        W25072  16.204  13.418   2.315  0.0315  0.1870  0.0556
 9456W        W25073   9.303   3.562  14.708 -0.1156  0.1105  0.2475
 9457W        W25074   5.147  12.572  15.836 -0.2653 -0.0709  0.0797
 9458W        W25075  13.934   2.707  13.748  0.1841  0.3587 -0.0159
 9459W        W25076   5.918   2.005   0.840 -0.4245 -0.0033  0.1547
 9460W        W25077  10.626   0.097   1.265 -0.2235  0.4010 -0.1540
 9461W        W25078  11.814   3.785  12.137  0.0630  0.1206 -0.1726
 9462W        W25079   0.488  15.777  14.792 -0.0474 -0.0249  0.3625
 9463W        W25080   9.974   5.040   4.021  0.0708 -0.2851  0.1117
 9464W        W25081   3.891  10.134  15.015 -0.1379  0.2566 -0.1295
 9465W        W25082   6.036   4.304  14.438  0.1449  0.0653  0.1265
 9466W        W25083   7.245   9.290   4.313 -0.1039 -0.2927 -0.2741
 9467W        W25084   6.675  12.855   3.205 -0.0439 -0.1395  0.0890
 9468W        W25085  10.550   4.753  15.338 -0.1023  0.0489  0.0168
 9469W        W25086   8.018   7.693   0.103  0.1793 -0.1963  0.1902
 9470W        W25087  11.180   1.615   3.267  0.0954 -0.1131 -0.1395
 9471W        W25088  16.329  11.369  12.382  0.0461 -0.1052 -0.2173
 9472W        W25089   2.292  16.288   4.247 -0.2989 -0.0126  0.3184
 9473W        W25090  14.042   5.257   2.834 -0.1447 -0.1384  0.0685
 9474W        W25091  15.247   7.303  15.511  0.2090 -0.1231 -0.0356
 9475W        W25092   8.020   7.276   6.210  0.1996  0.1601  0.1839
 9476W        W25093   0.209   0.074  13.173 -0.0676  0.0469 -0.2978
 9477W        W25094  12.078   7.123  14.482 -0.0739 -0.1985 -0.0549
 9478W        W25095   2.946   5.924   3.608  0.0970 -0.0568 -0.4110
 9479W        W25096  16.725   5.289   4.549  0.1972 -0.0475 -0.0188
 9480W        W25097   9.830  15.754   2.326  0.3890 -0.1366  0.0633
 9481W        W25098   9.140  10.104  13.776 -0.1411 -0.2749  0.1654
 9482W        W25099  10.821   1.706   1.354  0.0467  0.1941  0.1309
 9483W        W25100  10.372  17.260  14.976 -0.0867 -0.3018 -0.2055
 9484W        W25101  10.343  14.918   3.195 -0.0936 -0.1231  0.0325
 9485W        W25102  15.995   8.494  15.482  0.0802 -0.1205  0.0431
 9486W        W25103  11.384   3.549  12.307  0.1728 -0.0776  0.1881
 9487W        W25104   9.774  13.678   3.196 -0.2459 -0.2093 -0.1042
 9488W        W25105   7.289   4.485  16.217 -0.1393 -0.1171 -0.0379
 9489W        W25106   5.282   5.547  12.361 -0.1743 -0.0095  0.1413
 9490W        W25107   5.170  11.422   2.409  0.1397 -0.2720 -0.0024
 9491W        W25108   8.476  11.133  13.617  0.0574 -0.1379 -0.2216
 9492W        W25109  11.320   1.857  16.030 -0.0826  0.1040 -0.0027
 9493W        W25110  14.912   3.610  14.184 -0.1592 -0.0705 -0.1425
 9494W        W25111   1.623  13.699  15.606  0.0173 -0.1452 -0.1756
 9495W        W25112   2.217   3.832   5.862 -0.0812  0.0798  0.3374
 9496W        W25113   5.543  12.986  11.826 -0.0902 -0.2626  0.0445
 9497W        W25114  15.780   5.741   5.047  0.0445 -0.3225  0.1768
 9498W        W25115  14.292  14.113   3.222 -0.0193  0.1027  0.0980
 9499W        W25116  12.948   9.228  12.621  0.0191  0.1600 -0.1423
 9500W        W25117   4.033  12.636   4.851  0.1612  0.1138 -0.1610
 9501W        W25118   2.128   7.996  13.459  0.2346 -0.0834 -0.0534
 9502W        W25119   1.973  11.856  16.366 -0.0428  0.3075 -0.3378
 9503W        W25120   8.936   7.694   3.368 -0.1158 -0.3403 -0.2545
 9504W        W25121  15.436   7.822   2.067  0.2217 -0.0676  0.0886
 9505W        W25122  14.012   0.428  11.730 -0.0315  0.0307  0.1828
 9506W        W25123   4.244   1.646   1.835  0.0760  0.3016  0.0624
 9507W        W25124  13.803   6.492   4.561  0.0217 -0.1484  0.3327
 9508W        W25125   6.492  10.865   2.948 -0.0813 -0.0686 -0.0262
 9509W        W25126  14.468  16.053  14.005 -0.0609  0.2502 -0.0700
 9510W        W25127  12.692  11.180   2.836 -0.2516 -0.1777 -0.1435
 9511W        W25128   9.604   9.556   1.895 -0.1982  0.1836  0.0935
 9512W        W25129   2.672   0.602  12.371  0.1072 -0.0208  0.0803
 9513W        W25130  12.394   7.337  14.863  0.1780 -0.0495 -0.0210
 9514W        W25131  15.250   7.204  13.998  0.0914 -0.1401  0.0185
 9515W        W25132   4.709   9.930   4.169 -0.1705 -0.2235  0.2856
 9516W        W25133  17.351   1.660  15.581  0.1259  0.0534 -0.1555
 9517W        W25134  14.808  17.184  15.574 -0.2091 -0.1535  0.2533
 9518W        W25135   7.985   5.255  13.232  0.1299 -0.1459 -0.1544
 9519W        W25136   4.214   3.723   0.414  0.0061 -0.0619 -0.4034
 9520W        W25137   0.999   2.574  15.568  0.0722 -0.1815 -0.0938
 9521W        W25138  14.263   7.494   5.625  0.2233 -0.0838  0.0343
 9522W        W25139   4.452  12.420  16.289 -0.1052  0.0987  0.0402
 9523W        W25140   5.759   7.271   5.667 -0.0931 -0.1387 -0.1230
 9524W        W25141  15.773  16.407  13.519 -0.5356  0.1140 -0.0404
 9525W        W25142  11.276  15.235  12.073  0.1112 -0.2590  0.2321
 9526W        W25143  10.905   8.146  14.005  0.2742  0.2902 -0.1255
 9527W        W25144   0.784  11.698   1.723 -0.0686  0.1060  0.2396
 9528W        W25145  15.658   5.131  14.710  0.0411  0.0534 -0.1631
 9529W        W25146  10.899   3.804  14.300  0.0475 -0.0581  0.2105
 9530W        W25147  14.288   2.561   3.228 -0.0393  0.1403 -0.0919
 9531W        W25148   5.388  15.276   3.759  0.0612 -0.0121  0.0784
 9532W        W25149   0.243   6.937  14.490 -0.3302  0.1695  0.1277
 9533W        W25150   9.348  15.291  12.424 -0.1452  0.1425  0.3636
 9534W        W25151   2.716  13.750  15.267 -0.2428 -0.1973  0.0094
 9535W        W25152   5.900  17.077   4.168  0.1066 -0.2283  0.2993
 9536W        W25153  13.683  11.384  13.322  0.0383 -0.0985  0.0499
 9537W        W25154  14.677  13.984  14.783  0.0674  0.0093 -0.0334
 9538W        W25155  15.783   0.995  12.057 -0.3853  0.2487  0.0074
 9539W        W25156   5.943  11.638   0.510 -0.0341  0.1170 -0.0673
 9540W        W25157  15.297   5.881  15.143 -0.0951 -0.3377  0.0860
 9541W        W25158   0.274  14.652  13.303 -0.0682  0.2794 -0.2563
 9542W        W25159   8.849  12.334   4.591 -0.1511  0.2684  0.0268
 9543W        W25160   1.747  12.265  13.419  0.2752  0.1377 -0.1925
 9544W        W25161  15.472   8.247   6.310  0.3334 -0.2604  0.3213
 9545W        W25162   8.898  10.364  17.225 -0.1592  0.3631  0.3375
 9546W        W25163   1.814   9.631  12.899 -0.0486  0.1079 -0.1055
 9547W        W25164  12.284   2.747  13.174  0.3167  0.0288  0.1075
 9548W        W25165   5.100   1.121  15.461 -0.1371  0.2921 -0.2876
 9549W        W25166   5.062   6.379   4.552  0.0867 -0.2265 -0.1020
 9550W        W25167   6.117  16.325   4.087  0.2126 -0.2362 -0.1296
 9551W        W25168  14.024   8.779   0.235  0.3836 -0.0130 -0.0586
 9552W        W25169   8.570   4.088  15.873 -0.0760  0.0229 -0.0916
 9553W        W25170   0.021   0.067   5.493  0.0078  0.1530 -0.1235
 9554W        W25171  15.376  10.102  12.930 -0.1278 -0.0282 -0.1487
 9555W        W25172   6.968   2.228   3.778 -0.0784 -0.3144  0.1465
 9556W        W25173   9.182   0.152  13.169 -0.1413  0.1096 -0.1416
 9557W        W25174   4.388   4.815  13.865 -0.4965  0.2813  0.0609
 9558W        W25175  12.798  11.523  15.075 -0.2451 -0.1078  0.1422
 9559W        W25176  17.377  14.121  16.360  0.1969 -0.2334 -0.0044
 9560W        W25177  14.145  10.359  13.146 -0.1095 -0.2350  0.1345
 9561W        W25178   0.318  14.130   4.454 -0.0385 -0.1722 -0.4678
 9562W        W25179   8.934  16.811   0.914 -0.1647  0.2220  0.1895
 9563W        W25180   8.225   8.541   3.622 -0.3246 -0.1575  0.0144
 9564W        W25181   3.349  11.927  16.879  0.0495 -0.1134  0.2035
 9565W        W25182   7.681  10.957   1.917 -0.0106 -0.2131  0.2199
 9566W        W25183   5.433   2.091   2.584  0.0611 -0.1590  0.0154
 9567W        W25184   4.906  15.567   5.250  0.3363 -0.2440 -0.1182
 9568W        W25185   2.743   7.955   4.245 -0.3025  0.0309  0.0466
 9569W        W25186   0.725   4.660  15.884  0.2260 -0.1090 -0.2002
 9570W        W25187   3.411  11.661   2.766 -0.1750  0.1596  0.0627
 9571W        W25188   4.240   7.912   3.595  0.1155 -0.0973  0.1770
 9572W        W25189  13.427   1.742   4.126  0.4553 -0.0664  0.2929
 9573W        W25190   7.040   7.527  14.650  0.1775 -0.0960  0.1268
 9574W        W25191   0.842   0.691  12.249  0.0970 -0.2024 -0.0485
 9575W        W25192   7.146   1.742   2.430 -0.0868  0.0319 -0.0901
 9576W        W25193  12.431  14.800  11.821  0.0915  0.0115 -0.0815
 9577W        W25194  15.404  12.088   3.077  0.2137  0.0916  0.1862
 9578W        W25195   0.948  13.190  16.770  0.0868 -0.0846 -0.1788
 9579W        W25196  14.471  15.949   4.993  0.1622  0.0794 -0.2698
 9580W        W25197   9.976  10.371   2.582 -0.0448 -0.0598 -0.0400
 9581W        W25198   2.369  14.786  16.068 -0.1358 -0.0511  0.1834
 9582W        W25199   8.774  13.135  15.847  0.2208  0.0660  0.0804
 9583W        W25200   3.816   0.017   5.444 -0.1506 -0.2458 -0.2982
 9584W        W25201   7.127   6.747   2.239  0.3034 -0.1486  0.0191
 9585W        W25202  11.790  17.362   3.616  0.2125 -0.0849 -0.0164
 9586W        W25203   6.907   9.530  13.587 -0.0787  0.0376  0.2938
 9587W        W25204   0.686   2.957   5.563 -0.3200  0.0250  0.0422
 9588W        W25205   3.724   4.352   3.879  0.0339  0.2218 -0.1738
 9589W        W25206  14.097  15.193   4.434  0.0463  0.0518  0.2307
 9590W        W25207   4.717  12.475  12.336 -0.3432 -0.0962 -0.2068
 9591W        W25208   8.447   1.355  14.979  0.1919 -0.2563  0.1397
 9592W        W25209  17.615   5.181  11.930 -0.0636  0.3111  0.0859
 9593W        W25210  15.989  16.801   2.188 -0.0657  0.0480 -0.1717
 9594W        W25211   1.142  11.621   4.302  0.1988  0.3945  0.2290
 9595W        W25212   4.432  10.194   0.556  0.0021 -0.0591 -0.0357
 9596W        W25213  11.231  17.504  15.073 -0.1945  0.0333  0.0198
 9597W        W25214   1.164  10.387  17.258 -0.0168  0.0273  0.1360
 9598W        W25215  11.332   6.434   6.104  0.1142  0.0637  0.1221
 9599W        W25216  15.606   0.183  16.098  0.2129 -0.3080 -0.0278
 9600W        W25217  17.320   7.773  16.222 -0.3069 -0.1671  0.1728
 9601W        W25218   0.518   0.664   0.553 -0.0899 -0.1013  0.2584
 9602W        W25219  13.356   4.411  16.645  0.2280  0.1061  0.3269
 9603W        W25220   1.496  12.634  16.672 -0.0050 -0.2479 -0.0271
 9604W        W25221   3.980  15.906  17.216 -0.1572  0.3539 -0.1371
 9605W        W25222   4.939   6.813  12.757 -0.0113 -0.0629 -0.0165
 9606W        W25223   8.712   2.174   3.086  0.1064 -0.1829 -0.1836
 9607W        W25224   1.993   7.424   3.118  0.0447 -0.0119  0.2682
 9608W        W25225   6.341   5.015  16.588 -0.0589 -0.0065  0.0582
 9609W        W25226  10.098   0.265  12.644 -0.0737  0.1665 -0.2155
 9610W        W25227  11.196  16.832   4.535  0.2987 -0.0239  0.3223
 9611W        W25228   6.943   5.122   2.712  0.0372  0.1407  0.2236
 9612W        W25229   0.356   9.805  15.771  0.1071 -0.0010 -0.0236
 9613W        W25230   3.771   7.588   3.340  0.0684  0.0470 -0.1906
 9614W        W25231   3.285   7.397   1.393 -0.1753 -0.0073 -0.1085
 9615W        W25232   3.425  12.273  14.364 -0.0303  0.1825 -0.2178
 9616W        W25233  12.780   7.583  13.038 -0.2518  0.0131 -0.1554
 9617W        W25234   9.633  10.823   5.139  0.0285  0.0159  0.0820
 9618W        W25235   6.557  15.144   1.456  0.0358  0.2085  0.0716
 9619W        W25236  13.375   0.822  15.048  0.1076 -0.0064  0.0455
 9620W        W25237  15.058  11.895  17.213  0.1587 -0.0098 -0.2127
 9621W        W25238  11.756   9.246  16.533 -0.0795 -0.1641  0.1988
 9622W        W25239   1.101  16.728   0.038 -0.1806  0.0277 -0.3135
 9623W        W25240  17.189   8.688   2.998  0.2982  0.3230  0.1428
 9624W        W25241  11.284   3.881   0.706  0.1508  0.2068 -0.0218
 9625W        W25242   9.188  12.527  16.756 -0.0432 -0.1229  0.1874
 9626W        W25243   9.165  12.358   1.672  0.0681  0.2573 -0.0025
 9627W        W25244  17.555  14.709   0.201 -0.0125 -0.2616  0.2283
 9628W        W25245  11.122  14.130   0.909 -0.0672  0.0079  0.0855
 9629W        W25246   1.545   1.364   2.467 -0.1178 -0.0756  0.0849
 9630W        W25247  14.394   0.751  12.431 -0.3134 -0.1521  0.0835
 9631W        W25248   1.273  14.764   1.858  0.0576 -0.0255  0.0154
 9632W        W25249  16.117   8.389  13.738  0.1116  0.0110  0.1811
 9633W        W25250   1.899   5.466   0.134  0.2597 -0.1604 -0.2399
 9634W        W25251  13.465   4.698  17.066 -0.0313 -0.2028 -0.1963
 9635W        W25252   8.984  14.529  10.792  0.1342  0.3302 -0.2910
 9636W        W25253  15.893   1.994   1.584  0.0715  0.2410 -0.2020
 9637W        W25254   2.180   9.505   6.159 -0.0623 -0.1091 -0.2808
 9638W        W25255  16.375  10.364   6.016 -0.2748  0.0260 -0.0877
 9639W        W25256  15.133  12.394   0.121 -0.1717  0.0667  0.0957
 9640W        W25257   2.099   6.361  12.608 -0.0799 -0.0975  0.0687
 9641W        W25258  14.408   0.086   3.152  0.2775 -0.0063 -0.1744
 9642W        W25259  13.044  13.601   1.211 -0.0950  0.1737  0.0091
 9643W        W25260   9.780   0.396  14.981  0.0732  0.1254 -0.0488
 9644W        W25261   0.320   7.441   3.274  0.1213 -0.2666  0.2780
 9645W        W25262  10.599   5.288  15.633 -0.1152 -0.0936  0.1051
 9646W        W25263   3.606  15.738  14.867 -0.0933 -0.1302  0.0934
 9647W        W25264   5.097  13.979  12.550  0.0681 -0.2277  0.1186
 9648W        W25265   8.579   6.633   4.705  0.2853 -0.3042  0.1167
 9649W        W25266   4.332  12.537  13.100 -0.1492 -0.1003 -0.1279
 9650W        W25267  14.882  16.701   5.635  0.2581 -0.2558  0.0038
 9651W        W25268  13.604  17.000   2.581 -0.2307  0.2509  0.0318
 9652W        W25269  10.844   1.599  16.849 -0.0309  0.0291  0.0462
 9653W        W25270  13.216   2.576   4.784  0.2680  0.2779  0.0185
 9654W        W25271   1.584   4.905   4.928  0.2298 -0.0642 -0.0208
 9655W        W25272   5.957   7.513  15.027  0.0070  0.2076 -0.2810
 9656W        W25273  17.376   4.787   2.209  0.2004 -0.0264  0.1094
 9657W        W25274   1.481   5.991   3.921  0.0806  0.1165  0.0299
 9658W        W25275  17.352   3.691  13.570  0.0857 -0.2704  0.5106
 9659W        W25276   5.253  14.454   0.549 -0.2334 -0.2596  0.0551
 9660W        W25277  12.526   5.450  11.907  0.0038 -0.1990 -0.0181
 9661W        W25278   7.190  12.891  12.003  0.4355  0.2471 -0.0955
 9662W        W25279  16.757  13.859   2.902  0.0713 -0.2601 -0.2105
 9663W        W25280   7.542   3.657   6.588  0.2097 -0.0169  0.0353
 9664W        W25281   8.411   3.397  12.567 -0.2591 -0.1185 -0.2447
 9665W        W25282   1.955   6.068   5.308  0.0807  0.0501  0.1842
 9666W        W25283  13.604   4.468  13.479 -0.0989  0.0861 -0.4501
 9667W        W25284  14.738   2.917   1.306  0.3005 -0.1406 -0.0858
 9668W        W25285  15.564   5.530   3.113 -0.0129  0.2364  0.0660
 9669W        W25286   2.647  16.333  16.276 -0.2319 -0.3487  0.0790
 9670W        W25287  13.132  14.885  16.542 -0.1751 -0.0460  0.1999
 9671W        W25288   3.375   8.881   5.235 -0.0251 -0.0303  0.0050
 9672W        W25289   1.943   2.141  16.963 -0.3420  0.2045 -0.0764
 9673W        W25290   0.992   0.820  15.355  0.0673  0.0739  0.1969
 9674W        W25291   9.111  16.371   4.075  0.0651  0.0008  0.0440
 9675W        W25292  11.494  17.210  16.211 -0.1995 -0.1794  0.0987
 9676W        W25293   7.450   0.804  12.621  0.0336 -0.3681  0.0853
 9677W        W25294   5.490  10.085  14.076  0.2063  0.1925  0.0768
 9678W        W25295   0.729   7.178  15.254  0.3809 -0.1338 -0.0372
 9679W        W25296   2.015  14.722   4.774  0.0718  0.3405 -0.0849
 9680W        W25297   6.052   9.771   4.750  0.5316  0.0359  0.3236
 9681W        W25298   7.845   0.919  17.115 -0.2754  0.1898 -0.2181
 9682W        W25299   0.233  11.304   5.633 -0.1079  0.1403  0.1580
 9683W        W25300  15.705   1.559   2.785 -0.1363 -0.0762 -0.0048
 9684W        W25301   6.622  16.079  16.011  0.3800 -0.3005 -0.1659
 9685W        W25302  16.390   4.272   3.241 -0.0746 -0.1928 -0.0222
 9686W        W25303   4.883   4.178   2.679 -0.0323  0.0341 -0.1824
 9687W        W25304  14.238   3.717  12.776  0.0554 -0.0694  0.1550
 9688W        W25305   2.669   9.162  14.022  0.0007  0.0829  0.0546
 9689W        W25306  12.209  12.005   0.392 -0.1353  0.1613  0.1405
 9690W        W25307  15.792   1.822   5.000  0.1913  0.2973  0.0539
 9691W        W25308   7.520   6.831   5.455  0.0263 -0.1197  0.3122
 9692W        W25309  11.595  11.593  14.658  0.1629  0.1667 -0.2364
 9693W        W25310   6.275  13.269  16.194 -0.3842 -0.3549  0.0593
 9694W        W25311   3.757  13.641   1.022  0.1898  0.0272  0.1711
 9695W        W25312  10.500  14.622   0.352  0.0869 -0.4182  0.0382
 9696W        W25313   1.622  14.202  17.020  0.0839  0.0950 -0.4493
 9697W        W25314   3.690   6.543  12.506 -0.3441 -0.4118 -0.2130
 9698W        W25315  11.654  12.835   4.401  0.1194  0.0091  0.1397
 9699W        W25316   0.703   5.420   0.124 -0.1922  0.3045  0.1026
 9700W        W25317  15.243   0.726   1.365  0.0254  0.2274  0.2327
 9701W        W25318   2.355   0.503  14.368  0.0442  0.1861  0.0310
 9702W        W25319   7.369   6.393   1.937  0.0619  0.0697  0.0385
 9703W        W25320   3.109  16.113   0.975  0.0069  0.0659 -0.1645
 9704W        W25321   9.333  17.232  16.982  0.2641 -0.1850 -0.0466
 9705W        W25322   3.446  10.501  14.762 -0.1660  0.0207 -0.0386
 9706W        W25323  13.289  13.767   4.238  0.0513 -0.0365 -0.1850
 9707W        W25324  13.803   6.797   4.122  0.0402  0.2159 -0.0576
 9708W        W25325   8.713  14.345   3.380  0.0863  0.2686 -0.0684
 9709W        W25326  15.960  14.593  12.168 -0.2141  0.1745  0.0098
 9710W        W25327   8.729   3.162  16.535 -0.0818 -0.4412  0.2479
 9711W        W25328   1.754   6.197   0.620  0.4547 -0.0840  0.3196
 9712W        W25329   7.303   1.172  12.346  0.0539  0.0994  0.2423
 9713W        W25330   8.548  11.192   1.524  0.0504 -0.3233  0.1093
 9714W        W25331   3.666   8.264   1.899  0.1495 -0.1946  0.2537
 9715W        W25332  12.841  16.455  12.851 -0.1001  0.0285  0.2794
 9716W        W25333  12.623   9.503   2.829  0.4315  0.0954 -0.0287
 9717W        W25334   8.650   4.433  14.939 -0.0030  0.1611 -0.2284
 9718W        W25335  13.736  11.354  16.698  0.0846  0.1004  0.1435
 9719W        W25336  15.522   6.271   1.715 -0.2015  0.2072 -0.0759
 9720W        W25337  17.189   5.507  15.876  0.1561  0.1189 -0.0360
 9721W        W25338  10.153   2.957  15.657 -0.0151 -0.0824 -0.0461
 9722W        W25339   7.231   8.328   3.066  0.2637  0.0663 -0.4037
 9723W        W25340   9.483   0.738   3.542 -0.0159 -0.1683  0.0462
 9724W        W25341  10.716   6.753   5.408  0.1312 -0.0736  0.0894
 9725W        W25342   5.068  11.959   6.032  0.1251 -0.0540  0.2456
 9726W        W25343   3.498   0.577   3.921 -0.0775  0.1532  0.2976
 9727W        W25344   7.874   2.485  13.760 -0.0450 -0.0749  0.1312
 9728W        W25345   9.232   9.114   5.587  0.1050  0.1795  0.0527
 9729W        W25346   8.012   0.927   3.251 -0.4704 -0.0390 -0.2022
 9730W        W25347   5.752  16.203   3.716 -0.1696  0.3780 -0.1050
 9731W        W25348   4.878   9.123   0.669  0.3866  0.0489  0.1786
 9732W        W25349  13.021   0.145   5.512  0.0368  0.2939  0.1661
 9733W        W25350   5.317  15.341  14.639  0.3577 -0.0437  0.3430
 9734W        W25351  16.134  10.397   1.431  0.2813  0.2450  0.1300
 9735W        W25352  17.234   2.134   2.342  0.2659  0.3780 -0.1515
 9736W        W25353   3.632   0.245  16.618 -0.2060  0.0573 -0.0503
 9737W        W25354   2.592  10.175   2.215  0.3082  0.3385 -0.1009
 9738W        W25355   3.623  17.141   5.616  0.0039  0.1144 -0.1962
 9739W        W25356   2.779   9.168   3.108 -0.0379  0.1830 -0.1271
 9740W        W25357  15.557   3.143  12.188  0.3180 -0.0921  0.1955
 9741W        W25358   7.776   8.193   3.317 -0.1716 -0.1339  0.0881
 9742W        W25359   2.316  15.751   0.149 -0.3487 -0.1943  0.3214
 9743W        W25360  16.237   8.913   5.975  0.2551 -0.2809 -0.1636
 9744W        W25361  10.734   3.178   0.719 -0.0786 -0.0719 -0.1772
 9745W        W25362   3.972  15.600  16.849 -0.1920  0.0444  0.0380
 9746W        W25363  15.831   1.298  14.874 -0.0728 -0.1411 -0.3419
 9747W        W25364   9.748  14.610  13.041 -0.0981  0.0152  0.3326
 9748W        W25365  15.058  14.527   5.745  0.2855  0.2665 -0.2987
 9749W        W25366  16.511   4.546   3.756 -0.1138 -0.0765 -0.0623
 9750W        W25367  12.283  15.194  16.679  0.1831  0.3094 -0.0023
 9751W        W25368   6.602   3.098  15.597  0.1274 -0.1201  0.4099
 9752W        W25369  15.756  10.066   4.207 -0.0986 -0.1254  0.0303
 9753W        W25370   0.406  15.541   0.080  0.1446  0.1851  0.1499
 9754W        W25371  17.283  13.127  12.603 -0.2276  0.1963 -0.3076
 9755W        W25372   1.637   8.945  12.857 -0.2648  0.0111 -0.2024
 9756W        W25373   3.476   8.912   1.653  0.1349  0.0091  0.2056
 9757W        W25374  14.755   3.540  15.261 -0.1638 -0.0556 -0.0559
 9758W        W25375   4.220  10.840  14.517 -0.0296  0.1587 -0.1453
 9759W        W25376   8.191  13.361  15.803 -0.0390  0.1901  0.1945
 9760W        W25377  12.208   1.247   4.401  0.3820  0.2201 -0.3541
 9761W        W25378   2.484  12.616   2.851  0.0081  0.0470 -0.0851
 9762W        W25379   4.265  16.697  16.321 -0.0915  0.2386 -0.1005
 9763W        W25380   7.809  13.091   1.843  0.3157  0.0212  0.3615
 9764W        W25381   0.640  15.056  15.599  0.2350  0.0044  0.0145
 9765W        W25382   5.892   4.092   5.771  0.0943  0.4248  0.1829
 9766W        W25383  14.115   1.558   0.642  0.1844 -0.2289 -0.2663
 9767W        W25384   9.699   7.108   5.463  0.1555  0.2379 -0.1281
 9768W        W25385   0.264  11.714  15.727  0.1969  0.1133  0.3184
 9769W        W25386  12.339  14.141   1.915 -0.1669 -0.1337  0.0956
 9770W        W25387   1.491   3.256   4.288 -0.1355 -0.3083 -0.4821
 9771W        W25388  12.666  17.327   5.456  0.0032 -0.3459  0.0037
 9772W        W25389  12.493  13.019   1.792  0.2155  0.0093  0.1439
 9773W        W25390  11.206  11.031   1.647 -0.0814 -0.2797 -0.0393
 9774W        W25391   6.583   2.329   4.925 -0.1072  0.2197  0.0059
 9775W        W25392   9.506   0.705  12.692 -0.2317  0.1216 -0.0379
 9776W        W25393   5.701   0.753   4.012 -0.1441  0.0412  0.0355
 9777W        W25394  11.187  11.999   4.308 -0.3458 -0.3294 -0.2190
 9778W        W25395   2.852   2.897   3.135  0.1978 -0.1864 -0.2857
 9779W        W25396   5.567  11.427  16.647 -0.1262  0.1503  0.0793
 9780W        W25397   7.346   1.618  16.973 -0.1394  0.1227 -0.2483
 9781W        W25398   4.228   1.134   0.330  0.0671 -0.3085 -0.2025
 9782W        W25399   9.925   5.287   2.030  0.1233 -0.1440 -0.0870
 9783W        W25400   8.998  11.236  13.742  0.0981 -0.1407  0.2010
 9784W        W25401   1.660  10.921   4.115  0.0663 -0.0557  0.2740
 9785W        W25402   6.709   4.810   1.788  0.3009 -0.0689 -0.3800
 9786W        W25403  11.297  12.957   1.498 -0.0922  0.0366 -0.1591
 9787W        W25404   9.096  10.397  12.403  0.3206 -0.0385  0.2669
 9788W        W25405  11.929   1.129  14.514 -0.1211  0.3243 -0.1524
 9789W        W25406   7.877   9.407   0.399 -0.0597  0.1689  0.2112
 9790W        W25407  16.052   9.631  12.321  0.4905 -0.2689 -0.0049
 9791W        W25408  13.472  11.781   4.601  0.4131  0.0853 -0.2083
 9792W        W25409  10.904  11.370   4.891  0.1372 -0.1533 -0.1671
 9793W        W25410   7.375   1.388  11.458  0.0886 -0.3179 -0.4687
 9794W        W25411   3.965   0.733   4.575 -0.1817 -0.1378 -0.0240
 9795W        W25412   7.313  14.790   2.798 -0.0176  0.3217  0.1165
 9796W        W25413   3.217   4.447   4.092 -0.0617  0.1455  0.2634
 9797W        W25414   9.546  16.395   4.321 -0.0358  0.0946 -0.2606
 9798W        W25415  16.616  11.419   2.246 -0.1436 -0.4782  0.0716
 9799W        W25416   2.725  13.932  14.741  0.1995  0.0199  0.0753
 9800W        W25417  15.256   7.595   4.578 -0.0257  0.0422 -0.1444
 9801W        W25418  15.324  13.882  14.256  0.0938 -0.1680 -0.1041
 9802W        W25419   6.769   3.179   1.380 -0.0342  0.0871 -0.0417
 9803W        W25420   0.648   6.433   0.861  0.1793  0.0686 -0.0629
 9804W        W25421   0.162  13.664   2.350  0.1081 -0.0321 -0.0393
 9805W        W25422   8.903   4.894   1.415 -0.2313 -0.0744  0.1870
 9806W        W25423   4.197   5.780   0.794  0.0522 -0.1001 -0.1046
 9807W        W25424  13.332   4.397  15.183 -0.1457  0.1048  0.3075
 9808W        W25425   9.240  12.090   4.224  0.0319 -0.1458 -0.2192
 9809W        W25426   1.886   0.393  16.602 -0.1283 -0.0128 -0.2400
 9810W        W25427  14.276  11.188   1.575  0.2492  0.0083  0.0301
 9811W        W25428   3.555  17.001   1.167 -0.0818  0.0973  0.3876
 9812W        W25429  13.194   5.755   1.331  0.2223 -0.1688 -0.2454
 9813W        W25430   3.303  17.300  13.000 -0.0507 -0.2081  0.1603
 9814W        W25431   7.222   1.170   6.316 -0.1604 -0.1119  0.1767
 9815W        W25432  10.889   6.134   2.125 -0.0062 -0.0586 -0.0849
 9816W        W25433   3.245   2.967   2.604 -0.0736  0.0324 -0.0607
 9817W        W25434   7.949  15.542  15.619 -0.0169  0.3197  0.0339
 9818W        W25435  10.232  15.280  13.843  0.0943  0.2230 -0.1884
 9819W        W25436  16.429   6.586   3.296  0.3702 -0.0998  0.1806
 9820W        W25437   2.184   1.407  12.370 -0.2218  0.1201  0.0721
 9821W        W25438   0.145   9.338   2.187 -0.0404 -0.0291  0.0071
 9822W        W25439   9.607  10.085   3.474 -0.1569  0.1584  0.3027
 9823W        W25440   4.585   0.517  14.475 -0.2828  0.0577 -0.0127
 9824W        W25441  17.057  11.956  13.051 -0.5455 -0.1610 -0.3487
 9825W        W25442  14.531   5.839   4.420  0.3447  0.1414  0.1258
 9826W        W25443   6.618   6.609   2.315  0.0577  0.0023 -0.0116
 9827W        W25444  14.570  16.522  11.245  0.0324 -0.0917  0.2058
 9828W        W25445   2.993   1.918   5.303 -0.0255  0.2753  0.0830
 9829W        W25446   1.894   4.725  13.858 -0.0540 -0.0856  0.1089
 9830W        W25447  10.740  16.717   1.905  0.1219  0.0355 -0.0053
 9831W        W25448  14.846   0.260   5.997 -0.1358 -0.1410  0.0644
 9832W        W25449  15.417   1.836   1.176 -0.1964 -0.1043  0.0757
 9833W        W25450   2.837  11.153  13.417  0.1259 -0.2015 -0.3004
 9834W        W25451  14.952  11.380   5.691 -0.3170 -0.0497  0.0140
 9835W        W25452   1.632  12.884   0.809  0.0647  0.1018  0.3177
 9836W        W25453  15.110   8.394   1.922  0.0610 -0.1595  0.0365
 9837W        W25454   8.938   8.547  14.479  0.0521  0.3134  0.2525
 9838W        W25455   5.291  10.065   2.141 -0.1879 -0.0995 -0.2245
 9839W        W25456   8.128  10.638  13.011  0.2452 -0.0910 -0.3247
 9840W        W25457   3.794   9.060   4.250  0.0007 -0.3749 -0.2947
 9841W        W25458  12.883   4.871   4.815  0.0022  0.2879 -0.1561
 9842W        W25459   8.379   6.098   5.922 -0.1925 -0.1737  0.0494
 9843W        W25460   9.279   6.607   4.280 -0.0825 -0.1173 -0.0704
 9844W        W25461   8.380  14.849  14.307  0.2010 -0.1042 -0.0652
 9845W        W25462   9.223   5.846  13.979 -0.2425 -0.1683  0.1106
 9846W        W25463   5.361   2.892  12.271  0.0346  0.1785 -0.1659
 9847W        W25464   9.551   2.829   5.089 -0.1274  0.4284 -0.1633
 9848W        W25465  11.373  15.563   1.187  0.1368  0.0881  0.4163
 9849W        W25466   9.358  14.313  11.637  0.4021 -0.0643  0.2042
 9850W        W25467   6.109   0.216  16.787 -0.1598 -0.0338 -0.0434
 9851W        W25468  10.839   0.307  10.981  0.1352 -0.0822  0.1481
 9852W        W25469   4.468   4.349   5.704  0.2356 -0.1177 -0.0020
 9853W        W25470   2.724  12.451  15.951 -0.0957 -0.1132  0.3140
 9854W        W25471   2.729   4.360   3.964  0.2593  0.0194 -0.3591
 9855W        W25472  10.970  15.671  16.892 -0.3093  0.0895  0.2225
 9856W        W25473   6.512  13.916  11.510 -0.3907 -0.0529  0.0148
 9857W        W25474   3.756   2.715   1.737 -0.0032 -0.1069 -0.3482
 9858W        W25475   7.744  13.831   4.672 -0.0837 -0.1453  0.1359
 9859W        W25476  15.068   3.255  12.089 -0.0108  0.1755 -0.1327
 9860W        W25477  12.852   1.522   3.653 -0.2412 -0.3975  0.3515
 9861W        W25478  15.039   6.175  13.644  0.0235  0.2536 -0.2284
 9862W        W25479   9.290  11.820   0.504  0.0867  0.1156 -0.0520
 9863W        W25480  13.275   3.962  16.384  0.1368 -0.0241  0.0447
 9864W        W25481  16.300  16.267   4.930  0.3737 -0.0006  0.0082
 9865W        W25482   9.614   7.840   1.649  0.1983 -0.4934  0.0190
 9866W        W25483  12.798   4.624   3.054 -0.0793  0.0682  0.0742
 9867W        W25484   8.329   8.688   2.758  0.0013  0.0323  0.0975
 9868W        W25485   8.857   1.647  17.066 -0.1830  0.0653 -0.0813
 9869W        W25486   4.623   8.427   5.805  0.0279  0.0354 -0.0439
 9870W        W25487  11.018   5.860   4.243 -0.0307  0.0358 -0.2570
 9871W        W25488   3.131  10.445  16.743  0.0367 -0.0998  0.1513
 9872W        W25489   2.147   9.651   2.644 -0.2625 -0.2071  0.0907
 9873W        W25490  11.032  13.166   4.000  0.0256 -0.1442  0.1822
 9874W        W25491   4.599  12.088   5.798 -0.2947  0.1642  0.1315
 9875W        W25492   1.264   6.389  13.624 -0.0386  0.0275 -0.0025
 9876W        W25493  10.151   8.061   0.407 -0.0707 -0.2684 -0.1262
 9877W        W25494   7.177   5.622   2.410 -0.0109  0.0926  0.2393
 9878W        W25495   6.209  11.213   5.482  0.0249 -0.1315  0.0043
 9879W        W25496   3.439  11.792   3.756 -0.2739 -0.0360 -0.0777
 9880W        W25497   5.635   0.383  13.292 -0.1413  0.0441 -0.1890
 9881W        W25498  14.996   4.115   2.969  0.1522 -0.1495  0.0009
 9882W        W25499  13.826   7.173  13.011  0.2667 -0.0244 -0.2355
 9883W        W25500   8.830   6.168  15.774  0.0310  0.4163 -0.1602
 9884W        W25501  16.635   9.739  13.334  0.1479  0.2064  0.0337
 9885W        W25502  15.470   9.371   2.937  0.3613 -0.0379  0.0549
 9886W        W25503   3.314   6.898  16.590 -0.2202 -0.0380  0.1040
 9887W        W25504   6.973   1.338   2.678 -0.2806  0.0438  0.0477
 9888W        W25505   0.375  10.926   5.999  0.4133  0.0027 -0.0052
 9889W        W25506   7.956   4.150  16.943 -0.0414  0.0629 -0.0207
 9890W        W25507  16.617   7.971   4.568 -0.0815 -0.2396 -0.0589
 9891W        W25508  15.491  12.864  16.319  0.1120  0.1002  0.1310
 9892W        W25509   8.327   9.941   3.978  0.1396  0.0792  0.0487
 9893W        W25510   8.317  11.964   0.622 -0.0267  0.2042  0.1087
 9894W        W25511   9.508  13.356   2.132  0.0781  0.0706  0.0602
 9895W        W25512   2.230   6.875   1.844 -0.1664  0.0479  0.1285
 9896W        W25513  16.947   1.243  12.856  0.0588  0.1759 -0.0365
 9897W        W25514   5.257   5.143   3.306 -0.1918 -0.2240 -0.1176
 9898W        W25515  12.366  16.443   0.042 -0.2249  0.0673  0.1184
 9899W        W25516   8.778  17.497  16.639  0.3195 -0.0862  0.0922
 9900W        W25517   4.357   7.897  17.244 -0.1260 -0.0786  0.1130
 9901W        W25518   8.028  15.336   4.541  0.1357  0.0190  0.0882
 9902W        W25519   3.414   1.640  15.744 -0.1393 -0.0039 -0.1481
 9903W        W25520   4.347  13.388  11.819 -0.3661 -0.1010 -0.2025
 9904W        W25521  12.237  17.229   3.246 -0.0149  0.0125 -0.1436
 9905W        W25522   7.920   2.107   5.402 -0.1949 -0.5076  0.1521
 9906W        W25523   4.727   2.544  16.717  0.1685 -0.3562  0.0548
 9907W        W25524  13.892  11.567   5.983  0.2107  0.0384  0.0090
 9908W        W25525  14.735   0.404  17.038  0.4483  0.3816  0.0017
 9909W        W25526   9.139   3.225  11.664 -0.1565  0.2714  0.0390
 9910W        W25527  13.348  13.610  13.589  0.0011  0.3208  0.2790
 9911W        W25528   4.736  10.329   5.403  0.0569 -0.1853  0.2639
 9912W        W25529   0.249  14.833   4.540 -0.0405 -0.1509 -0.2165
 9913W        W25530   1.876  13.588  12.870  0.3917 -0.0487  0.1390
 9914W        W25531   3.458   1.500   1.431 -0.0377 -0.0559  0.1408
 9915W        W25532   0.459  17.372   0.427 -0.0414 -0.1082  0.0847
 9916W        W25533   9.813  16.764  16.948  0.0716  0.0138 -0.0142
 9917W        W25534  10.034  15.683   3.858  0.1900 -0.0419  0.1411
 9918W        W25535  10.695   4.980   2.583  0.3162  0.0239 -0.1307
 9919W        W25536  13.241  10.904   0.669 -0.0309 -0.3989  0.2410
 9920W        W25537   3.119   9.817  15.373 -0.0050  0.0154 -0.0710
 9921W        W25538   3.504  10.036   0.467 -0.0950 -0.2332 -0.2884
 9922W        W25539  17.559  10.172   3.706  0.0803  0.1259  0.2233
 9923W        W25540   1.955   6.983   3.667 -0.1770 -0.0848  0.1281
 9924W        W25541  15.162  13.065  16.001 -0.1873  0.3294  0.0222
 9925W        W25542   5.561  10.836   4.760  0.2403 -0.0368  0.0995
 9926W        W25543  12.584   2.860   4.618 -0.1298 -0.0189 -0.2172
 9927W        W25544   9.163   2.974   4.667  0.0897 -0.2960  0.1009
 9928W        W25545  10.144   1.044  13.610 -0.1126 -0.1781 -0.1449
 9929W        W25546   6.815   7.129   2.320  0.1217  0.0607 -0.1039
 9930W        W25547  11.881  12.214   2.258 -0.0320 -0.0217  0.0239
 9931W        W25548  12.906  14.228  13.117  0.0852 -0.2443  0.0348
 9932W        W25549   1.664   2.165  14.723  0.1277  0.0631 -0.1708
 9933W        W25550  15.991  12.787  16.165 -0.0236 -0.2407 -0.0723
 9934W        W25551   9.160   3.008  12.223  0.1753  0.2683 -0.2309
 9935W        W25552  17.272   8.383  17.222  0.0745 -0.3801  0.1497
 9936W        W25553   0.551   7.271   5.012  0.1479  0.1269 -0.0717
 9937W        W25554   3.737   5.845   0.682  0.1134  0.3500 -0.1724
 9938W        W25555  12.299   7.557   4.166 -0.1363 -0.1214  0.2009
 9939W        W25556  12.587   8.042   5.781  0.0747 -0.2126 -0.1314
 9940W        W25557   1.482  15.739   4.260 -0.0336 -0.0457  0.0719
 9941W        W25558  10.564   8.394  15.579  0.0034 -0.3470  0.0254
 9942W        W25559  11.658  11.519   3.824  0.0135 -0.2887 -0.0738
 9943W        W25560  14.085  16.245  14.851  0.0413 -0.1079 -0.0642
 9944W        W25561  14.394  11.794   1.119  0.2753 -0.0524  0.0108
 9945W        W25562   0.280  12.162   4.630 -0.0766  0.0808 -0.0095
 9946W        W25563   0.823  12.923   0.324 -0.1281 -0.1557 -0.0678
 9947W        W25564  16.744  12.654  16.530 -0.2397 -0.1956 -0.1354
 9948W        W25565   5.926  11.200   3.530 -0.1106 -0.0289 -0.1800
 9949W        W25566  17.480   5.561   4.078  0.0263 -0.0248  0.1334
 9950W        W25567  11.009  16.552  12.688  0.1017  0.1055  0.0672
 9951W        W25568   3.301   7.025  11.213 -0.1919 -0.1923 -0.0051
 9952W        W25569   5.814   9.650   5.545 -0.1889  0.0361 -0.0066
 9953W        W25570  13.706   6.533   2.864 -0.1491 -0.0535 -0.0960
 9954W        W25571   4.570   9.309   3.569  0.1602 -0.3280  0.0690
 9955W        W25572  12.993   2.033   3.998  0.2937 -0.0753 -0.0897
 9956W        W25573   5.607   4.516   3.839 -0.2088 -0.0854  0.0574
 9957W        W25574   1.053   5.891   0.095 -0.0787 -0.1702  0.0276
 9958W        W25575   9.057  16.336   2.519 -0.0368 -0.2565 -0.0302
 9959W        W25576   8.062   4.000  13.365 -0.1860  0.1540  0.1044
 9960W        W25577   0.832   0.101   2.041  0.1160  0.0956  0.0663
 9961W        W25578  13.584  12.689  13.351 -0.3755 -0.0006 -0.1812
 9962W        W25579   6.418   7.969  15.571 -0.2020  0.0511 -0.3880
 9963W        W25580  15.006   0.429   4.494 -0.2565  0.1392  0.0454
 9964W        W25581   6.817  12.184   4.747  0.0475 -0.1965 -0.0908
 9965W        W25582   6.230   1.517   1.411  0.1641 -0.2536 -0.2721
 9966W        W25583   8.954  11.702  13.047  0.2134  0.2427 -0.2662
 9967W        W25584  16.548   5.630  16.688 -0.0711 -0.0696 -0.1376
 9968W        W25585  17.032   1.256  15.182  0.0852 -0.2413 -0.0578
 9969W        W25586   9.477  10.692   3.284 -0.2107 -0.1403  0.1607
 9970W        W25587   8.787   1.990   2.143  0.0821  0.3669 -0.4709
 9971W        W25588  15.303   5.109   3.648 -0.0755  0.2244 -0.3085
 9972W        W25589   9.683   7.110   2.288 -0.0579  0.0309 -0.1142
 9973W        W25590   6.261   5.885   1.498  0.0277  0.0919 -0.0897
 9974W        W25591   1.825  15.764   5.791 -0.2616 -0.2022  0.1215
 9975W        W25592  13.511   0.653  13.871  0.0877 -0.1066  0.2377
 9976W        W25593  16.878   4.723  13.180 -0.3325 -0.0443 -0.3742
 9977W        W25594  16.337   9.346   3.419  0.2065  0.4450  0.0876
 9978W        W25595   1.279   9.599  13.697  0.2455  0.0038  0.0869
 9979W        W25596   0.223   6.994   2.116 -0.3786  0.1545  0.0928
 9980W        W25597   4.176  12.455   5.382  0.1560 -0.0626  0.3135
 9981W        W25598  12.488   0.933   3.000  0.1033 -0.0164  0.0733
 9982W        W25599   4.064  12.131   4.558 -0.0340  0.1033 -0.3032
 9983W        W25600  10.309   7.917  15.515  0.0167  0.1106 -0.1837
 9984W        W25601   5.590   2.492  16.697  0.0811  0.0627  0.1511
 9985W        W25602  16.422   5.477  12.775 -0.0804  0.0185 -0.0008
 9986W        W25603  10.038  12.505   4.681  0.3929  0.2032  0.1315
 9987W        W25604  10.617  13.899  14.626 -0.0442  0.1815 -0.2462
 9988W        W25605   6.258   8.092  14.309 -0.0843 -0.0645  0.0683
 9989W        W25606  12.796   5.428  13.726  0.1061  0.0677  0.1666
 9990W        W25607  13.769   5.876   2.135 -0.1623 -0.2409  0.4919
 9991W        W25608   6.196  17.389  12.961 -0.0639  0.2494 -0.2453
 9992W        W25609   7.346  17.208  14.633  0.0835  0.3831 -0.1309
 9993W        W25610   8.733  14.770  12.033  0.0999  0.4517 -0.1209
 9994W        W25611   8.173   3.787   0.614  0.3562  0.2976 -0.0241
 9995W        W25612   0.252  11.018  13.869 -0.1320  0.3118 -0.0505
 9996W        W25613   0.098  11.153  11.744  0.0275  0.0543  0.3186
 9997W        W25614  13.973   3.391  13.829  0.0148  0.0148 -0.0612
 9998W        W25615  17.025   1.063   2.267 -0.0890 -0.1089 -0.2062
 9999W        W25616   4.715   0.732   4.014 -0.1553 -0.0100  0.2766
10000W        W25617  15.799  13.920  15.851 -0.1054  0.0864 -0.1547
10001W        W25618   7.378  11.572  16.646  0.1042 -0.0873  0.0045
10002W        W25619   6.136   9.456   0.463  0.1065  0.0387 -0.1784
10003W        W25620   2.434   8.742   1.657  0.0945 -0.2046  0.1308
10004W        W25621  12.513   4.589   4.104  0.0822  0.1062  0.2124
10005W        W25622  15.746   9.269   3.448  0.1594 -0.1342 -0.0337
10006W        W25623  16.765  17.220  10.843 -0.0864  0.2363 -0.2803
10007W        W25624   2.751   9.796   3.877 -0.1584  0.1850 -0.0984
10008W        W25625   0.410  16.607   2.616 -0.0012 -0.4173 -0.0512
10009W        W25626   7.903  17.370   2.663  0.4771  0.0089  0.0804
10010W        W25627   5.623  16.068  14.250  0.0075  0.2743  0.2033
10011W        W25628   8.746   5.708   2.406 -0.3650 -0.0984 -0.3664
10012W        W25629   6.389  12.189   4.391  0.0212  0.0488 -0.2775
10013W        W25630   1.635   4.823  16.954  0.0325 -0.0188  0.1025
10014W        W25631   0.921  11.535   1.198 -0.0457  0.0165 -0.2046
10015W        W25632   8.341  16.213   2.222 -0.0436  0.1623 -0.1024
10016W        W25633   1.397  11.482   1.038  0.3335 -0.3606  0.0102
10017W        W25634   6.523  10.085   1.266 -0.0754  0.0879  0.3663
10018W        W25635  11.020  15.847  11.505  0.1271  0.0786  0.2217
10019W        W25636  14.836  11.716   0.814  0.0980  0.1658  0.3167
10020W        W25637   4.786  13.457  15.711  0.1256  0.1447  0.0487
10021W        W25638   8.141  10.737   0.701  0.0343  0.0163 -0.2307
10022W        W25639   3.347  11.790  15.822  0.2210 -0.1123  0.2898
10023W        W25640  16.567   9.916  16.917 -0.0240 -0.1459  0.0742
10024W        W25641  15.906   2.971   5.035 -0.0808 -0.3415  0.2697
10025W        W25642   7.490   1.340   2.488 -0.0289 -0.1549 -0.0492
10026W        W25643  13.487  12.883  12.792 -0.0348 -0.1311 -0.1640
10027W        W25644   9.960  16.345   4.014 -0.0021  0.2226 -0.0914
10028W        W25645  16.072   2.223   6.684  0.3067  0.3978  0.0428
10029W        W25646   7.701  14.468   3.728 -0.0302  0.1518 -0.0754
10030W        W25647   6.817  17.373   0.946  0.0305  0.0120 -0.1119
10031W        W25648  11.336   3.496  12.772  0.2909 -0.1097  0.1453
10032W        W25649   4.427  11.917   1.497 -0.0643  0.0821 -0.2060
10033W        W25650  11.466  10.866   4.318 -0.1312 -0.0715 -0.4518
10034W        W25651   9.561  11.914  15.195 -0.0325  0.0014 -0.3432
10035W        W25652  11.401  11.450   1.367 -0.2225  0.0666  0.0158
10036W        W25653   4.154   2.994  13.550 -0.0422 -0.0218 -0.3575
10037W        W25654  16.725   0.837  11.655  0.0997 -0.0251 -0.2403
10038W        W25655   1.528   8.703   0.985  0.2041 -0.1981  0.1419
10039W        W25656   2.714  13.740  13.966  0.1178  0.0306 -0.2189
10040W        W25657   1.221   4.256   4.289 -0.0482  0.0374  0.2877
10041W        W25658  13.087  16.563  15.057 -0.0187 -0.0157  0.0140
10042W        W25659   1.805   0.062   0.503  0.0879  0.2146  0.0271
10043W        W25660   1.518   4.671  13.130 -0.2061  0.1070 -0.2159
10044W        W25661  15.377  14.675  16.348 -0.2942 -0.2256 -0.0958
10045W        W25662   0.265   3.350   4.789  0.1343 -0.0692  0.2010
10046W        W25663  11.960   4.349   5.056 -0.0091  0.0545  0.0746
10047W        W25664  10.715   6.404  12.597 -0.2733  0.1173 -0.0262
10048W        W25665  16.514   8.635   1.531 -0.0130 -0.0727 -0.1765
10049W        W25666   3.604  11.134  14.968  0.2973 -0.1477 -0.4248
10050W        W25667  16.373   1.104   5.334 -0.0610  0.1081  0.0103
10051W        W25668   9.722  16.714  15.507 -0.0907 -0.1524  0.0124
10052W        W25669  13.457   2.148  11.286 -0.0143 -0.0674  0.0678
10053W        W25670  14.436  14.821   3.865  0.3359  0.1780  0.0274
10054W        W25671  15.785  10.157  13.750 -0.1942  0.3266  0.0170
10055W        W25672   6.898   6.471  16.321  0.0837  0.2305  0.1837
10056W        W25673  15.404   8.310  14.015  0.0680  0.1084 -0.1877
10057W        W25674  16.335   1.242  14.896 -0.1047 -0.0015  0.2176
10058W        W25675   5.062  13.183   1.114  0.1935 -0.3101 -0.0647
10059W        W25676  12.655   7.917   2.400 -0.0007  0.3672 -0.0296
10060W        W25677   2.541   1.286   4.517 -0.1590 -0.0346  0.0747
10061W        W25678   1.125  11.483  16.236 -0.0111 -0.0077  0.1008
10062W        W25679  11.468  15.669  13.481  0.0465 -0.1141 -0.1166
10063W        W25680   4.793   4.287  12.143  0.1194 -0.0825 -0.0342
10064W        W25681   3.362  12.763  14.159 -0.0178  0.1098  0.0043
10065W        W25682   7.804   9.880  15.813  0.1185  0.0060  0.2392
10066W        W25683   2.422  10.865   1.719  0.1192 -0.1586 -0.1161
10067W        W25684   2.988   9.810  13.548  0.0267  0.1156 -0.2931
10068W        W25685   1.832   4.038   1.146  0.0276  0.3007 -0.1901
10069W        W25686  10.681   2.886   1.567  0.0909 -0.1389 -0.0522
10070W        W25687   8.196   6.508   1.366  0.1194  0.2856 -0.0284
10071W        W25688   3.959  11.832   1.477  0.2586 -0.1622 -0.3825
10072W        W25689   3.270  11.550  12.924  0.2195  0.2428  0.1172
10073W        W25690  12.125   1.501  11.930  0.0266  0.0528  0.1302
10074W        W25691   7.727   1.762   3.519 -0.0645  0.0089 -0.0950
10075W        W25692  16.347   7.940  13.759  0.3879 -0.1384  0.0816
10076W        W25693  12.809  14.568   0.110 -0.0975  0.0003  0.2171
10077W        W25694  14.177   1.465   4.615  0.1220 -0.1561  0.1149
10078W        W25695  11.903  11.657  15.045 -0.0273  0.2266  0.0044
10079W        W25696  12.943  16.521  11.797  0.2211 -0.2241 -0.2320
10080W        W25697   3.513  12.597  16.306  0.2714 -0.1440  0.0999
10081W        W25698  12.403   1.606   1.772  0.0313  0.2088 -0.0661
10082W        W25699   8.267   2.891  16.198  0.2530  0.3154  0.4847
10083W        W25700   4.409   7.298  14.486 -0.0414 -0.0004  0.2467
10084W        W25701  10.974   5.216   0.466  0.0837 -0.2134  0.1032
10085W        W25702   7.616   5.236   1.065 -0.1097 -0.0371  0.0679
10086W        W25703  16.054  16.381   4.121 -0.3538  0.1230 -0.0576
10087W        W25704   9.756   0.034   1.540 -0.0675 -0.3144 -0.0233
10088W        W25705  14.689  17.201  12.592  0.0617 -0.0760  0.2895
10089W        W25706  16.384  11.352  16.982 -0.0723 -0.1251  0.1578
10090W        W25707   5.094   1.339   1.983  0.0538 -0.3137 -0.0107
10091W        W25708  16.340  14.413  11.759 -0.0969  0.0132 -0.0059
10092W        W25709   6.109  10.712   4.748 -0.2477 -0.0032 -0.1019
10093W        W25710  13.995  13.390  15.669  0.0335 -0.0552  0.0815
10094W        W25711   9.295   3.294  12.797  0.2623  0.2970  0.0777
10095W        W25712   0.053  11.361  13.458 -0.4827 -0.0865  0.0128
10096W        W25713   6.340  11.745   1.829 -0.2541 -0.0841  0.0636
10097W        W25714   7.692  13.466   3.274 -0.4755 -0.1997 -0.0936
10098W        W25715  12.339   8.024  16.473  0.0499 -0.2016  0.1030
10099W        W25716   7.726   1.440   1.201  0.0565 -0.0456 -0.1805
10100W        W25717  10.828   1.977   3.194 -0.0417 -0.1725  0.1195
10101W        W25718   0.558   0.993  15.549 -0.1071 -0.0747  0.0193
10102W        W25719  12.650   1.760   2.571  0.1787 -0.0995  0.2047
10103W        W25720  17.375   8.281  15.595  0.5949 -0.1159 -0.0130
10104W        W25721   9.245   8.094   0.694 -0.0858 -0.0723  0.1288
10105W        W25722  11.671  14.752   2.017 -0.1619  0.0075 -0.1372
10106W        W25723  15.643   7.610  15.723 -0.1495 -0.3958  0.0474
10107W        W25724  14.672  15.427   1.730 -0.0905  0.3867  0.0877
10108W        W25725   6.869   2.239   0.123  0.0514  0.0475 -0.3934
10109W        W25726  13.149   2.624  11.252 -0.1580  0.1325  0.0707
10110W        W25727  11.932   3.399  14.341 -0.2334 -0.1048  0.1785
10111W        W25728   3.039  13.475   2.491  0.1808 -0.1786  0.1154
10112W        W25729   3.189   9.528   3.924 -0.0150 -0.1764  0.0942
10113W        W25730   8.917  16.513   5.675  0.0225 -0.0419  0.0923
10114W        W25731  16.122  13.847  12.330 -0.0090  0.1167  0.0096
10115W        W25732   9.914  11.274  13.203 -0.0104  0.0646  0.0639
10116W        W25733   1.809  12.716   4.688  0.1350  0.0362  0.0611
10117W        W25734   0.458  11.019  14.717  0.0611  0.2224 -0.2075
10118W        W25735   4.994  10.857  13.923 -0.0893  0.1144 -0.1136
10119W        W25736   9.946   3.784  13.841 -0.0337 -0.4905 -0.0033
10120W        W25737  11.577  12.317  15.094  0.0283  0.0176  0.2437
10121W        W25738  14.166   7.123   4.040  0.0251  0.1718  0.2946
10122W        W25739   5.981   1.047  13.735 -0.0738 -0.1977  0.1479
10123W        W25740   0.563  11.502   0.276  0.0240  0.0603 -0.1917
10124W        W25741  16.237  12.707   1.778 -0.0924 -0.0032  0.1603
10125W        W25742  14.639  13.138   5.296 -0.0169 -0.2075  0.0708
10126W        W25743  12.145   6.106   3.877  0.0308  0.2093 -0.0643
10127W        W25744   4.628   5.549   2.952  0.2466  0.0059  0.1120
10128W        W25745   6.621   7.790   5.077 -0.0498  0.3991 -0.3851
10129W        W25746   2.724   7.196   4.996  0.2383 -0.0479  0.1687
10130W        W25747   5.077   5.175  15.665  0.1103 -0.2122 -0.1460
10131W        W25748   2.333   6.575  16.676  0.4097 -0.1005  0.1020
10132W        W25749   0.059  13.877   3.657  0.0941  0.0105  0.3658
10133W        W25750   2.139   0.478  12.918 -0.0231  0.0371  0.3214
10134W        W25751  14.344   5.293   0.257  0.1625  0.3180  0.1284
10135W        W25752   9.616   4.003   5.743  0.1642  0.1436 -0.1039
10136W        W25753   8.771   1.589   1.093  0.0342  0.0247  0.1060
10137W        W25754  11.327  17.042   5.040  0.0261 -0.2013 -0.2256
10138W        W25755   6.593  14.749  11.904  0.0623  0.0206  0.0343
10139W        W25756  12.054   7.250  13.971  0.0173  0.2386  0.2728
10140W        W25757   9.714   8.745  15.324 -0.1021 -0.0985  0.3436
10141W        W25758  13.794   8.169   5.147 -0.0163 -0.1220  0.1865
10142W        W25759  16.329   7.416  16.010 -0.1780 -0.0538 -0.1488
10143W        W25760   7.754   7.013   4.695 -0.0384  0.0868  0.0735
10144W        W25761  17.000  13.272   4.657 -0.2403  0.0463  0.0997
10145W        W25762  10.635  10.703  14.148 -0.1981  0.1074  0.0361
10146W        W25763   9.288   2.236   6.059 -0.3479  0.0952  0.0743
10147W        W25764   4.300   4.679   2.940  0.1711 -0.1983 -0.0603
10148W        W25765  17.213  10.734  16.998  0.1460  0.3625 -0.0791
10149W        W25766   8.208   8.932   3.985 -0.0462 -0.0402  0.0481
10150W        W25767   4.277   4.867   0.526 -0.0751 -0.0824  0.1429
10151W        W25768   0.843   1.942  13.432 -0.1091 -0.2950  0.2447
10152W        W25769  14.124   9.998   0.220  0.0346  0.0454 -0.0386
10153W        W25770  14.157   1.949  12.376  0.0120 -0.0634  0.2804
10154W        W25771   5.488  12.292   1.230  0.1463 -0.0577 -0.2080
10155W        W25772   1.612   2.329   4.876 -0.0355 -0.1464 -0.0252
10156W        W25773  15.285   3.373  12.994  0.0683  0.0982 -0.2802
10157W        W25774  15.307  11.166   1.955  0.1199 -0.0775  0.1362
10158W        W25775   7.129  14.686  13.132 -0.3174 -0.1627  0.0211
10159W        W25776  13.836   8.158   4.156 -0.2161  0.0621  0.0151
10160W        W25777   7.527   8.027   0.192 -0.1146  0.0066 -0.0348
10161W        W25778   5.921  16.849   2.816 -0.1063  0.0388  0.1429
10162W        W25779   7.578   2.730   3.578  0.1404  0.2395  0.1490
10163W        W25780  16.745   3.411   4.745 -0.0875 -0.1966 -0.0273
10164W        W25781   0.423   7.641  15.887  0.0714 -0.0137  0.0126
10165W        W25782  13.194   8.444   6.415  0.1330 -0.2977  0.1196
10166W        W25783  16.277   2.510   2.748 -0.0178 -0.2117 -0.0906
10167W        W25784  12.937   7.078   6.472 -0.1394  0.0334  0.3222
10168W        W25785   7.827   9.135   1.142 -0.1527  0.0059  0.2272
10169W        W25786  14.413  17.421   4.192 -0.0686 -0.1188 -0.1737
10170W        W25787  12.158   1.278  12.391  0.1644 -0.3541 -0.1966
10171W        W25788   5.718   1.894  15.168 -0.2041  0.0103 -0.0589
10172W        W25789   1.222   3.068  13.982 -0.1001  0.3182 -0.1053
10173W        W25790  12.913   3.146   2.900  0.3440 -0.0070 -0.5440
10174W        W25791   1.760   1.894   6.612 -0.1916 -0.1217 -0.0754
10175W        W25792  16.613   7.443   2.236 -0.1224  0.0680 -0.1713
10176W        W25793   5.055   8.076   1.536  0.1245 -0.2741 -0.0417
10177W        W25794   5.377  11.103  13.993 -0.2247  0.1243 -0.0402
10178W        W25795   9.946   6.306  13.470 -0.0954 -0.2951 -0.0608
10179W        W25796  15.713  12.435  12.273 -0.1552 -0.0857  0.1260
10180W        W25797   8.707   7.636  15.440 -0.0147  0.0506  0.3717
10181W        W25798   6.891   0.887  12.171  0.2200 -0.1628  0.1435
10182W        W25799   1.050  17.014   4.913  0.1103 -0.1859  0.0224
10183W        W25800   3.587   6.951   0.573  0.1195 -0.0349  0.1040
10184W        W25801   5.795  11.359  15.733 -0.1868  0.0267  0.2712
10185W        W25802  16.640   6.156  14.677  0.1405  0.1178  0.2592
10186W        W25803   8.884  15.249   0.637  0.0585  0.0727  0.2189
10187W        W25804   7.330   2.012  11.312 -0.1474  0.0345 -0.3811
10188W        W25805  10.051  12.848  16.547 -0.2851  0.3876 -0.1483
10189W        W25806   1.271  13.109  11.600 -0.0876  0.1188 -0.0912
10190W        W25807  11.483   6.781  13.529  0.0521  0.0960 -0.1269
10191W        W25808  10.317   7.348  13.708  0.0166  0.3336  0.2026
10192W        W25809   6.628  14.893  16.775 -0.0262  0.2768 -0.1446
10193W        W25810  12.680   1.827  17.071  0.2273  0.2198  0.2724
10194W        W25811   5.000  14.878  16.729 -0.0765  0.2211 -0.2190
10195W        W25812   6.277  12.245  15.420 -0.1593 -0.2839 -0.2867
10196W        W25813  16.381   9.423  17.137 -0.4211  0.0088 -0.0336
10197W        W25814   2.551  11.922   4.678 -0.0483  0.3800  0.2179
10198W        W25815  10.882   1.048  15.895  0.2943 -0.0961  0.1489
10199W        W25816  12.332   9.942   2.044  0.1611 -0.0759  0.2153
10200W        W25817  16.169  10.033  17.214  0.0645 -0.1455  0.1272
10201W        W25818  11.141  11.844   2.388  0.1785  0.0139 -0.0753
10202W        W25819   8.197   7.271   5.487  0.1845 -0.0551 -0.0709
10203W        W25820   6.939   2.521   1.911 -0.4326 -0.1083 -0.1499
10204W        W25821   5.012  17.423   1.943  0.0841 -0.3295  0.2561
10205W        W25822   0.207  17.528   1.465  0.1214 -0.1667  0.0629
10206W        W25823  10.363   9.699   0.472 -0.3271  0.3178  0.3543
10207W        W25824  12.749   1.469  14.805 -0.0132 -0.0097  0.1381
10208W        W25825   1.355  15.642   3.734  0.0533  0.1633  0.1191
10209W        W25826   7.993  14.159   1.826  0.0458  0.0954 -0.0455
10210W        W25827   1.603   6.938  17.178 -0.2354  0.0258  0.1932
10211W        W25828  14.366  10.550  14.818  0.1918 -0.0085  0.2910
10212W        W25829   1.832   3.148   1.679  0.2984  0.2554 -0.0538
10213W        W25830   0.372   7.968  15.527 -0.1567 -0.4233 -0.1361
10214W        W25831   0.908   6.220   4.327 -0.2486 -0.0636  0.3376
10215W        W25832   2.865   3.240   0.029  0.1488  0.0396 -0.1134
10216W        W25833   9.724  16.429   0.508  0.1148  0.1090 -0.1434
10217W        W25834  11.882  12.637  14.831  0.3508 -0.3461  0.2482
10218W        W25835  12.121   4.824   0.068 -0.2866 -0.0198  0.2299
10219W        W25836  16.335   2.641  12.056 -0.0121 -0.0016 -0.1035
10220W        W25837   9.524  14.969   1.328  0.0062 -0.3610  0.1782
10221W        W25838   2.112  10.220   5.894 -0.0232 -0.0298 -0.0001
10222W        W25839   8.511  13.642   4.590  0.0071  0.0547 -0.0279
10223W        W25840  16.097   2.040   3.964  0.2805  0.2589  0.0377
10224W        W25841  13.535  11.958  17.073 -0.1082 -0.0233 -0.0841
10225W        W25842   1.761   5.973  12.776 -0.1742  0.1048 -0.1240
10226W        W25843  13.981  10.508   2.666 -0.0251  0.0796  0.1330
10227W        W25844   1.742  15.059  17.195 -0.3847  0.4033 -0.2655
10228W        W25845  13.624  14.485   3.622 -0.2577  0.2169  0.2323
10229W        W25846   0.655  16.205   3.985  0.0012  0.0260 -0.1018
10230W        W25847   2.402   3.996  13.663  0.0067 -0.0768 -0.0106
10231W        W25848  10.993   6.146   0.330  0.0201 -0.0768 -0.0247
10232W        W25849   7.963   3.024   2.510  0.0463 -0.2523 -0.3668
10233W        W25850  13.067  10.515  13.534  0.1178 -0.0483  0.0479
10234W        W25851  13.169   5.901   0.829  0.1163 -0.4208 -0.1651
10235W        W25852   3.646   0.927   0.402 -0.0734 -0.2043 -0.4283
10236W        W25853   7.837  17.607   3.672 -0.1606  0.2303 -0.2143
10237W        W25854   8.117   5.892   0.038 -0.0266 -0.0975 -0.0134
10238W        W25855  11.127   7.086  15.196  0.1175  0.2183  0.0798
10239W        W25856   0.567   2.652   1.088  0.1967 -0.0063  0.1802
10240W        W25857   7.397  17.093   5.954  0.1694 -0.1429  0.0611
10241W        W25858   3.415   8.017   1.327  0.1881  0.0328 -0.0165
10242W        W25859   8.282  11.098   5.565  0.2169  0.0835  0.0507
10243W        W25860  15.611  15.757   0.497 -0.0397  0.3247 -0.2085
10244W        W25861   4.730   6.124  16.664 -0.1547  0.0387  0.1959
10245W        W25862   1.368  11.249   3.326  0.2712  0.2617 -0.1204
10246W        W25863   7.861   6.238  15.900  0.0116  0.0799  0.0280
10247W        W25864  11.678   3.545   3.389  0.0238  0.1046 -0.0954
10248W        W25865   1.729   4.386  17.246 -0.1265 -0.0050 -0.3328
10249W        W25866   9.206   1.881  14.026  0.1186 -0.0520  0.0429
10250W        W25867   6.753  15.049   4.724 -0.2488 -0.0419  0.1532
10251W        W25868   9.476  16.968  11.807  0.2074 -0.0252 -0.3039
10252W        W25869   9.628  17.534  13.023  0.1462  0.3144 -0.0256
10253W        W25870  11.199  13.412  12.463 -0.1091  0.2161 -0.2723
10254W        W25871   6.502   1.099  12.668 -0.2966  0.0179 -0.1856
10255W        W25872   9.929  11.605   5.848 -0.0478  0.1784  0.0753
10256W        W25873  12.018   2.897  12.322 -0.0131  0.3213 -0.0798
10257W        W25874   4.026  14.384   6.503  0.1550 -0.0679  0.0704
10258W        W25875   1.959   7.599  13.809 -0.1801  0.1581  0.2580
10259W        W25876  14.492   7.032   4.738 -0.2423 -0.0277  0.3488
10260W        W25877   9.758   0.811   0.447  0.0793  0.0784  0.1218
10261W        W25878   8.181   4.789  16.540  0.0878 -0.0417  0.1713
10262W        W25879   8.404  15.252  14.742 -0.4230  0.0477  0.0649
10263W        W25880   5.230  15.911   2.964 -0.0129 -0.1340  0.3688
10264W        W25881   1.614   9.790  13.329 -0.2709  0.0334 -0.1010
10265W        W25882  11.251   9.887   1.532  0.0890  0.1303 -0.1577
10266W        W25883  15.977  17.610   3.644 -0.0183  0.0607 -0.1274
10267W        W25884   3.944   3.223  16.521  0.3620 -0.1979  0.0390
10268W        W25885   0.101   9.566  15.078 -0.4262  0.3567 -0.0237
10269W        W25886  13.622   2.715  12.921  0.3153  0.0556  0.0589
10270W        W25887   8.544  16.056  10.816 -0.1791 -0.1237  0.0791
10271W        W25888  14.191   9.138   3.799 -0.0492 -0.2884 -0.0001
10272W        W25889   2.041  10.567  16.603  0.1693 -0.0641 -0.0666
10273W        W25890   6.860   1.883  12.222  0.0301 -0.0495  0.0681
10274W        W25891   8.501  11.971   4.001 -0.4105  0.0121  0.0967
10275W        W25892   5.387   3.258   1.493  0.0046  0.0643  0.1116
10276W        W25893   8.254  14.568   1.031 -0.1731 -0.3126  0.2559
10277W        W25894   3.105   7.664   1.044 -0.1811  0.0674 -0.1743
10278W        W25895  15.843  16.634  15.839  0.2502 -0.1597  0.1522
10279W        W25896  11.136   4.690  14.117 -0.1880  0.3709  0.2097
10280W        W25897  10.440   6.180   0.652  0.1298  0.3127  0.1554
10281W        W25898   8.799  12.094   1.843 -0.1887 -0.1222 -0.0608
10282W        W25899  14.889  10.906   5.411 -0.0441 -0.0881  0.0468
10283W        W25900   6.611   0.793   1.541  0.0451  0.1704  0.1030
10284W        W25901  14.923  14.331  13.386  0.2200  0.4249  0.2259
10285W        W25902  10.944  16.398  16.259  0.1859  0.2128 -0.0769
10286W        W25903   9.764   0.703   4.722  0.1400 -0.2224  0.1064
10287W        W25904   5.657   2.310   1.756  0.1425 -0.2165 -0.1151
10288W        W25905   0.412  12.167  11.881  0.1551 -0.3448  0.0535
10289W        W25906   5.294   3.153   2.637 -0.1993  0.3478 -0.0197
10290W        W25907   6.699  10.441   3.645 -0.1806 -0.0526 -0.1541
10291W        W25908   9.415   4.426   2.187  0.0187 -0.0020 -0.1601
10292W        W25909  12.928  14.192   5.936 -0.2473  0.1867 -0.0063
10293W        W25910  10.206  13.213  13.526  0.1377  0.1178 -0.0940
10294W        W25911   7.953  13.119  17.005 -0.2749 -0.0326 -0.2438
10295W        W25912  16.375   6.358  16.686  0.3010 -0.1595 -0.0440
10296W        W25913  13.755   4.056  16.614 -0.0599 -0.0993 -0.0361
10297W        W25914   1.654  13.380   2.540  0.0710  0.3356  0.3046
10298W        W25915   5.076   2.138   4.932 -0.0798 -0.0363  0.2428
10299W        W25916  17.152   5.582   3.731 -0.0666 -0.1191  0.1221
10300W        W25917  14.496   6.653   3.227  0.1758  0.3841 -0.1562
10301W        W25918  16.881   2.191  15.290 -0.0974 -0.1197  0.0181
10302W        W25919  12.614   8.509  17.243 -0.0630  0.2185  0.0205
10303W        W25920   8.788  14.447   5.757  0.0254 -0.1117 -0.0486
10304W        W25921   2.622   7.915   2.896 -0.1420  0.1474 -0.0224
10305W        W25922   3.196   2.475  16.701 -0.1234 -0.0704 -0.3639
10306W        W25923   7.747  14.885  11.439  0.0338 -0.0554 -0.0015
10307W        W25924   2.663   1.041   1.072  0.0529 -0.0271 -0.3828
10308W        W25925  15.320  16.129   0.627 -0.1564  0.1295  0.1219
10309W        W25926  14.930   7.703   3.279 -0.3480  0.1118 -0.2148
10310W        W25927  15.741   2.831  16.461  0.3334  0.2200 -0.1501
10311W        W25928   4.044  11.043  14.072 -0.0266 -0.1178 -0.0825
10312W        W25929   6.858  10.050  14.788  0.2818 -0.1257  0.2673
10313W        W25930  13.359  17.523   2.910 -0.2065  0.2158 -0.0946
10314W        W25931  15.209  14.072   1.790  0.0247  0.4391  0.1153
10315W        W25932   2.164  15.371   5.443  0.0471 -0.3117 -0.0491
10316W        W25933   9.268  17.173  10.551 -0.2456  0.1260 -0.0577
10317W        W25934   3.397  10.035  14.997 -0.2403 -0.0457 -0.0816
10318W        W25935   6.843   8.370   6.071  0.0674 -0.2460  0.0224
10319W        W25936   4.133   4.845   3.551 -0.1569 -0.1649  0.1085
10320W        W25937  12.318  13.982  12.550 -0.1322 -0.0892 -0.0640
10321W        W25938  16.425  15.565  17.134 -0.3473  0.0367  0.0504
10322W        W25939   5.496   4.166   4.239 -0.0150  0.2323 -0.1882
10323W        W25940   2.154   3.359   0.842  0.1618  0.0757  0.1816
10324W        W25941   4.748  17.309  12.695  0.1749 -0.3832  0.1768
10325W        W25942   2.910  15.011  14.492  0.2279 -0.1176  0.0274
10326W        W25943   6.351   5.026   0.380  0.0841  0.3980 -0.0064
10327W        W25944   8.307   2.740  13.648  0.1262 -0.2730 -0.1648
10328W        W25945   2.721  14.211  12.110  0.2008 -0.2572  0.1709
10329W        W25946   7.877  17.400   1.754 -0.0979  0.1140  0.1111
10330W        W25947   5.664  10.081  12.576  0.0092 -0.1136 -0.0530
10331W        W25948  15.109   3.197  14.404 -0.0757 -0.0676  0.0472
10332W        W25949  10.217   3.099   0.780 -0.1141 -0.3500 -0.0850
10333W        W25950  13.909  10.736  15.021 -0.2266 -0.0513  0.0607
10334W        W25951   5.997  17.577   2.529 -0.0969  0.0661 -0.0376
10335W        W25952  10.975   5.494   2.570 -0.1114  0.0592  0.1513
10336W        W25953   2.619  16.001   1.960  0.0202 -0.2321 -0.0038
10337W        W25954   8.572  10.196   4.364 -0.1347 -0.1930  0.2471
10338W        W25955  16.020   9.116   4.451 -0.2202 -0.0096  0.0055
10339W        W25956   1.743  16.030   0.803 -0.2324  0.2198  0.0950
10340W        W25957  14.779   8.605  13.605  0.0246  0.1134 -0.1242
10341W        W25958  15.673   8.118   3.250 -0.0985  0.0011 -0.1047
10342W        W25959  15.514   8.844   1.628  0.4436 -0.1055  0.0468
10343W        W25960  12.695  11.404  14.556  0.2528 -0.0639 -0.0994
10344W        W25961  16.638   7.022  15.200 -0.1231  0.1710  0.1174
10345W        W25962  14.824   2.704   0.368 -0.1527 -0.2101  0.1274
10346W        W25963  10.684  14.786   4.307  0.1318 -0.0519  0.1470
10347W        W25964   4.793   6.379   2.320  0.2566  0.0874 -0.1759
10348W        W25965  11.853  16.293   2.896 -0.0850 -0.1738  0.0857
10349W        W25966   1.560   2.740  16.274  0.0090 -0.4878  0.0674
10350W        W25967   0.986   3.343   5.347 -0.2523  0.1305 -0.1364
10351W        W25968  12.242  15.907  13.959  0.2609  0.3909  0.1093
10352W        W25969   6.779  11.413   4.154  0.1376  0.2723 -0.2207
10353W        W25970   3.520   4.187   0.758 -0.1223  0.1063 -0.3261
10354W        W25971  16.109   3.094   0.650  0.1526  0.1157  0.1012
10355W        W25972  12.892  13.592   3.985  0.0835  0.1939  0.1528
10356W        W25973  12.008   5.774   0.129 -0.0979  0.1872 -0.2417
10357W        W25974   5.116   7.658  13.847 -0.1241 -0.0660  0.1791
10358W        W25975  11.718   0.484  12.410  0.2149 -0.4583 -0.0220
10359W        W25976  12.575  15.288   0.952 -0.1799 -0.3008 -0.0171
10360W        W25977   1.177   8.352   2.896 -0.0334  0.0858  0.3635
10361W        W25978  12.192  14.627  13.105  0.2634  0.3170 -0.0358
10362W        W25979  11.350   7.601   2.497  0.0289 -0.1411  0.2104
10363W        W25980  15.176   4.814  15.556 -0.0511  0.3042  0.2468
10364W        W25981  13.775   1.671  16.271 -0.0042  0.3490 -0.0182
10365W        W25982  14.936  17.233  16.057 -0.0324  0.0363  0.0145
10366W        W25983   9.111   3.756   2.927  0.2150  0.1974  0.0946
10367W        W25984   8.390  15.086   0.758  0.1011 -0.0226  0.2485
10368W        W25985  16.180  17.301  13.685  0.0705  0.0421 -0.0566
10369W        W25986  12.517  17.481   1.138 -0.0438 -0.1643  0.0205
10370W        W25987   8.380   4.309  16.743  0.1116 -0.1252  0.2570
10371W        W25988   9.053   4.315   2.549 -0.3324  0.1647  0.3416
10372W        W25989  14.655  15.022  14.016  0.0725 -0.0246  0.0986
10373W        W25990   1.372   7.908   2.620  0.0006  0.0777 -0.0467
10374W        W25991  12.142   4.164  13.655 -0.0484  0.3238  0.1726
10375W        W25992  11.808   2.336   3.257  0.0131 -0.0061  0.2030
10376W        W25993   7.556  16.344  14.095 -0.2847 -0.2186 -0.0020
10377W        W25994   4.131   9.755   1.139  0.2379  0.3888  0.1237
10378W        W25995   0.043  14.886   2.641 -0.2385  0.0442 -0.3582
10379W        W25996   0.991   3.681   1.370  0.3641  0.0681 -0.5007
10380W        W25997  14.769   4.213  12.533 -0.1305 -0.0350  0.2176
10381W        W25998  17.386  13.976   3.211 -0.1768  0.0058  0.2671
10382W        W25999   1.380   7.111  14.448 -0.2077  0.0068  0.1151
10383W        W26000   2.097   8.654   5.857 -0.3632  0.6030 -0.1022
10384W        W26001   9.930   2.912   2.129  0.3019  0.0852  0.0367
10385W        W26002   0.162  14.352   0.406 -0.0411  0.3482  0.0211
10386W        W26003  11.499  16.055  15.705 -0.2044  0.1640  0.0198
10387W        W26004   0.449  16.198  15.791 -0.0266 -0.0474 -0.4291
10388W        W26005  12.212   0.310  12.300 -0.0082 -0.1877 -0.0066
10389W        W26006  10.960   9.863  11.287 -0.4042  0.0416 -0.1615
10390W        W26007   3.635  17.612   0.819 -0.2545  0.0225 -0.0081
10391W        W26008  10.714  16.790   4.488 -0.0398  0.1896  0.1926
10392W        W26009  10.436   5.575  13.867  0.2398  0.2846  0.3482
10393W        W26010   8.602   7.690   3.706  0.1532  0.0017 -0.1076
10394W        W26011   7.743  13.446  13.887 -0.0399  0.1644  0.0213
10395W        W26012  10.516  16.183  13.350 -0.2071  0.0862 -0.1043
10396W        W26013  14.441   9.343  15.137 -0.1352  0.1564  0.1263
10397W        W26014   7.505  15.884  11.123 -0.2201 -0.2263 -0.0254
10398W        W26015  11.584   0.991   5.890 -0.0413 -0.1952  0.0534
10399W        W26016  16.429  10.205   2.416 -0.1502  0.0910  0.1064
10400W        W26017  12.267   0.839  13.735 -0.0766 -0.0952 -0.2253
10401W        W26018  16.443   2.969   5.610  0.1515  0.1796 -0.1246
10402W        W26019  14.662  15.421   5.153  0.2491  0.0546  0.0609
10403W        W26020   4.814   6.257  14.795 -0.0268 -0.0662  0.1037
10404W        W26021  12.207  14.534  14.419 -0.2285  0.0444  0.2402
10405W        W26022   7.758   1.927   5.886 -0.0740 -0.0560 -0.2678
10406W        W26023   5.118   0.205  16.851  0.2196 -0.1258  0.3512
10407W        W26024  14.988  14.746   2.143  0.0913  0.0503 -0.0046
10408W        W26025   7.836   5.157   4.960 -0.3323  0.0058 -0.0523
10409W        W26026  12.735   5.182   2.994  0.5011 -0.0018 -0.4275
10410W        W26027   9.454   5.255  16.907 -0.0323  0.0174 -0.1438
10411W        W26028  17.302  10.286   5.437 -0.2856 -0.0312  0.0661
10412W        W26029   1.737   7.482   5.512 -0.1995  0.2491 -0.0617
10413W        W26030  12.318  17.289  11.747 -0.2700 -0.3390 -0.1891
10414W        W26031  11.626   8.059   3.719  0.1246  0.0106 -0.2678
10415W        W26032  14.246  12.653  11.801  0.1520 -0.0512  0.1581
10416W        W26033   8.500   5.429   0.267  0.3750 -0.1741 -0.0638
10417W        W26034   2.802  14.981   0.027  0.0301 -0.0117 -0.1534
10418W        W26035  15.270  15.399   5.356  0.0512  0.1005 -0.1280
10419W        W26036  14.308   2.923   0.569 -0.0691  0.2708  0.0760
10420W        W26037   0.974   7.985  15.642  0.0640  0.2748 -0.0311
10421W        W26038   1.063   4.584  13.258 -0.0845  0.1172  0.2895
10422W        W26039   7.794  12.152   2.882  0.1663  0.5231  0.0177
10423W        W26040  13.706   2.572  15.778 -0.0521  0.0254 -0.1011
10424W        W26041   6.673   4.247  15.589  0.2569  0.1382  0.2111
10425W        W26042  16.567   2.104  13.794  0.1456 -0.0456 -0.2483
10426W        W26043  17.528   2.280   2.697 -0.1379  0.1741 -0.0640
10427W        W26044  14.139  10.467   0.778  0.1545  0.1004 -0.1758
10428W        W26045   9.189   2.429  14.655 -0.0569 -0.0374 -0.2065
10429W        W26046   4.232   7.425   5.162  0.2850  0.0017  0.0775
10430W        W26047   8.776  15.582  14.408 -0.2008 -0.2196 -0.3250
10431W        W26048  12.319   0.993  14.875  0.5356  0.3795 -0.0439
10432W        W26049  13.302  12.956   0.353 -0.0235  0.0251 -0.1697
10433W        W26050   6.006   7.581   2.915 -0.1182  0.2596  0.0387
10434W        W26051   9.940   3.156  17.256 -0.1993  0.1413 -0.0466
10435W        W26052   6.858  14.575  16.000  0.0608  0.0428 -0.0663
10436W        W26053   9.351   4.336   4.946  0.0130  0.1224  0.1246
10437W        W26054   1.992   0.098  14.459  0.0108 -0.2933  0.1651
10438W        W26055  16.389  17.151  11.789  0.1551 -0.0328  0.1748
10439W        W26056   8.752   7.555   2.011  0.0328 -0.0620 -0.1598
10440W        W26057   5.401   9.446   5.261 -0.0371  0.0131  0.2972
10441W        W26058   8.290  15.565   1.389  0.2256 -0.0075 -0.0606
10442W        W26059  13.015   6.702  13.031  0.1021 -0.3762  0.0683
10443W        W26060   8.413  11.257   2.786 -0.2827  0.2664  0.0401
10444W        W26061   4.326   5.657   1.341  0.2302  0.1692 -0.1068
10445W        W26062   1.975  16.548   4.009  0.2584  0.0690 -0.0798
10446W        W26063   3.815   3.175  17.011  0.0991  0.0484 -0.0544
10447W        W26064  12.855   3.592   2.731  0.4737 -0.3871  0.2746
10448W        W26065   2.357   1.099   0.599 -0.1525 -0.3961  0.0696
10449W        W26066   7.110   9.328  15.240 -0.0338  0.1874 -0.1989
10450W        W26067  13.756   2.344   4.502  0.0452 -0.5659 -0.3155
10451W        W26068   3.914   6.183   0.996  0.0813  0.0898 -0.3134
10452W        W26069  14.884  13.078  13.380  0.2997 -0.0624 -0.3188
10453W        W26070  15.271   9.957   2.237 -0.0248 -0.4369  0.3314
10454W        W26071  15.260   8.140   4.259 -0.0287  0.2938  0.1028
10455W        W26072   3.584   2.104  16.857  0.1941  0.0635  0.1793
10456W        W26073   2.943   1.287   0.617  0.2032  0.0553 -0.0330
10457W        W26074   7.364  11.075   3.246  0.0052  0.0707  0.1170
10458W        W26075   7.050   0.350  14.291  0.0553  0.1367  0.2490
10459W        W26076  16.751  11.163  13.318 -0.0491  0.0607 -0.4310
10460W        W26077   0.273   7.511  15.274 -0.3691  0.0272 -0.2353
10461W        W26078  11.026  15.665   5.620 -0.1823  0.0405 -0.2057
10462W        W26079   5.331  12.278   0.354  0.2935 -0.1468  0.1198
10463W        W26080  15.914  11.131  13.665 -0.0215  0.2252  0.2984
10464W        W26081   1.878  16.057  14.552  0.1143  0.2753  0.1390
10465W        W26082  11.120   5.672   3.718 -0.1659 -0.1478 -0.2212
10466W        W26083  10.829   9.950  16.752  0.6033 -0.0377  0.2585
10467W        W26084   2.747   9.312   3.624 -0.0993 -0.0788 -0.0483
10468W        W26085   0.306   6.810   3.901 -0.1081 -0.2636 -0.1552
10469W        W26086  13.623   7.463   5.821  0.2239  0.1763  0.1538
10470W        W26087  10.785   1.693  11.539  0.0839 -0.3449 -0.0346
10471W        W26088   2.154  13.564   2.916  0.0602  0.0470 -0.3651
10472W        W26089   1.164   8.164  12.938  0.1217  0.2107  0.3600
10473W        W26090   2.346   4.166   2.562  0.3315 -0.2350 -0.1418
10474W        W26091   9.984   0.466  16.034  0.0591 -0.2609 -0.1591
10475W        W26092  14.691  13.296  14.343 -0.1702 -0.1594  0.1934
10476W        W26093   9.150  15.545  11.505 -0.0388 -0.0219 -0.1195
10477W        W26094   5.720   1.361   1.608  0.0127 -0.1336 -0.0785
10478W        W26095   8.789   0.707  16.920 -0.0188  0.2170  0.3391
10479W        W26096  17.135   6.856  16.542  0.0158 -0.2221  0.0190
10480W        W26097   8.689   3.292  14.508 -0.1487  0.5746  0.0519
10481W        W26098   2.677   5.576  14.568 -0.0143  0.1244  0.2091
10482W        W26099   8.397   9.833  13.611 -0.0062  0.0819  0.1199
10483W        W26100   8.389  12.069   4.476 -0.0585  0.0555 -0.3380
10484W        W26101   4.731  11.498   4.383 -0.3257 -0.2390  0.1970
10485W        W26102   7.312  14.426   4.805  0.0062  0.1231  0.0261
10486W        W26103   6.685  11.640  12.060  0.0747  0.0202 -0.0753
10487W        W26104   3.733   0.013   4.924 -0.3727 -0.0892 -0.2769
10488W        W26105   5.314   5.595  15.568 -0.2625  0.3561 -0.0171
10489W        W26106  12.370   4.160   1.036 -0.1132  0.2520  0.2637
10490W        W26107  17.258   3.700  14.592  0.4221 -0.1924 -0.1279
10491W        W26108  15.301  11.389  16.912  0.2344 -0.0826 -0.0901
10492W        W26109   0.574   8.444   1.711 -0.2599 -0.1979  0.0836
10493W        W26110   5.193   3.601  11.110 -0.3491  0.2048  0.0274
10494W        W26111   1.529   6.599  14.591 -0.0130 -0.1812  0.2315
10495W        W26112   7.004   9.392  12.717 -0.1483  0.0647 -0.3097
10496W        W26113  12.032  13.474  16.157  0.1163  0.0873 -0.0144
10497W        W26114   9.526   3.738   0.642  0.2671 -0.0191 -0.2976
10498W        W26115   1.528  15.561  13.137 -0.0217  0.1042 -0.2605
10499W        W26116   9.282   6.428   3.393 -0.1603  0.0761 -0.3890
10500W        W26117   9.303   2.069   4.600  0.2698 -0.3558 -0.0362
10501W        W26118   5.154  12.742  14.371  0.3148  0.1359 -0.0065
10502W        W26119   6.101  15.352  11.679 -0.0364 -0.0685  0.2320
10503W        W26120  15.499   1.982  10.795  0.0432 -0.0382 -0.1527
10504W        W26121   8.267   3.397  12.061 -0.0867  0.0941  0.2901
10505W        W26122   5.614   1.718   4.320 -0.0810  0.1987 -0.0904
10506W        W26123  10.191  14.250  11.437  0.2330 -0.0120 -0.0283
10507W        W26124   6.861  11.212  14.158 -0.0060 -0.1404  0.2018
10508W        W26125  14.161  16.018   1.395  0.1551 -0.1319  0.1472
10509W        W26126  11.823  10.469   0.332 -0.0556 -0.3490 -0.3149
10510W        W26127   0.430   0.204   1.736  0.0599  0.1056  0.3021
10511W        W26128  14.718  11.235  16.426  0.0999 -0.1399 -0.4814
10512W        W26129  15.005  11.385  13.781  0.0635 -0.1534 -0.2297
10513W        W26130   4.020  16.406   5.486 -0.0988 -0.1621 -0.0964
10514W        W26131  17.468  13.978   0.555  0.0114 -0.3134 -0.1596
10515W        W26132  16.523  15.858   2.120  0.1861 -0.1147 -0.0210
10516W        W26133  10.753   5.337  12.362 -0.1137 -0.2440 -0.0403
10517W        W26134  13.411   3.202  16.753  0.0740 -0.0523 -0.0205
10518W        W26135  14.356  16.566   5.799 -0.1376 -0.2315  0.1577
10519W        W26136   2.004  16.848  16.194 -0.2458  0.2143 -0.4373
10520W        W26137   0.800  10.449   4.945  0.2609  0.1678 -0.1670
10521W        W26138  10.761  13.006  15.074  0.1201  0.1035 -0.1212
10522W        W26139  12.808  15.270  13.541 -0.0624  0.0299 -0.4155
10523W        W26140   6.314  17.201  11.917  0.0036  0.1187  0.3622
10524W        W26141   9.521   4.317   2.733 -0.2041  0.2522 -0.1928
10525W        W26142   4.606   8.718   2.187  0.1334 -0.2620  0.1332
10526W        W26143   3.216   9.158   3.562 -0.0787 -0.1337 -0.1684
10527W        W26144   1.261  15.157   3.052  0.0525  0.1666 -0.0992
10528W        W26145  15.884  17.560   4.641 -0.1593 -0.3107  0.0530
10529W        W26146   6.410   4.397  14.066  0.0733 -0.0214  0.0157
10530W        W26147  15.036   0.774   2.645 -0.0985 -0.2741 -0.1541
10531W        W26148  11.640  12.615   5.258 -0.0419  0.2803 -0.1551
10532W        W26149   4.730   4.950   0.768  0.0896  0.2763  0.0442
10533W        W26150  11.790  14.472  14.148 -0.0429 -0.1917 -0.1958
10534W        W26151   0.696   3.499  12.997  0.0423  0.1631  0.0723
10535W        W26152   9.634  13.789  17.129 -0.0445 -0.0882 -0.0612
10536W        W26153  15.901   9.169   4.909  0.0522  0.0614  0.3311
10537W        W26154  10.209  11.559  16.566  0.3208 -0.1419  0.0838
10538W        W26155  13.794  14.796   1.489  0.0122 -0.1030  0.1926
10539W        W26156   3.227   6.324   0.495 -0.1631 -0.1078 -0.1645
10540W        W26157  15.678  11.883  13.014 -0.0219 -0.0467 -0.0594
10541W        W26158   5.881  13.652   3.835  0.1906  0.0336 -0.2345
10542W        W26159  11.779   7.414  16.466 -0.2029 -0.1398 -0.2721
10543W        W26160  14.415   8.630   0.579 -0.4228  0.2304 -0.2385
10544W        W26161   7.254   3.997  14.340  0.1480 -0.2769 -0.1829
10545W        W26162  13.173   5.116  15.146  0.0925 -0.1497 -0.0752
10546W        W26163   1.564   4.807  14.846  0.3782 -0.0432  0.0241
10547W        W26164  12.408   1.356  15.201  0.2254  0.2863  0.2103
10548W        W26165  15.283   4.375   5.420 -0.0162 -0.2524  0.2152
10549W        W26166  10.407  15.314  15.046  0.0109 -0.3726 -0.2281
10550W        W26167   5.702  14.458   2.770  0.0203 -0.1216 -0.1186
10551W        W26168  12.534  14.421   4.022 -0.2231 -0.1319  0.2833
10552W        W26169  16.326  17.325  15.554 -0.0944  0.0736  0.0910
10553W        W26170  17.448   4.494   0.050 -0.1279 -0.0355 -0.0310
10554W        W26171   2.529  16.805   1.496  0.2682  0.1812  0.1203
10555W        W26172  12.098   8.373   6.152 -0.0736 -0.3403 -0.0959
10556W        W26173  14.025  14.113   5.623  0.0708  0.4421  0.1479
10557W        W26174   2.144   3.181  15.321  0.2864  0.0838 -0.1701
10558W        W26175  15.446   0.524   2.953  0.3257  0.1878  0.1327
10559W        W26176  10.544   2.975  15.973  0.1803  0.1660 -0.2400
10560W        W26177   9.654  17.385   0.271 -0.1825 -0.0624 -0.2834
10561W        W26178   2.684  12.475   4.714 -0.1095  0.0621 -0.0035
10562W        W26179  16.485   0.354  11.454 -0.0569 -0.3085 -0.0500
10563W        W26180  16.601   6.306   3.717  0.2731 -0.0247  0.1356
10564W        W26181   6.551   5.681   5.628 -0.3717 -0.2106 -0.4331
10565W        W26182   5.776  15.124   3.434  0.0567 -0.1078  0.1601
10566W        W26183  14.517  13.406  15.640  0.1588  0.1992 -0.2219
10567W        W26184   9.498   2.232  12.218 -0.0709  0.1810  0.0368
10568W        W26185   3.312   5.623   3.291  0.2930 -0.3718 -0.1171
10569W        W26186   8.016  14.101   2.641 -0.2471  0.0264  0.0277
10570W        W26187   9.687   6.495  17.132  0.0650 -0.1780  0.0606
10571W        W26188   6.145  13.427  14.822 -0.0504 -0.3252  0.0682
10572W        W26189  11.705   0.429  15.008  0.2500 -0.0903  0.4727
10573W        W26190   4.240  13.584   4.781 -0.1423 -0.0215 -0.2073
10574W        W26191  12.737   5.421   3.540 -0.2024  0.0873  0.0109
10575W        W26192   0.753  15.393  13.855  0.2213  0.2320 -0.1194
10576W        W26193   2.018   7.254   0.684  0.0708  0.1510 -0.0998
10577W        W26194   6.111   6.084   2.952 -0.3419  0.2172 -0.1019
10578W        W26195   9.984   5.233   5.999  0.0902 -0.1476  0.4254
10579W        W26196  14.017   3.301  12.699  0.0337 -0.1999  0.0585
10580W        W26197  13.935   3.347   3.718  0.2926 -0.1029 -0.0877
10581W        W26198  13.756  14.570  11.346  0.2005 -0.1600 -0.3839
10582W        W26199   8.584   1.824  14.698 -0.1477 -0.1491 -0.0294
10583W        W26200  12.201   2.500   1.933 -0.1024  0.1095  0.1760
10584W        W26201  15.905  14.488   5.115 -0.1706  0.1996 -0.0680
10585W        W26202  15.993  11.740   1.003 -0.0720 -0.0516  0.1294
10586W        W26203  16.160   6.443  15.635  0.3358 -0.1638  0.1088
10587W        W26204   5.705  13.241  16.114  0.0189  0.2029 -0.0608
10588W        W26205   4.274   7.440  16.093 -0.1375  0.2320  0.2489
10589W        W26206   9.548  14.682   2.101 -0.4203 -0.2731  0.1305
10590W        W26207   1.995   6.382  14.596  0.0436  0.1267  0.1321
10591W        W26208  17.133  15.176  13.221 -0.0734  0.0320 -0.1445
10592W        W26209   8.678  10.115  15.335  0.1833 -0.0925  0.1666
10593W        W26210   8.304   7.093  13.672  0.0650  0.1352  0.0708
10594W        W26211   6.695  14.879   0.256  0.2016 -0.1549  0.0412
10595W        W26212   9.943   1.786  14.363  0.0219  0.3135  0.1222
10596W        W26213  10.366   3.705   1.539 -0.1438  0.0131  0.0010
10597W        W26214   3.507  12.744  15.847  0.0754 -0.0594  0.1611
10598W        W26215   9.718   9.653   3.622 -0.1794  0.2003  0.1676
10599W        W26216  12.251  11.995   1.860  0.0372 -0.3136 -0.1961
10600W        W26217   4.414   9.118  13.878  0.1269 -0.0180 -0.0099
10601W        W26218   0.623  15.742  15.603  0.0479  0.0545 -0.3181
10602W        W26219  12.976   9.353  15.709  0.2025 -0.2643 -0.0287
10603W        W26220   5.952  14.500  16.760 -0.0114 -0.1547  0.2286
10604W        W26221   4.889   3.661  12.446  0.2441 -0.2366 -0.1637
10605W        W26222  13.905  14.352  14.578  0.2635  0.1588  0.0787
10606W        W26223   4.063   6.896   3.248  0.0302 -0.0042 -0.3015
10607W        W26224   8.460   6.790  13.032  0.0160  0.0185  0.2096
10608W        W26225  11.798  17.403  16.506  0.0812 -0.0683  0.1172
10609W        W26226  13.716   3.282  12.220  0.1380  0.0617  0.4359
10610W        W26227  16.492   0.040   3.700  0.2675  0.1311 -0.0600
10611W        W26228  14.254   0.321  14.136 -0.0010 -0.3410  0.0305
10612W        W26229   7.905  14.856   4.624 -0.2436 -0.1217  0.1380
10613W        W26230  16.891  15.178  15.393  0.1357 -0.0105 -0.0525
10614W        W26231  12.733   7.458   0.413  0.1172 -0.2720 -0.0698
10615W        W26232   3.747   1.948   0.358 -0.0745 -0.0958 -0.1689
10616W        W26233  11.940   4.699   3.105  0.0528 -0.0288  0.2977
10617W        W26234  12.442  14.796  15.727 -0.0386  0.2210  0.3458
10618W        W26235  11.613  10.117  12.534 -0.1423 -0.0579 -0.2765
10619W        W26236   8.476   1.073  15.478 -0.1239 -0.0200  0.0140
10620W        W26237   1.376  14.631   3.594 -0.0646 -0.3709 -0.0120
10621W        W26238  15.896   7.425  14.810 -0.1836 -0.0754  0.0084
10622W        W26239  15.213   1.978   4.497  0.0293 -0.2143 -0.2173
10623W        W26240  14.769   9.250  14.159  0.0960  0.0549  0.0337
10624W        W26241   9.817   8.203  15.413 -0.2393 -0.0453  0.3783
10625W        W26242  16.723   9.470  16.633  0.2320 -0.1485  0.3775
10626W        W26243   8.364   5.297   5.339 -0.3247  0.4529  0.1869
10627W        W26244  14.358  15.631   4.212 -0.1816  0.0291  0.3060
10628W        W26245   1.852   7.219  13.510  0.3446  0.0355  0.1237
10629W        W26246   8.261   9.244   4.457 -0.1907 -0.4042  0.2583
10630W        W26247   5.817   6.213  15.830  0.0350 -0.1482  0.2308
10631W        W26248  15.571   4.007  15.329 -0.2896 -0.2120  0.2741
10632W        W26249   6.635  16.558   4.119 -0.0249  0.1716  0.2123
10633W        W26250   0.467   0.761  15.986  0.1692  0.0412  0.0012
10634W        W26251  16.492   7.571  14.074 -0.0645 -0.0006  0.3222
10635W        W26252   1.125  16.500  13.973  0.2740  0.2553 -0.0657
10636W        W26253   0.071   2.506  16.322 -0.0459 -0.0989  0.0929
10637W        W26254  13.070   8.648   2.657 -0.0829 -0.1281 -0.1110
10638W        W26255   7.907  12.574   3.341 -0.1056 -0.0700 -0.3424
10639W        W26256  14.757  16.904   2.739 -0.1163 -0.0643 -0.1816
10640W        W26257   5.983  12.158  14.716 -0.1014 -0.0776 -0.0713
10641W        W26258  12.417  15.690  11.639 -0.0807  0.1062  0.0957
10642W        W26259   8.775  17.125   3.581  0.4169  0.1568  0.3510
10643W        W26260   0.741   4.258  13.074  0.0133  0.1623  0.1627
10644W        W26261   9.950  13.730   4.944 -0.0631  0.0427  0.0513
10645W        W26262  17.480  16.929   1.927 -0.0008  0.0829 -0.0452
10646W        W26263  12.208  12.746   1.413  0.0467 -0.0104 -0.0868
10647W        W26264   3.795   4.119  13.598  0.1437 -0.1883  0.1164
10648W        W26265   6.287   6.390  12.189 -0.0148 -0.0999  0.2981
10649W        W26266  13.160   0.669   6.366 -0.0379 -0.4261  0.0539
10650W        W26267   5.887  11.048  14.086  0.0226  0.2418  0.2135
10651W        W26268  16.342  11.750  16.441 -0.0623  0.0045 -0.1184
10652W        W26269  10.258  13.015   1.614 -0.0393  0.0883 -0.0410
10653W        W26270   1.033  14.002  12.938  0.0843  0.1971  0.2619
10654W        W26271   0.673  14.243  16.987  0.2878  0.1155  0.1749
10655W        W26272  15.391   5.295  13.152  0.2800 -0.2983 -0.1518
10656W        W26273  17.379  10.485   1.175 -0.2225  0.1177 -0.2509
10657W        W26274   3.349   0.321   2.032  0.0275  0.4192 -0.0092
10658W        W26275   3.023   9.874   5.215 -0.2929 -0.1718 -0.1472
10659W        W26276  11.850   1.511  14.285  0.0681 -0.2623  0.0586
10660W        W26277  15.915  12.234   1.713 -0.3615 -0.0108 -0.1507
10661W        W26278  17.527   3.525  17.243  0.0188  0.1344  0.0712
10662W        W26279   6.544  15.419  15.798 -0.0486 -0.0345 -0.1342
10663W        W26280  11.490   0.068  17.253  0.4341  0.3368  0.2595
10664W        W26281   9.309  16.672   1.770 -0.0803 -0.0406 -0.1413
10665W        W26282   5.688   6.194   2.585 -0.1999  0.1731 -0.1512
10666W        W26283  16.934  16.325   1.174  0.1271  0.0379 -0.1982
10667W        W26284   5.034   9.004   0.219 -0.1789 -0.3110 -0.2161
10668W        W26285   5.728   1.384   4.678 -0.0060  0.1044  0.0089
10669W        W26286   7.606  16.686  17.079  0.1480  0.0400  0.0197
10670W        W26287   8.655   8.981   2.289 -0.2598 -0.0787 -0.2754
10671W        W26288  10.216   4.278   4.801 -0.1475  0.0696 -0.0265
10672W        W26289  10.060  12.460  13.617 -0.2771  0.2605  0.1804
10673W        W26290   9.929   0.657   2.608 -0.0811 -0.0980  0.2379
10674W        W26291   1.029  14.910   4.455  0.3437  0.1193 -0.2472
10675W        W26292   9.023  10.692  12.936 -0.2065  0.0476 -0.1765
10676W        W26293   7.376   5.685   6.327  0.0697  0.1454  0.1232
10677W        W26294  15.457   1.598  12.606  0.2567 -0.1600 -0.0984
10678W        W26295   0.276  12.928  16.905  0.0162 -0.0427 -0.1061
10679W        W26296   1.889   2.132   1.827 -0.0585 -0.1814 -0.2763
10680W        W26297   7.620  12.666  12.024  0.1038  0.0087  0.3074
10681W        W26298   9.326   8.656  14.195 -0.2235 -0.1813 -0.0613
10682W        W26299   3.136  16.725   6.098 -0.1070 -0.4416 -0.0979
10683W        W26300   5.593  17.344   1.276 -0.0048  0.1167 -0.0250
10684W        W26301  16.481  16.958   0.460 -0.0757 -0.1815  0.1921
10685W        W26302   0.093   3.965   3.799 -0.1967  0.0261 -0.1879
10686W        W26303  12.191   9.751  12.062 -0.2917  0.0111 -0.3669
10687W        W26304   8.049   7.450  15.965 -0.2008  0.0469 -0.0652
10688W        W26305  12.553   5.483  16.962 -0.0829 -0.1495 -0.2540
10689W        W26306   8.725   8.024   2.306 -0.0376 -0.0389  0.0061
10690W        W26307   8.040   6.601   4.693 -0.1556  0.0516 -0.2104
10691W        W26308   5.299   8.982  14.704  0.0336  0.0881 -0.2746
10692W        W26309  10.337  15.658   4.332 -0.0132  0.0366  0.1190
10693W        W26310  10.667   6.379  17.044  0.0976  0.0337  0.3133
10694W        W26311   7.350   4.295  12.653 -0.1213 -0.0824 -0.2754
10695W        W26312   8.579   0.348  16.607 -0.0645 -0.2280 -0.0194
10696W        W26313   3.462  14.281   3.883  0.0879 -0.0695 -0.0972
10697W        W26314  16.931   7.614  14.693  0.0304  0.0497  0.4511
10698W        W26315  10.544   9.993  12.652  0.0851 -0.0609 -0.1083
10699W        W26316   7.366   0.791   4.085 -0.1161  0.0833 -0.0319
10700W        W26317   8.884   7.501   4.293  0.1386 -0.0140 -0.1611
10701W        W26318   3.495  12.191  17.251  0.0637  0.0382  0.2336
10702W        W26319  13.458   9.149  15.728  0.0154  0.2614  0.2562
10703W        W26320  17.556  10.256   4.449 -0.1289  0.1578  0.0806
10704W        W26321  14.992  15.054   5.023  0.0022  0.2163  0.2480
10705W        W26322  13.137   9.425   2.519 -0.0476 -0.2204  0.0792
10706W        W26323   5.998  12.200   0.640 -0.0701 -0.2188 -0.0735
10707W        W26324   4.207  13.855   3.752  0.0929 -0.1707  0.0569
10708W        W26325  12.028  15.051   2.193 -0.2506 -0.1956 -0.1383
10709W        W26326  13.748  16.692   3.086 -0.2211  0.1494 -0.3496
10710W        W26327  16.084   7.436   1.882 -0.1313  0.1164 -0.0814
10711W        W26328  13.631   5.957  13.456  0.1618  0.1071 -0.3464
10712W        W26329   4.753  10.926   1.257 -0.0574 -0.0809  0.0288
10713W        W26330   4.892  13.765  14.360 -0.2333 -0.2413  0.1155
10714W        W26331   3.946   0.274   3.236 -0.3595 -0.0737  0.2824
10715W        W26332  16.119   4.648  15.042  0.4020 -0.0789  0.1263
10716W        W26333   9.692   1.288   0.301 -0.2352  0.0678 -0.0760
10717W        W26334   1.100  11.347  11.702  0.0150  0.2466 -0.0679
10718W        W26335  14.671   9.347  16.306  0.1407  0.1954 -0.0589
10719W        W26336   7.821  10.308  16.503 -0.0917  0.2800  0.0755
10720W        W26337  16.164   2.694   4.659 -0.1249 -0.1961  0.2646
10721W        W26338   0.195  15.609  13.064 -0.2472  0.0347 -0.1542
10722W        W26339  13.452  16.977  15.701 -0.1823 -0.3218  0.0865
10723W        W26340  10.450   9.708   2.168 -0.2072  0.1369  0.0095
10724W        W26341  15.899  10.025  16.772 -0.1156  0.2172  0.0842
10725W        W26342   2.989  10.329   6.967 -0.0828 -0.1966 -0.2354
10726W        W26343  13.467   4.223  17.167  0.0540  0.0282 -0.0384
10727W        W26344   3.536  12.996  12.265  0.0323 -0.1948  0.2636
10728W        W26345   7.079   6.918  14.758 -0.0017 -0.1551  0.1952
10729W        W26346  13.623   5.358   1.881  0.0488 -0.1069  0.0176
10730W        W26347  15.998  13.057  16.665 -0.0742 -0.1075  0.0053
10731W        W26348   9.058   9.924  14.301 -0.0086  0.2421  0.0665
10732W        W26349   4.007   6.362   0.169  0.0852  0.3779  0.2047
10733W        W26350   2.782  15.700   3.249  0.0555  0.1790 -0.2772
10734W        W26351  13.472   9.829  17.112 -0.2447 -0.2304  0.0360
10735W        W26352   0.369  13.257   1.162 -0.3461  0.1847  0.0459
10736W        W26353  16.547  13.877   2.311  0.2370 -0.1470  0.1185
10737W        W26354   5.818   4.159  16.682 -0.2791  0.1072 -0.0428
10738W        W26355  12.078   6.249  16.712 -0.1356  0.0422 -0.1820
10739W        W26356  15.348   9.699   0.366 -0.1389  0.0414  0.0561
10740W        W26357   7.413  17.147   0.919 -0.1685  0.2633 -0.3120
10741W        W26358  10.632  10.425  16.549 -0.0125  0.0488 -0.2604
10742W        W26359   4.312   8.669  12.630 -0.1791  0.1643 -0.1344
10743W        W26360   5.853   6.813   1.693  0.0881 -0.2137  0.2879
10744W        W26361  12.077   3.338  13.889 -0.0965  0.0453 -0.1245
10745W        W26362  11.796  14.119   4.634 -0.1900  0.0486 -0.1418
10746W        W26363   7.297   4.712  15.763  0.0502  0.2682 -0.1522
10747W        W26364   5.933   2.177   0.280  0.2115 -0.1689 -0.0687
10748W        W26365   5.522   8.506  12.560  0.3182  0.2778  0.2913
10749W        W26366   3.113   4.469   6.321 -0.1309  0.0113 -0.1912
10750W        W26367  13.477   8.001   4.450  0.0561 -0.0676  0.0612
10751W        W26368   1.752  15.727   5.288  0.2048  0.1151  0.2602
10752W        W26369  13.539  17.398  11.943 -0.3203 -0.2526  0.3303
10753W        W26370   9.082  13.527  15.233  0.0413 -0.0290 -0.0420
10754W        W26371  11.969   2.144  16.488 -0.1944  0.0542  0.0858
10755W        W26372   6.778  15.207  15.445 -0.1164 -0.1494  0.1087
10756W        W26373   8.638   6.620   1.719  0.0301 -0.0159 -0.0910
10757W        W26374   8.598  13.539  16.133  0.2380 -0.0385 -0.1733
10758W        W26375  13.448   3.887  13.910  0.1308 -0.1157 -0.0312
10759W        W26376  11.629   2.866   2.602  0.0244 -0.1183  0.2428
10760W        W26377   0.033  15.899  14.743 -0.1163 -0.0132  0.0621
10761W        W26378   1.499   7.979  15.844 -0.2860 -0.0579  0.1047
10762W        W26379  11.127  15.530   4.204 -0.1071  0.0290  0.1060
10763W        W26380  12.954   6.994   5.405  0.2037  0.2164 -0.1184
10764W        W26381  11.068   7.752  12.312 -0.1571  0.2005  0.1000
10765W        W26382   3.032   2.469  15.752 -0.1310  0.1684  0.1574
10766W        W26383  11.824  13.073   1.408  0.0640 -0.1021 -0.3246
10767W        W26384   2.555   4.574   0.754  0.0964 -0.1623 -0.0585
10768W        W26385   4.310   8.277   3.989  0.3163  0.0207  0.1935
10769W        W26386  15.497  17.102  11.719 -0.0942  0.1768  0.1017
10770W        W26387  15.931  11.681   5.426 -0.2436 -0.0215  0.0753
10771W        W26388   5.415  17.434  12.683  0.2887 -0.0795 -0.2151
10772W        W26389   1.053   1.448  14.816  0.0771  0.2663 -0.0160
10773W        W26390   9.467  15.453   2.608 -0.0073  0.0050  0.2568
10774W        W26391  15.680  17.553  11.814  0.0514  0.3250  0.2272
10775W        W26392  13.625   8.626  13.829  0.1709  0.1112  0.1400
10776W        W26393   2.527  15.692  15.139  0.2204  0.0166 -0.0185
10777W        W26394   1.312  10.542   4.538  0.1023 -0.0880  0.2502
10778W        W26395   3.618   5.278   4.010 -0.0103  0.1400 -0.1236
10779W        W26396  10.755   7.842  11.922  0.1449 -0.0243  0.2302
10780W        W26397   4.190  13.897  11.531  0.0909 -0.1525 -0.1153
10781W        W26398   5.818   0.675   0.963  0.0406  0.1298  0.2840
10782W        W26399   7.364   2.859  13.742 -0.0244 -0.2767 -0.0767
10783W        W26400   3.444   2.386  13.489  0.1524  0.2204  0.0223
10784W        W26401   0.058   0.189  16.503 -0.1013  0.0827  0.0564
10785W        W26402  11.908   7.475  15.133 -0.1061 -0.0251  0.0019
10786W        W26403   7.046  15.150  14.009 -0.0408 -0.1563  0.0949
10787W        W26404  13.526  15.239  16.611 -0.0169 -0.0932 -0.2083
10788W        W26405   0.111  16.605   1.474  0.2838 -0.0456 -0.0358
10789W        W26406  15.147  11.620  16.479  0.0507  0.0372  0.0136
10790W        W26407   6.780   2.188  13.672 -0.1905 -0.0529  0.1712
10791W        W26408  17.379   4.989   5.639 -0.0254  0.0521 -0.1474
10792W        W26409   3.034   7.321   5.963 -0.0242 -0.2043 -0.4193
10793W        W26410  10.314  10.201   4.624  0.1154 -0.1185  0.2169
10794W        W26411   5.820   1.230  15.679  0.0554  0.0537  0.2473
10795W        W26412  13.405   5.872  12.953  0.0486 -0.2355  0.1533
10796W        W26413   5.695  15.570  14.364  0.2615  0.1706 -0.1904
10797W        W26414   6.863   0.523  12.957  0.0956  0.0105 -0.0640
10798W        W26415   1.305  11.669   0.365  0.3485 -0.0760 -0.2413
10799W        W26416  10.700  13.588   2.826 -0.0078  0.2946  0.3056
10800W        W26417  16.515   6.600  13.000 -0.0481  0.2652 -0.0431
10801W        W26418  15.402   9.409   4.854  0.3043  0.2768 -0.0216
10802W        W26419   9.531  16.111  12.149 -0.0168  0.2543 -0.0416
10803W        W26420   0.437  13.408  12.533  0.3476  0.1087 -0.1064
10804W        W26421  16.842   2.480   1.013 -0.1953  0.0220 -0.1011
10805W        W26422  10.572   1.073  16.659 -0.1681 -0.2385 -0.0683
10806W        W26423  11.652  10.418   4.549  0.0401 -0.0767  0.1881
10807W        W26424   8.510   6.052   1.437 -0.3228  0.0100 -0.2733
10808W        W26425   5.847   4.721   0.081 -0.0047  0.0581 -0.0225
10809W        W26426  11.208   4.372  13.664 -0.0906  0.2646  0.0901
10810W        W26427   6.623   8.152  15.072  0.0686  0.1272  0.1244
10811W        W26428   8.895   6.235   3.634 -0.0218  0.0300  0.2245
10812W        W26429   0.270   1.781  14.295 -0.5775 -0.0663 -0.1154
10813W        W26430  13.920   1.116   0.262  0.0944 -0.2592  0.1144
10814W        W26431   7.835  14.864   0.074  0.2665  0.0014 -0.0444
10815W        W26432  13.552   2.822  17.039 -0.0861 -0.0876 -0.1127
10816W        W26433  14.560   3.475  16.146 -0.0323 -0.1179  0.0939
10817W        W26434  14.464   5.687   5.755  0.0883  0.1380 -0.2385
10818W        W26435   9.893   7.000  16.383  0.1063 -0.0631  0.0388
10819W        W26436   9.974   6.197   1.569 -0.2975 -0.2132  0.0789
10820W        W26437   7.101  10.213  14.353  0.2326  0.0885  0.3731
10821W        W26438   7.225   5.038  16.162 -0.1272  0.3307  0.0555
10822W        W26439  16.103   2.819   6.033 -0.2751 -0.3761 -0.1943
10823W        W26440  12.725   9.257  14.247  0.1868  0.1219 -0.0800
10824W        W26441   3.269  13.479   1.282  0.1732  0.1033 -0.1321
10825W        W26442   5.553   5.738   1.752 -0.1975  0.0690  0.2010
10826W        W26443  15.008  16.089   2.891  0.1890  0.1509  0.0830
10827W        W26444  13.978  12.694   1.807  0.1121 -0.1412 -0.0594
10828W        W26445   5.481  10.488  12.835  0.2492 -0.0238  0.0630
10829W        W26446  13.168   5.397   0.969  0.1446  0.0819 -0.0637
10830W        W26447  16.007   7.294   2.861  0.4754  0.1728  0.0501
10831W        W26448   7.917   8.969   2.969 -0.1800 -0.1623 -0.2117
10832W        W26449   2.358   9.212   1.053 -0.0520  0.3056  0.1491
10833W        W26450  11.988  12.780  16.895  0.0176  0.2410  0.0735
10834W        W26451   0.407   1.701   0.711  0.0810  0.0379  0.4623
10835W        W26452   3.089   6.060  13.678  0.2671 -0.3616  0.1116
10836W        W26453  17.174   6.949   0.367 -0.2054 -0.0572  0.1246
10837W        W26454   7.729  13.760  12.084  0.2974 -0.3014  0.1089
10838W        W26455   1.070   6.050   6.494 -0.1281  0.2466 -0.2494
10839W        W26456  15.549   6.303   0.915 -0.0850 -0.1892  0.2790
10840W        W26457   8.486   0.002  14.798 -0.1579  0.0470 -0.3610
10841W        W26458   9.576  10.681  15.790  0.0484  0.0576  0.0004
10842W        W26459   3.152  15.700   2.859 -0.2170 -0.2249 -0.1232
10843W        W26460  16.335   0.268   4.783 -0.2020  0.1832 -0.0885
10844W        W26461  14.122   2.125  17.179  0.2423 -0.0037  0.2252
10845W        W26462  15.419   1.404   0.942 -0.2263 -0.2677  0.0399
10846W        W26463   6.119  13.083   0.101 -0.0894 -0.0004 -0.0999
10847W        W26464   9.128  13.207   2.927  0.0728  0.2402 -0.2694
10848W        W26465   8.209  13.225   4.007 -0.2704  0.0042  0.0730
10849W        W26466   5.777  10.446   3.417  0.2106 -0.0551  0.2464
10850W        W26467   2.478  14.499   4.622  0.2601  0.1089 -0.0349
10851W        W26468   9.457  12.146   4.678  0.3177  0.2318 -0.0163
10852W        W26469   0.977   6.490   5.960  0.3725  0.1481  0.1038
10853W        W26470   4.470  16.464  15.853 -0.1004  0.0289 -0.1015
10854W        W26471  15.862   0.181  14.084 -0.1274  0.1138  0.5557
10855W        W26472   6.589  13.703   0.613 -0.1534  0.0314  0.0645
10856W        W26473   8.670   8.192  12.917  0.2342 -0.1592  0.2195
10857W        W26474   7.067  10.646  16.727 -0.1539 -0.1454  0.1510
10858W        W26475  11.966  16.407  15.603 -0.0938  0.2197  0.2453
10859W        W26476  14.143   9.429  14.504 -0.1844  0.4045  0.3359
10860W        W26477  13.600  12.547  17.201  0.0484 -0.0255 -0.1657
10861W        W26478  12.927   7.353   4.144  0.2653 -0.1468  0.3681
10862W        W26479  16.323  12.206   2.887 -0.3525 -0.5626  0.1380
10863W        W26480   2.687   3.470  14.287 -0.0816 -0.3265 -0.0557
10864W        W26481  17.491   8.303   3.555  0.3144 -0.0167 -0.0476
10865W        W26482  12.471   8.213   5.281  0.4423 -0.3444  0.2785
10866W        W26483   4.180  12.035   1.913  0.0403 -0.0983  0.1572
10867W        W26484   3.855   1.852   2.378 -0.2274  0.2224 -0.1821
10868W        W26485   2.643  13.053   1.573  0.0288  0.0596 -0.2446
10869W        W26486  16.091  12.631   3.364 -0.0947  0.1623  0.2188
10870W        W26487   8.889   7.239   3.725 -0.1416  0.0762 -0.0901
10871W        W26488   2.294   0.970  12.004  0.3530  0.0493  0.0740
10872W        W26489  10.117  15.505   1.938  0.0458 -0.1958 -0.1716
10873W        W26490  17.386   2.988  15.683  0.1310 -0.0281  0.0351
10874W        W26491   4.703   3.994   0.763 -0.2697 -0.1080 -0.0261
10875W        W26492   7.531  14.476  13.621 -0.0318 -0.0336 -0.2746
10876W        W26493   1.407  11.680  11.921 -0.2326 -0.1292 -0.0238
10877W        W26494  15.214   1.862   0.743 -0.1587  0.0275 -0.2453
10878W        W26495  13.425  11.507   4.110 -0.1102  0.0604 -0.0049
10879W        W26496   8.226  15.900  15.853 -0.1729  0.0041 -0.1840
10880W        W26497   7.905   9.620   2.924 -0.0769  0.0847 -0.0783
10881W        W26498   3.919   3.726  15.169 -0.3098  0.1939 -0.1434
10882W        W26499  11.707  13.934   5.462  0.2957 -0.0275  0.0470
10883W        W26500   2.191   0.741  12.411  0.2627  0.1129  0.0521
10884W        W26501   9.812  14.041   0.211 -0.1493  0.0364 -0.1099
10885W        W26502  17.196   6.345  17.200 -0.0683 -0.2770 -0.3066
10886W        W26503   0.971  10.347  15.671 -0.1373  0.1461  0.1232
10887W        W26504  13.294   0.148  13.165 -0.0841 -0.0946 -0.3758
10888W        W26505  12.795  14.489   5.522 -0.3955  0.0927  0.1425
10889W        W26506  17.062  11.006  16.515 -0.0890 -0.0566 -0.2695
10890W        W26507  14.028  15.967   5.832  0.0137 -0.0241 -0.0282
10891W        W26508   2.441   3.854  15.827 -0.1269  0.0784 -0.0841
10892W        W26509   0.635  15.602   1.201  0.0618 -0.1107  0.1320
10893W        W26510   7.512   6.286  12.358 -0.0259  0.0789 -0.0769
10894W        W26511   8.842  12.138  12.896  0.0451  0.0556 -0.0428
10895W        W26512  14.689   2.653  12.715  0.2139  0.0792 -0.1059
10896W        W26513  12.757   3.048  16.455 -0.0595  0.1512  0.2084
10897W        W26514   4.805   0.857   5.182 -0.2661 -0.1203 -0.1179
10898W        W26515   9.726   4.736   5.702 -0.1680 -0.0021 -0.0109
10899W        W26516   1.625   5.840   4.893  0.4682  0.0560 -0.0292
10900W        W26517  15.582   2.056   3.742  0.1233 -0.2617 -0.2224
10901W        W26518   1.901  14.675   3.686  0.0409  0.1292 -0.1469
10902W        W26519  11.866   9.471  15.769 -0.1277 -0.2608 -0.0866
10903W        W26520   0.876  15.611  11.405 -0.3065 -0.0379 -0.0537
10904W        W26521  12.215   1.694  14.660 -0.1630 -0.0106 -0.0141
10905W        W26522  17.063   6.932  15.468 -0.1155 -0.0553  0.1252
10906W        W26523   3.525   9.818  13.959  0.1881 -0.1877  0.0003
10907W        W26524   3.400   7.300   5.420 -0.1570 -0.0466 -0.0585
10908W        W26525   6.231  15.059  16.027  0.0759 -0.1736 -0.0451
10909W        W26526   0.491   8.107   4.596 -0.1739  0.0144  0.0746
10910W        W26527   4.359   6.682   0.071  0.3147  0.0445 -0.1168
10911W        W26528  10.046  15.762  11.786  0.1540 -0.2158  0.4594
10912W        W26529  11.957   1.474   1.896  0.0326  0.1340 -0.1911
10913W        W26530  16.208  16.985  17.220  0.2388 -0.1056 -0.0480
10914W        W26531  16.590  14.671  12.182  0.2074 -0.3769  0.1158
10915W        W26532  16.704   4.090   3.648  0.2129 -0.0707 -0.1175
10916W        W26533   1.702   1.615   3.378 -0.0491 -0.0247  0.0256
10917W        W26534   4.239   9.856  16.851  0.0970 -0.0308 -0.2553
10918W        W26535  14.858   7.712  14.548 -0.5436  0.0244  0.2100
10919W        W26536  17.236   7.280  14.510 -0.1301 -0.0773 -0.0089
10920W        W26537  10.248  15.975   5.453 -0.1032  0.0301  0.0926
10921W        W26538   6.479  16.192  11.848  0.0643  0.1707  0.3767
10922W        W26539   9.736   8.302  16.315  0.1906 -0.2775 -0.0622
10923W        W26540  13.573  14.280   4.578 -0.0164 -0.0208 -0.0952
10924W        W26541   1.692  15.004  14.764  0.1001  0.0245 -0.1915
10925W        W26542   7.529   2.473   5.051  0.0697 -0.1352 -0.1466
10926W        W26543   1.864  11.861  16.993 -0.1262  0.2058  0.0553
10927W        W26544   0.582  15.565  14.344 -0.0613  0.0902 -0.1130
10928W        W26545   3.645  13.384   3.940 -0.2947 -0.0789 -0.2118
10929W        W26546   7.675   3.473  12.846 -0.0198 -0.0660  0.1524
10930W        W26547   3.429  16.262   3.576 -0.2229 -0.1020 -0.0612
10931W        W26548   8.068   2.886   3.530  0.1131 -0.0481  0.3722
10932W        W26549  10.588   1.129  14.366 -0.0735 -0.3443  0.1274
10933W        W26550  15.593  12.449  13.035  0.2401  0.2233  0.0429
10934W        W26551   8.115   8.257   0.436  0.0233 -0.4042 -0.2222
10935W        W26552  10.215   2.974  14.348 -0.1908 -0.0353  0.0583
10936W        W26553  16.846  10.073   0.071  0.1014  0.0678  0.0772
10937W        W26554  13.330  13.193   2.021 -0.3170  0.2969 -0.1127
10938W        W26555   4.358  15.438   0.837 -0.2413 -0.1943 -0.0308
10939W        W26556  12.916   2.466   1.594 -0.1345 -0.0170  0.3651
10940W        W26557   5.480   6.799  17.220  0.0526 -0.0502 -0.0767
10941W        W26558   1.678   5.571  15.278 -0.1235 -0.0334  0.2953
10942W        W26559  16.415  12.250   1.792  0.0981 -0.0882 -0.0360
10943W        W26560  13.150  16.890   5.380  0.0533  0.0778 -0.2961
10944W        W26561   1.089  14.490  12.985  0.2417 -0.0851 -0.1090
10945W        W26562   3.377   8.979  17.156  0.2025 -0.1022  0.0870
10946W        W26563   2.699   3.672   3.113  0.2237 -0.1411 -0.2294
10947W        W26564   8.755  17.155   2.442 -0.1909  0.0785  0.0134
10948W        W26565   3.080   3.463  14.636 -0.5037  0.1882 -0.1286
10949W        W26566  16.106   4.505  12.090 -0.1003  0.0044 -0.1026
10950W        W26567  16.627   6.155  13.444  0.4062  0.1031  0.1522
10951W        W26568   3.741   0.183   0.376  0.0243  0.1090  0.1452
10952W        W26569   2.777   0.313   2.742  0.0419 -0.0855 -0.1316
10953W        W26570   0.259   9.726   3.632  0.2911 -0.3621  0.0130
10954W        W26571   9.482   5.209   3.358 -0.2073  0.1481  0.1050
10955W        W26572  10.154  12.823   5.512 -0.1635  0.1987 -0.1125
10956W        W26573   1.882   1.940   4.172 -0.2637  0.1405  0.1057
10957W        W26574   6.778   9.657   2.014  0.1539  0.1048  0.2869
10958W        W26575   5.427  10.698  15.780  0.1901  0.0829 -0.2150
10959W        W26576   3.425  15.808  12.054 -0.3138  0.2409  0.1090
10960W        W26577   7.762  11.793  12.317 -0.0230 -0.1957  0.0998
10961W        W26578   5.635   2.544   4.882  0.0540 -0.0200 -0.0983
10962W        W26579  12.072   6.153   5.711 -0.2596 -0.0637  0.0632
10963W        W26580   8.187   0.060   5.541  0.2323 -0.1263  0.1104
10964W        W26581   1.702   8.972  12.093  0.3591  0.1566 -0.2214
10965W        W26582  14.112   1.001   4.684  0.0390 -0.0560 -0.2807
10966W        W26583   4.911   7.925  12.918  0.1375  0.1418 -0.2380
10967W        W26584   7.759  15.850  14.736 -0.4161  0.3047  0.0656
10968W        W26585   0.201  10.247  11.998 -0.0164 -0.0196  0.3355
10969W        W26586   4.099   2.192  16.729 -0.1351 -0.0401 -0.1097
10970W        W26587   2.725  11.568   0.090 -0.1821 -0.2040 -0.2116
10971W        W26588   0.784   3.064  12.652  0.0323 -0.0704 -0.0071
10972W        W26589   2.197   5.505  15.385  0.0493  0.1876  0.2622
10973W        W26590   0.510   9.976   6.045 -0.1136 -0.1034  0.0378
10974W        W26591   9.249   2.578  16.005 -0.0208 -0.0055 -0.1905
10975W        W26592   0.776  10.937   4.619  0.1471  0.1007  0.0517
10976W        W26593   5.326   1.908   0.775 -0.0878  0.1405  0.0552
10977W        W26594   2.681   6.055  14.683 -0.0516  0.0708  0.0852
10978W        W26595  14.530   6.155  12.461 -0.1120  0.0330  0.0733
10979W        W26596  14.338  15.082   0.839  0.0077 -0.2575  0.0600
10980W        W26597   3.321   6.445   2.563 -0.2223 -0.0834 -0.0761
10981W        W26598  16.987   4.085   0.959  0.2770  0.0731 -0.0175
10982W        W26599   2.233   5.098   5.261 -0.0489  0.1645 -0.0611
10983W        W26600   9.935   7.789   0.048  0.1258  0.0644  0.0777
10984W        W26601  16.762   0.786  12.915  0.1398  0.0860 -0.0252
10985W        W26602   9.214   7.424  15.492  0.0077  0.2133 -0.4704
10986W        W26603  12.027   2.302   0.143 -0.4449 -0.0080  0.2272
10987W        W26604   3.449   5.600  17.078  0.0066 -0.1365  0.0646
10988W        W26605  16.596   3.598  14.140  0.2231  0.1476 -0.1089
10989W        W26606   4.176  14.064  16.918 -0.0773 -0.0281  0.1317
10990W        W26607   2.682  11.010  14.888  0.2349 -0.3977  0.0369
10991W        W26608  14.293  16.877   3.473 -0.2417  0.1726 -0.2237
10992W        W26609   0.757   3.120  14.947 -0.3776 -0.0173 -0.1570
10993W        W26610   9.132   2.753   3.333  0.3003 -0.4006  0.2061
10994W        W26611   6.488   6.379   3.241 -0.2271 -0.3226  0.0383
10995W        W26612   6.672   7.666   1.506 -0.0855  0.2014  0.0706
10996W        W26613   1.428  10.504   4.033  0.0756  0.2110  0.0236
10997W        W26614  15.616   7.447  13.474  0.1305  0.0022  0.3000
10998W        W26615   9.404  14.516   2.793  0.2117  0.1560 -0.0325
10999W        W26616   8.143   6.811   3.859  0.0361  0.0347 -0.1815
11000W        W26617   7.807   6.129   2.033  0.1443 -0.0088  0.3725
11001W        W26618   8.514   4.383  14.062 -0.0389  0.1928  0.0825
11002W        W26619   5.175   1.321  14.546 -0.0059  0.0638 -0.0557
11003W        W26620   0.784   8.718  15.079  0.1816 -0.1084 -0.2152
11004W        W26621   5.110   2.153   1.706  0.0899  0.2207  0.1638
11005W        W26622  12.139  12.145   3.960 -0.1251  0.1145  0.2155
11006W        W26623   3.599   9.835   3.134 -0.2128  0.0163 -0.0919
11007W        W26624   8.469   0.893   5.444 -0.0611 -0.2591 -0.1623
11008W        W26625   9.179   7.106   2.084 -0.1615 -0.1169 -0.1299
11009W        W26626  16.309  12.425  12.005 -0.0002 -0.0640  0.1435
11010W        W26627  16.760   6.130  16.441  0.1358 -0.0629 -0.0179
11011W        W26628  15.419   7.026   5.488 -0.1032  0.3222 -0.0415
11012W        W26629   5.468   8.740  16.081 -0.3050  0.0189  0.0078
11013W        W26630  17.444   1.008  15.276 -0.4319 -0.0274 -0.2399
11014W        W26631   9.371  14.289  15.364 -0.4382 -0.0859 -0.2352
11015W        W26632  14.243   5.377  16.572 -0.2267  0.3868  0.0212
11016W        W26633   4.381   4.968   5.190  0.2304  0.0264  0.2468
11017W        W26634   9.824  14.402   4.713 -0.2982 -0.1285 -0.1613
11018W        W26635  11.028   1.756  12.717  0.1142  0.4019 -0.1277
11019W        W26636  17.059   2.093  16.272  0.1071  0.1565 -0.0333
11020W        W26637  14.307   3.389  16.646  0.0918  0.1127 -0.2782
11021W        W26638   8.002   7.809   6.143 -0.2642  0.1152 -0.2852
11022W        W26639   1.379  15.667  16.920 -0.1203  0.0946 -0.1703
11023W        W26640  14.849  14.622   4.808  0.0477 -0.0923  0.2070
11024W        W26641   5.369   7.157  14.631 -0.3160  0.2621  0.0394
11025W        W26642  11.948  10.200  17.220  0.3004  0.2926  0.2005
11026W        W26643  14.701   6.894  13.184 -0.2465  0.0597  0.2668
11027W        W26644   9.998   6.859  13.699  0.1483  0.3362 -0.0196
11028W        W26645  11.174  15.391   1.614  0.1885  0.1219  0.2361
11029W        W26646   6.921   2.089   0.721 -0.5307 -0.2242 -0.0912
11030W        W26647   7.551  11.994   3.354  0.1803  0.3951 -0.6386
11031W        W26648   5.334   8.076  16.773  0.3790 -0.0529 -0.1134
11032W        W26649   9.436  15.625   0.506  0.0267  0.1403  0.0160
11033W        W26650  13.553   4.152   3.713 -0.1209 -0.0979 -0.1094
11034W        W26651   4.093   1.955   4.697 -0.3004  0.1925  0.2141
11035W        W26652   3.904  15.387  15.154 -0.0746  0.1959  0.0802
11036W        W26653   8.510   3.248   0.210  0.0366 -0.2018  0.2036
11037W        W26654   0.881   4.647  12.787 -0.0854  0.1484  0.0366
11038W        W26655  16.456   5.622  14.713 -0.4452  0.1376  0.0741
11039W        W26656  11.922  10.669  15.184 -0.1237 -0.3524 -0.3118
11040W        W26657  16.800   9.143   2.234  0.0564 -0.1788 -0.0810
11041W        W26658   8.200   0.806   3.904 -0.2240 -0.0327 -0.2156
11042W        W26659  14.417  14.438  14.696  0.1257 -0.1831 -0.2488
11043W        W26660   8.329  17.519   5.031 -0.0204 -0.1045  0.0388
11044W        W26661   5.780   3.988   3.633 -0.0162  0.0011  0.0636
11045W        W26662   5.834   1.767  13.829 -0.0566  0.1257 -0.3254
11046W        W26663   1.754  10.580  12.029 -0.0822 -0.0826  0.0038
11047W        W26664  12.019  16.905  14.387  0.3181  0.1632  0.2278
11048W        W26665  16.658   0.234   2.197 -0.0477  0.2309 -0.1007
11049W        W26666  14.723  15.722   1.002 -0.1618  0.1134  0.0915
11050W        W26667  14.549  14.950   2.995 -0.1260  0.1738 -0.1311
11051W        W26668   5.430  16.844  15.456 -0.1296 -0.1850 -0.1766
11052W        W26669  15.164   1.616  13.237  0.0731  0.1250 -0.0231
11053W        W26670   4.900  15.345  13.375  0.2090  0.1841 -0.0712
11054W        W26671   7.646   4.896   0.058 -0.0148 -0.3185 -0.1288
11055W        W26672   5.973  12.102   1.596  0.0912 -0.0163 -0.2573
11056W        W26673   4.218  17.508  11.892  0.1872 -0.2303  0.0530
11057W        W26674  15.483   5.256   0.832 -0.3260 -0.0923 -0.2726
11058W        W26675  13.928  12.314  12.453  0.1923  0.1626  0.3753
11059W        W26676   6.963  15.307   1.150  0.0713 -0.5059  0.1148
11060W        W26677   9.432  11.408  15.501 -0.0264  0.1397 -0.0688
11061W        W26678   8.641  11.640   4.372  0.1090 -0.2551  0.1408
11062W        W26679  10.838  15.801  14.269  0.0168 -0.1549 -0.1889
11063W        W26680  13.172   9.068  16.115 -0.3798  0.1441 -0.0200
11064W        W26681   4.166   9.315  12.406 -0.2236 -0.0391 -0.1845
11065W        W26682   4.428   5.923   4.982 -0.4475 -0.0410 -0.4327
11066W        W26683   4.999   2.759   0.605 -0.2129 -0.2483 -0.1004
11067W        W26684   6.448  15.030   0.632 -0.0421 -0.1417  0.0942
11068W        W26685  15.470  16.439  12.306 -0.1032  0.2388 -0.0340
11069W        W26686   9.139   0.673  15.891 -0.0390 -0.0935 -0.0207
11070W        W26687   8.607  16.745  17.257  0.1942  0.3109 -0.1495
11071W        W26688  11.732  16.879  11.354 -0.0022 -0.0427  0.1594
11072W        W26689   2.390   8.123   4.631 -0.1548 -0.0826  0.1040
11073W        W26690  16.647   1.685  14.051 -0.2674  0.3092 -0.0404
11074W        W26691   9.773   1.329  14.354 -0.0138 -0.1198  0.1134
11075W        W26692   8.106   1.129  12.013 -0.0268 -0.0803  0.2030
11076W        W26693  13.732  13.938  13.786  0.0016  0.0796 -0.0471
11077W        W26694  15.118   7.458  16.011  0.0968 -0.1543 -0.0505
11078W        W26695  12.078  12.854  12.590 -0.0381 -0.2600  0.0292
11079W        W26696  14.563  10.432  12.379 -0.2309  0.0780 -0.0599
11080W        W26697  16.153  15.590  13.884  0.0035  0.0165  0.0830
11081W        W26698  14.209   8.973   4.241  0.3194  0.3488 -0.0021
11082W        W26699   2.362  12.879   4.819 -0.0761 -0.1228 -0.1210
11083W        W26700   6.544   4.329   4.571 -0.3237  0.2252 -0.1225
11084W        W26701   5.666  15.415  15.574 -0.1635 -0.0212  0.0742
11085W        W26702  15.863   2.630   0.719  0.1911 -0.0632 -0.1439
11086W        W26703   4.080  10.897  12.467  0.1786 -0.5264  0.3836
11087W        W26704   4.285  10.335  14.592 -0.1772 -0.1012  0.0729
11088W        W26705   3.292  12.228   2.612 -0.1966 -0.2279  0.0285
11089W        W26706  13.991  14.325   2.401 -0.3743 -0.4158 -0.0488
11090W        W26707  10.937  16.844  10.660  0.2017 -0.0397 -0.2773
11091W        W26708  14.758   3.020  13.123 -0.1233  0.1302 -0.0198
11092W        W26709  15.357   6.451   2.223  0.2274 -0.4355 -0.3254
11093W        W26710   9.308  14.067   1.591  0.0483 -0.2300  0.2511
11094W        W26711   0.522  13.795   2.780 -0.1661  0.0692  0.2758
11095W        W26712  15.865  10.463  17.042  0.1905 -0.0106  0.5365
11096W        W26713   7.374   5.337   0.172 -0.0934 -0.1892 -0.1292
11097W        W26714  14.661  10.829   0.291 -0.2351 -0.0046  0.1172
11098W        W26715   5.297   3.903   1.857  0.4480  0.0567  0.1242
11099W        W26716  14.679   4.908   0.492 -0.4491 -0.1121  0.1926
11100W        W26717  13.696  11.996   3.284 -0.0409 -0.0265 -0.0035
11101W        W26718   3.820   6.162   4.252  0.0809  0.0856  0.2407
11102W        W26719   0.616   9.803   0.931 -0.0767 -0.0521 -0.2232
11103W        W26720   6.349  16.839  14.424 -0.1494  0.2845  0.1830
11104W        W26721   9.416   2.019  13.054  0.1098  0.0646 -0.0402
11105W        W26722  13.588   1.274  13.814  0.1251 -0.1350  0.1391
11106W        W26723   6.732  16.006   5.030  0.0604 -0.1835  0.0218
11107W        W26724   8.523   8.630   0.358 -0.1080  0.2530 -0.1719
11108W        W26725  12.829   2.293  12.499 -0.2652  0.2108 -0.0563
11109W        W26726  17.561  16.600   0.116 -0.3455  0.3463  0.2069
11110W        W26727   9.489   3.696  11.897  0.0572 -0.1618 -0.1832
11111W        W26728  12.516  14.177   2.425  0.0736 -0.2890  0.0879
11112W        W26729   9.548  12.736  12.372 -0.1872  0.1492  0.1573
11113W        W26730   5.292  13.489   0.068 -0.0795 -0.0829 -0.1826
11114W        W26731   5.235  15.200   5.569  0.0049 -0.0487  0.4084
11115W        W26732   9.324  10.149   1.231  0.0645  0.3065 -0.1759
11116W        W26733  15.781   4.972  13.332  0.2029 -0.3355  0.0094
11117W        W26734  15.427   8.752   6.219 -0.0340  0.1237 -0.2718
11118W        W26735  15.329   2.570  11.606 -0.0975 -0.0060  0.2228
11119W        W26736  11.312   7.842   4.670 -0.0062  0.0974 -0.0572
11120W        W26737   9.255  10.566   0.168 -0.0956  0.0064  0.0486
11121W        W26738  10.075   8.137  12.485 -0.1172  0.0321 -0.3033
11122W        W26739   5.933  17.495  15.701 -0.1606 -0.2999 -0.2112
11123W        W26740  14.703  12.514  16.558 -0.0539 -0.0997  0.1873
11124W        W26741  10.828   6.635  15.365  0.0028  0.0777 -0.0039
11125W        W26742   3.718   6.679   5.584  0.0436  0.1864  0.0272
11126W        W26743   0.997   0.424   0.687 -0.0558  0.2465  0.0631
11127W        W26744  16.815   3.924  15.859  0.0731 -0.0711 -0.1149
11128W        W26745  12.334   0.106   5.174  0.1748 -0.0540 -0.1998
11129W        W26746   9.240   0.556  17.229 -0.0404 -0.0832  0.1863
11130W        W26747   0.283  11.606  11.701  0.1689 -0.0765 -0.0023
11131W        W26748  12.597   3.343   3.405  0.0421  0.0767  0.2630
11132W        W26749  16.310   7.993   3.419 -0.0467  0.1951  0.2157
11133W        W26750   5.564  12.680   3.945  0.2563 -0.1111  0.1028
11134W        W26751   6.890   2.531   4.555 -0.0825 -0.0697 -0.1627
11135W        W26752  17.616   5.767   2.773  0.0154  0.0996  0.0551
11136W        W26753   2.479   9.229   2.380 -0.1136  0.0397  0.0381
11137W        W26754  13.581   5.827   0.604 -0.0313 -0.0564  0.1061
11138W        W26755   9.316   8.207   1.896 -0.0840 -0.1208 -0.1959
11139W        W26756   8.394  15.381  15.801  0.3333 -0.0907 -0.0457
11140W        W26757  13.729   2.099  16.714  0.0421  0.1500  0.0532
11141W        W26758   9.337  10.216  16.101 -0.8069 -0.2809  0.1975
11142W        W26759  15.257   1.441  14.093  0.1786 -0.1221  0.2427
11143W        W26760  14.771  16.395  13.105  0.1687 -0.1488 -0.1346
11144W        W26761   6.986   2.324  11.292 -0.1064 -0.1454  0.0038
11145W        W26762   3.120   8.187  14.654  0.1500  0.0211  0.0774
11146W        W26763   6.531  14.846  15.686  0.1564 -0.0122 -0.2027
11147W        W26764   6.014   2.299   2.486  0.3629 -0.2799  0.1163
11148W        W26765   3.757  10.053   6.305 -0.0949 -0.2230 -0.1492
11149W        W26766  15.553  14.795  15.380  0.1761  0.4290 -0.3039
11150W        W26767   2.394   7.561  13.435  0.4132  0.0708 -0.2595
11151W        W26768   1.553  14.188   1.208  0.0962  0.2152 -0.0562
11152W        W26769   2.331   9.112   3.418  0.1655  0.1156 -0.0669
11153W        W26770  10.227  16.303  10.938 -0.1301  0.1701 -0.0908
11154W        W26771   4.081  12.526  15.869  0.0847 -0.2008 -0.0684
11155W        W26772   4.129  15.779   0.378 -0.0673  0.0059 -0.4081
11156W        W26773  11.072  14.624   0.482 -0.1549 -0.0401 -0.3170
11157W        W26774   2.959   9.694   5.706  0.1168 -0.0097 -0.2092
11158W        W26775  16.536   3.568   1.199 -0.3311 -0.3649  0.0900
11159W        W26776   5.253   5.192  13.702 -0.1253 -0.0116  0.1102
11160W        W26777  15.980  17.337  16.378  0.0489  0.1301 -0.1091
11161W        W26778   2.632  17.420   2.112  0.1449 -0.0911  0.1041
11162W        W26779  14.785  13.384  16.090  0.1931  0.2912 -0.5140
11163W        W26780   4.777   3.993   1.747 -0.1966  0.0134 -0.0724
11164W        W26781  14.015   4.205  12.687 -0.2467  0.0827 -0.5165
11165W        W26782   8.547  17.294   5.907  0.1810  0.1302 -0.1386
11166W        W26783  17.334   2.242  14.980  0.2849 -0.0741 -0.0045
11167W        W26784  11.012  16.983   3.216 -0.0214 -0.1400  0.1609
11168W        W26785   2.558  15.907  16.036  0.0800 -0.0645 -0.1858
11169W        W26786  12.098   4.330   0.042 -0.0051  0.0400  0.1578
11170W        W26787  14.868  15.801  16.060 -0.5104  0.1148 -0.1112
11171W        W26788  15.461   7.725   3.450 -0.4110 -0.1031  0.3130
11172W        W26789   8.875  13.783  12.211  0.2964  0.2984 -0.0017
11173W        W26790  10.945   3.101  11.472  0.0027  0.0676  0.3042
11174W        W26791   8.030  16.869  11.802  0.0331  0.2700 -0.1114
11175W        W26792   4.873  10.673  17.085 -0.0389  0.1656 -0.2299
11176W        W26793   1.605  13.684   1.248  0.3099  0.4475  0.0154
11177W        W26794  15.419  14.986   2.256 -0.0206  0.2253 -0.2334
11178W        W26795   9.528  13.171   5.393 -0.0959  0.0646  0.1486
11179W        W26796   2.169   1.506   2.626  0.0366 -0.0242  0.1249
11180W        W26797  10.171  11.340   6.293  0.1451 -0.1696  0.1157
11181W        W26798   1.855  11.971   3.704  0.2004  0.3138  0.1132
11182W        W26799   6.807   1.849  17.094 -0.0700 -0.0138  0.1869
11183W        W26800  11.651   3.725   2.918 -0.5827 -0.3619 -0.3955
11184W        W26801   5.361   7.034   2.486 -0.0890  0.0573  0.0998
11185W        W26802   0.023   3.312   3.635  0.0454  0.3069  0.2803
11186W        W26803   9.188   6.652   2.346 -0.1978  0.0064  0.0598
11187W        W26804  15.840   1.171   1.381 -0.1452 -0.2683 -0.1444
11188W        W26805   5.430   5.216   4.215  0.0501 -0.0351  0.0086
11189W        W26806   8.697  16.140   2.786  0.0524  0.0720 -0.0166
11190W        W26807  13.814   8.317   1.348 -0.1206  0.0079  0.1578
11191W        W26808   3.195   1.705   6.516 -0.1061 -0.2234 -0.2751
11192W        W26809   3.733  10.820   3.290 -0.0300 -0.2191  0.0060
11193W        W26810   5.420   2.159   0.176 -0.1050  0.0772  0.0692
11194W        W26811  15.001  13.314   4.147  0.2698 -0.1603 -0.1660
11195W        W26812  15.579   5.993   4.543  0.0141 -0.0250  0.1940
11196W        W26813  10.354  17.111   4.206  0.1132 -0.0971 -0.0600
11197W        W26814   0.610   9.558  15.234 -0.1416  0.2323  0.4197
11198W        W26815   7.833   7.124   4.096  0.0893 -0.0311 -0.0285
11199W        W26816   0.696  17.450   3.018 -0.2790  0.0328  0.2380
11200W        W26817   2.209   7.723   2.172  0.2406 -0.0699  0.2675
11201W        W26818   4.645   9.201   4.617  0.3032  0.1507  0.0558
11202W        W26819  15.174   6.042   1.407  0.1984  0.0461 -0.1895
11203W        W26820  14.771  14.126  12.401  0.3605  0.1808  0.2563
11204W        W26821   8.382  12.529   4.678  0.1885 -0.3343 -0.1214
11205W        W26822   5.206   7.538   1.315  0.1467  0.1631 -0.0248
11206W        W26823  12.437   5.348   1.273 -0.2612 -0.1924 -0.1862
11207W        W26824   3.629   4.840  16.738 -0.0555 -0.1522  0.0844
11208W        W26825   0.453   0.957   1.389  0.2509  0.1469 -0.1393
11209W        W26826   0.768   8.188  14.262 -0.1159  0.2412  0.2536
11210W        W26827   2.884  10.875   2.603  0.2512 -0.1479  0.0840
11211W        W26828   4.250   4.476  13.501  0.4515 -0.4638 -0.3025
11212W        W26829  12.954   0.683   0.279 -0.1836  0.0576 -0.1462
11213W        W26830  14.575   9.699   5.767 -0.0118 -0.0598 -0.1783
11214W        W26831   8.320  13.695   2.636 -0.0097  0.1610  0.2357
11215W        W26832  15.415  16.292   5.312  0.1705 -0.0830  0.0029
11216W        W26833   0.068  16.137  12.326 -0.0096 -0.0396  0.2619
11217W        W26834   8.278   6.851   2.557 -0.1937 -0.0425 -0.1192
11218W        W26835   4.840   2.196  16.313 -0.1095 -0.0901 -0.0933
11219W        W26836   7.111   1.016   5.456  0.2331  0.1094 -0.2342
11220W        W26837  11.053   4.420   3.229 -0.1732  0.0491 -0.0031
11221W        W26838  10.229  14.824   4.076  0.3369 -0.0896  0.1163
11222W        W26839   4.152   0.239  13.042 -0.0021  0.2048  0.0112
11223W        W26840   5.644  10.836   3.854 -0.0218  0.0673 -0.0172
11224W        W26841   4.034  12.047  17.270 -0.2456  0.1343 -0.0779
11225W        W26842   7.818   9.269  12.447 -0.0188  0.1420  0.2572
11226W        W26843  17.094  12.809  13.413 -0.1129  0.1164  0.2514
11227W        W26844  15.536   0.395   4.383  0.2335  0.1609  0.0635
11228W        W26845  15.423  10.250  16.886  0.0243  0.1632 -0.0865
11229W        W26846   7.055   7.380  16.724 -0.2698  0.0535 -0.0172
11230W        W26847   9.880   9.022  12.164 -0.2004 -0.1835 -0.1418
11231W        W26848  13.326   7.282   2.048 -0.0107  0.0741 -0.0679
11232W        W26849  10.036   7.188   2.720  0.0145 -0.2982  0.2403
11233W        W26850   6.219  12.994  12.358 -0.0484  0.0792  0.3120
11234W        W26851  12.925   0.847  17.117 -0.1286  0.2706  0.1026
11235W        W26852   4.205   0.289  16.940  0.0241  0.1426 -0.2361
11236W        W26853   5.262   1.711  12.849 -0.0219 -0.0233  0.2377
11237W        W26854  13.831   3.744  16.170  0.1086 -0.0719  0.0858
11238W        W26855   0.790   9.507  14.596  0.0752  0.3146  0.0852
11239W        W26856  13.493  17.252   3.313  0.0043  0.1091  0.0430
11240W        W26857   8.457  16.373  14.429 -0.2422 -0.1762 -0.1947
11241W        W26858   5.274   0.107  11.845 -0.0286 -0.1800 -0.0665
11242W        W26859  10.314   9.845  14.890  0.0214  0.1033 -0.2932
11243W        W26860   0.890  13.951  12.338  0.0029  0.0093 -0.1961
11244W        W26861   9.051  13.860  11.721  0.0392  0.1535 -0.0637
11245W        W26862  16.185   2.438  13.019 -0.3608 -0.1430  0.0265
11246W        W26863   7.871   1.873  15.456 -0.1292  0.2982  0.0285
11247W        W26864  12.461   6.081  14.071  0.2067 -0.1817  0.0519
11248W        W26865   4.619   5.647   6.213  0.0131 -0.2976  0.0373
11249W        W26866   0.349   5.416   2.790 -0.0533  0.0358  0.0952
11250W        W26867   2.100  12.124   1.812  0.0549 -0.0374 -0.0999
11251W        W26868  15.516  11.014   4.832  0.0626 -0.0710  0.2108
11252W        W26869   3.549  10.047  15.514 -0.0852  0.1263  0.0088
11253W        W26870   0.061   2.661   0.178 -0.0618  0.0010 -0.1395
11254W        W26871  11.414   2.361  12.276 -0.2643 -0.0200  0.0934
11255W        W26872   2.137   3.892   0.754  0.4226 -0.2587 -0.0157
11256W        W26873   2.528  16.387   2.300 -0.1122  0.2161 -0.0546
11257W        W26874  13.441   4.802   2.545  0.1132 -0.0812 -0.0468
11258W        W26875   5.147   0.265   0.035  0.1143 -0.4396  0.0580
11259W        W26876  16.254   4.495   4.844  0.0937  0.3288  0.0599
11260W        W26877   0.287   0.472   1.339  0.2425  0.0873 -0.1709
11261W        W26878  13.314   6.395   3.336 -0.0837  0.1408  0.0803
11262W        W26879  16.245  13.127  15.880  0.0430  0.0618  0.1866
11263W        W26880  14.707  11.622  11.788  0.1034  0.2276  0.4334
11264W        W26881   4.135   5.714   3.464  0.1441  0.2615 -0.1730
11265W        W26882  16.019  11.065  12.035 -0.1665  0.2371 -0.0069
11266W        W26883   4.235  16.740  14.449 -0.0422  0.1241 -0.1307
11267W        W26884  12.883  10.176  13.112 -0.2034  0.0619 -0.1390
11268W        W26885  13.742  11.943   4.114  0.2854 -0.0876  0.1123
11269W        W26886   3.786   8.237   2.907  0.0156 -0.2120 -0.0965
11270W        W26887  11.286  14.844   2.771 -0.3430 -0.2807  0.2803
11271W        W26888   6.741  10.784  11.604  0.3032 -0.1986 -0.1996
11272W        W26889   4.382  15.987  16.847 -0.2413  0.0281  0.1524
11273W        W26890  13.599   0.959  12.619  0.0160 -0.0279  0.0074
11274W        W26891   9.977   9.170  16.609  0.1627  0.0126  0.1401
11275W        W26892   7.256   0.053   0.934  0.2132 -0.3215  0.4062
11276W        W26893  14.146  12.034  12.823  0.0613  0.1541  0.0199
11277W        W26894  17.028  10.222   4.640 -0.0677  0.1033  0.2433
11278W        W26895   6.967   7.250   4.059 -0.1058 -0.0041  0.0913
11279W        W26896  13.075   6.670   1.467  0.1275  0.0766 -0.1288
11280W        W26897  11.444   1.848  13.590  0.1130  0.1162  0.2294
11281W        W26898   7.238  13.606   0.199 -0.1243  0.1865 -0.3220
11282W        W26899   3.671  15.910  16.484  0.0336  0.1841 -0.2190
11283W        W26900  11.583  15.756  12.940  0.1092 -0.0055  0.1457
11284W        W26901  12.090   6.415  13.038  0.0799 -0.1613 -0.0154
11285W        W26902   1.246   4.983   0.404  0.1580  0.0211 -0.2227
11286W        W26903   1.221  16.408   2.209  0.0338 -0.1187 -0.0185
11287W        W26904   6.171  10.342  13.456  0.0410 -0.0789  0.1400
11288W        W26905   3.965  11.816  13.569 -0.0354 -0.0260 -0.1295
11289W        W26906  14.855  16.035  16.565  0.1577 -0.2764  0.1929
11290W        W26907  12.651   6.899   0.030  0.2531 -0.0342 -0.1442
11291W        W26908   5.937  16.617   2.301 -0.0113 -0.0275  0.0463
11292W        W26909  11.957   6.838  12.684  0.0993  0.1145 -0.2940
11293W        W26910   1.294   3.106  12.364  0.2458  0.3544 -0.1474
11294W        W26911  14.943   7.610   5.039  0.1078 -0.2580 -0.1009
11295W        W26912  12.668   9.913   6.179 -0.0403  0.1093 -0.0050
11296W        W26913   6.951  12.371  13.271  0.0545 -0.2549  0.3801
11297W        W26914   8.946   4.309  14.513 -0.3340  0.3363  0.0597
11298W        W26915  15.127   0.810  15.189 -0.1277 -0.2779 -0.1348
11299W        W26916   0.242  11.998  12.369  0.0570  0.1443  0.0234
11300W        W26917  13.177  14.938   4.607 -0.1925 -0.0387  0.0742
11301W        W26918   8.681   1.833   0.211 -0.0015  0.0354  0.2001
11302W        W26919   8.217  12.439  17.279 -0.1453 -0.2956 -0.1210
11303W        W26920  16.880   5.656  15.505 -0.0311 -0.3308 -0.0826
11304W        W26921   3.674  10.315  16.051 -0.1650 -0.0057 -0.0356
11305W        W26922   0.336   1.802  15.801  0.0176  0.1149 -0.3240
11306W        W26923   6.126   3.363  15.616 -0.0113  0.1018 -0.1633
11307W        W26924  17.200   2.389  14.072  0.1439  0.2376 -0.1226
11308W        W26925   1.642  11.739  15.477  0.0372 -0.1677 -0.1524
11309W        W26926   2.870   9.643   4.368 -0.3191  0.0150  0.2186
11310W        W26927  10.030   7.570   1.087 -0.1686  0.0382  0.0590
11311W        W26928   6.848  15.139  17.130 -0.0094 -0.3670  0.1797
11312W        W26929   9.858   3.875  11.577  0.4091  0.0987  0.1345
11313W        W26930  17.602   1.257  14.053  0.1594  0.1559 -0.1196
11314W        W26931  15.193  16.642  15.035 -0.0860 -0.0665 -0.2154
11315W        W26932   5.310  12.118  13.841  0.1207 -0.1484  0.0102
11316W        W26933   6.157   0.734  12.463 -0.1952  0.2453  0.0564
11317W        W26934   1.438   2.751   4.147 -0.1100 -0.2370  0.1681
11318W        W26935  14.532  16.403  16.263 -0.2135  0.0721  0.0346
11319W        W26936   9.500   8.065   3.885  0.0073  0.0621  0.0527
11320W        W26937  13.947   5.396   6.312 -0.0688 -0.0552 -0.1272
11321W        W26938   7.087  14.381   4.073  0.0405  0.2918 -0.3162
11322W        W26939  12.897   1.408  11.364  0.3904  0.2839 -0.3273
11323W        W26940   2.438   9.536  14.644 -0.1491  0.0133 -0.1674
11324W        W26941  11.033  16.387  17.187  0.0598 -0.0096  0.0881
11325W        W26942  14.107   5.915   3.308  0.0610 -0.0791 -0.0311
11326W        W26943   2.394   4.210   0.492 -0.0819 -0.3435  0.3631
11327W        W26944   9.735   1.456  11.833 -0.1222 -0.0123  0.1465
11328W        W26945   8.761   8.701   5.513  0.1051  0.2913 -0.0411
11329W        W26946   5.014  16.290  16.639  0.1148  0.1834  0.0111
11330W        W26947   8.824  13.205   0.441 -0.0184 -0.1259 -0.2721
11331W        W26948   8.348  12.912  15.699  0.2063  0.0411  0.1103
11332W        W26949   3.268  16.601   4.810  0.1657  0.0845 -0.0486
11333W        W26950  16.365   8.677   0.392  0.2563  0.0721  0.1667
11334W        W26951  11.311  17.582   4.334  0.1147 -0.1449 -0.0295
11335W        W26952   8.511   4.515  11.991 -0.1159 -0.1281 -0.1777
11336W        W26953   0.836  10.416  14.166 -0.0098 -0.0510  0.1707
11337W        W26954   5.254  13.368  15.854 -0.0887  0.1838 -0.0394
11338W        W26955  13.349   4.945   0.694  0.0251 -0.1447 -0.0742
11339W        W26956  13.304  12.388   0.378  0.0686 -0.0159 -0.0175
11340W        W26957   8.633   5.825   2.887 -0.1383  0.0658 -0.0741
11341W        W26958  10.530  11.384   4.561  0.1899  0.0103  0.0024
11342W        W26959  11.251   9.984  15.186 -0.0311 -0.1183 -0.2139
11343W        W26960  16.526   2.784  13.035 -0.1657  0.0292 -0.1313
11344W        W26961   5.725   8.950  14.961 -0.4225  0.2369 -0.0768
11345W        W26962  12.330   0.414   3.922  0.3745  0.0141  0.1570
11346W        W26963  11.966  11.094  14.026  0.0364 -0.1119  0.1002
11347W        W26964   3.361   4.227   2.775 -0.1927  0.2361  0.1100
11348W        W26965  14.420   3.619  13.672 -0.0422  0.0626  0.0280
11349W        W26966  17.345   1.649  14.277 -0.2882 -0.2024 -0.1498
11350W        W26967  12.569   0.344   2.096 -0.0676  0.0694 -0.0139
11351W        W26968   3.648   6.016  15.022 -0.2913 -0.0621 -0.0012
11352W        W26969   0.033   8.593  16.856  0.0985  0.2484  0.0761
11353W        W26970  14.858   8.628   2.414  0.0543 -0.1124 -0.1393
11354W        W26971  14.990   0.103  14.545  0.1321 -0.0012  0.2355
11355W        W26972  10.621   2.962  12.547  0.1502  0.2761  0.1375
11356W        W26973   0.528  11.951  13.915  0.2547 -0.2003  0.0641
11357W        W26974   5.546   7.516  15.803 -0.2526  0.1415 -0.2010
11358W        W26975   3.009  12.890  12.207 -0.0074 -0.2158  0.4857
11359W        W26976  10.745  10.835  12.506  0.0157 -0.1661  0.0944
11360W        W26977  15.420   8.856   4.357 -0.0071 -0.0785  0.2195
11361W        W26978  16.869   7.360   1.767 -0.1286 -0.1497 -0.3667
11362W        W26979  14.884   6.027  14.454 -0.1973  0.2703  0.0301
11363W        W26980  12.897  14.538  15.644 -0.1655  0.1383 -0.2876
11364W        W26981   7.798  14.257  15.659 -0.2814 -0.0446  0.1243
11365W        W26982   8.476   1.451  11.696  0.4097  0.0466 -0.0541
11366W        W26983  11.669   9.563   5.439 -0.0461 -0.2742  0.0006
11367W        W26984   3.838  16.743  13.395 -0.0286  0.1593  0.2070
11368W        W26985   1.549   2.432  13.531 -0.1933 -0.2997  0.0228
11369W        W26986  14.023  15.771   0.288  0.1524 -0.1358 -0.0384
11370W        W26987   3.639  15.038   0.294  0.2343  0.0419 -0.1356
11371W        W26988   4.105   4.958  15.969 -0.0562 -0.1630  0.2918
11372W        W26989   7.429   8.777   4.067 -0.0041  0.1043  0.0550
11373W        W26990  17.334   2.061   0.211 -0.0233 -0.0870  0.1768
11374W        W26991  12.308  13.800  11.977 -0.1764 -0.1167  0.3732
11375W        W26992  10.845  11.752   6.070  0.3871 -0.0962 -0.1811
11376W        W26993  10.274  16.013   2.206 -0.0264  0.0098  0.3692
11377W        W26994   7.334   1.715  14.134  0.0348  0.0290 -0.0602
11378W        W26995   7.153   1.491   4.878 -0.0918 -0.1476  0.0064
11379W        W26996  15.982  12.037  12.166 -0.1875 -0.0631 -0.1494
11380W        W26997  14.651   0.149  12.527 -0.0893  0.3131  0.1302
11381W        W26998   1.376  12.884  15.740  0.2913  0.0521 -0.1236
11382W        W26999   7.333  13.289   0.971  0.1354 -0.3693 -0.1718
11383W        W27000   0.112   0.745   0.194 -0.1806  0.1032  0.1569
11384W        W27001   3.133  10.851  13.744 -0.0552 -0.0954  0.2132
11385W        W27002   5.283   9.857  12.265  0.0007  0.1543 -0.0210
11386W        W27003   0.652   9.390  15.704  0.2188 -0.2277 -0.0364
11387W        W27004  11.557   5.722   1.073 -0.0749 -0.1335  0.2065
11388W        W27005  15.446   2.639  15.918 -0.2621 -0.0841 -0.2604
11389W        W27006   8.865   5.351  14.656  0.1163 -0.1826 -0.2041
11390W        W27007   9.561  14.977  13.403  0.3836  0.0018 -0.0727
11391W        W27008   6.308   4.863   2.266  0.0292 -0.0208 -0.1522
11392W        W27009   2.815   3.096  13.454 -0.1072 -0.0256 -0.0387
11393W        W27010   2.083  12.646   6.300  0.0143  0.0136 -0.2505
11394W        W27011   9.627   8.023   1.172 -0.1273 -0.2041  0.0406
11395W        W27012   1.180  16.566   1.067  0.0361  0.1794  0.1713
11396W        W27013  14.308   7.324  15.621 -0.3670 -0.2574 -0.2676
11397W        W27014  12.410   2.481   5.334 -0.1155  0.0263  0.2592
11398W        W27015   1.449  16.820   1.489  0.0897 -0.0940 -0.1057
11399W        W27016   6.308   6.982   2.439 -0.0396 -0.2930 -0.1586
11400W        W27017   7.712   3.908   2.733  0.3898 -0.4199  0.0014
11401W        W27018   7.526   6.319  16.418  0.0065  0.0015  0.0023
11402W        W27019   8.900  16.040  16.024 -0.1123  0.2279 -0.0449
11403W        W27020   7.949   3.298  14.303  0.2887  0.1077  0.0762
11404W        W27021   7.404   7.356  13.587 -0.3204 -0.1114  0.0189
11405W        W27022   0.475   1.804   5.024 -0.0369 -0.1941 -0.0262
11406W        W27023   6.510   2.875  13.123 -0.0927 -0.0215  0.0062
11407W        W27024   8.559  11.618  17.103 -0.0840 -0.1810 -0.2841
11408W        W27025  10.828   3.014  11.983  0.0930 -0.2200 -0.0455
11409W        W27026   3.967   9.695   5.119  0.1344 -0.0644  0.0837
11410W        W27027  17.051   7.731   0.629  0.1066 -0.0811 -0.2233
11411W        W27028   2.639  17.447  12.556  0.3067  0.0688 -0.4302
11412W        W27029  17.223   6.390  14.081  0.3148 -0.2240 -0.0422
11413W        W27030  15.013  13.622  14.623 -0.0783  0.0852  0.2505
11414W        W27031  10.971  17.511  11.841 -0.0675 -0.0902  0.0508
11415W        W27032   1.406   6.374   3.586  0.3067 -0.0147  0.0483
11416W        W27033   1.038  13.076  14.443  0.0817 -0.0057  0.0052
11417W        W27034   4.340   9.651  12.719 -0.0850 -0.0340 -0.4665
11418W        W27035  11.038  10.824  11.045  0.0277  0.0880  0.0202
11419W        W27036  12.116  15.268   0.163  0.1929 -0.1602 -0.0235
11420W        W27037  16.591   6.750   2.842  0.0808 -0.0203 -0.0566
11421W        W27038  16.820  16.470  14.671 -0.4462  0.2140  0.2269
11422W        W27039   8.018   3.082   5.179  0.0771  0.0150 -0.0539
11423W        W27040   4.021   7.419   6.130 -0.1856  0.0360  0.1191
11424W        W27041  14.435   6.587   1.664  0.3029  0.1380 -0.1405
11425W        W27042  14.780  17.076  12.031  0.1460 -0.0298  0.1505
11426W        W27043   3.669   1.644  13.504 -0.0203  0.0309 -0.0175
11427W        W27044   6.972   4.141   4.750  0.0228 -0.1155  0.1394
11428W        W27045   8.883   6.118  16.961  0.1926  0.0032  0.1245
11429W        W27046   6.073   7.233   4.056 -0.0511 -0.1476  0.0428
11430W        W27047   5.652   5.392  12.663  0.1851 -0.1380  0.0875
11431W        W27048  11.013  14.808   4.712  0.0089 -0.3934 -0.0129
11432W        W27049   3.609   4.805   2.626 -0.1803 -0.1619 -0.1106
11433W        W27050   7.306   3.952   5.567 -0.0159  0.0235 -0.1219
11434W        W27051  10.518   2.540   3.998 -0.1118  0.1511  0.0877
11435W        W27052   8.808   9.108  13.025  0.1054  0.0635 -0.0753
11436W        W27053   6.231  11.961  16.104  0.0039  0.0756  0.2703
11437W        W27054   4.080   9.198   3.840  0.1160 -0.1704  0.0501
11438W        W27055  10.059   1.886   0.281  0.0179  0.2807 -0.1922
11439W        W27056  17.289  16.503  16.385 -0.3082  0.3225  0.3969
11440W        W27057   6.033  14.289   4.098 -0.1828  0.0367  0.0762
11441W        W27058  11.501  11.093   3.535 -0.1664  0.2119 -0.0505
11442W        W27059  17.048   0.303   4.309 -0.0049 -0.0121  0.1517
11443W        W27060  15.517  10.364   0.921 -0.1634 -0.1556  0.0596
11444W        W27061  14.349   4.259  16.808  0.0808  0.4510 -0.0133
11445W        W27062   4.878  15.575  11.661 -0.1835 -0.0181 -0.0061
11446W        W27063   5.522   6.183   4.334 -0.0238 -0.2676 -0.0510
11447W        W27064   8.848  10.783   1.555  0.3130 -0.3214  0.3622
11448W        W27065  11.206   1.364  11.872 -0.3103  0.0702  0.1357
11449W        W27066   0.026   7.131  13.594 -0.0292 -0.0559 -0.2444
11450W        W27067   4.600  16.186  13.752 -0.1513 -0.0968 -0.2304
11451W        W27068   1.307   4.311   5.706 -0.0629 -0.1968  0.0674
11452W        W27069   2.241  11.909   3.304 -0.0223 -0.3975  0.1448
11453W        W27070  13.856   8.266   2.606 -0.0103  0.1963 -0.1490
11454W        W27071   2.421   1.097   2.864 -0.0083  0.0716  0.0124
11455W        W27072   4.776   5.653  14.821 -0.0317  0.1886 -0.2482
11456W        W27073   7.166   9.290   1.646  0.0991  0.3352  0.2647
11457W        W27074   0.421  12.523  16.671 -0.0875  0.3776  0.0060
11458W        W27075  14.305   1.062  17.059 -0.0112 -0.0394 -0.0196
11459W        W27076   3.825   2.652  16.849 -0.3271 -0.0283  0.0124
11460W        W27077  10.335   6.840   0.338 -0.0335  0.0641  0.0432
11461W        W27078  12.960  14.063  16.058  0.1062  0.1806 -0.0955
11462W        W27079  14.888   5.640  15.315  0.1275  0.0639  0.2653
11463W        W27080   7.910   2.747  11.486  0.2375  0.2611 -0.0128
11464W        W27081   5.781  14.923  15.812 -0.0935 -0.0007  0.1710
11465W        W27082   0.295  13.972   4.958  0.0117 -0.0740 -0.0640
11466W        W27083  17.124  14.709   2.051 -0.1389 -0.0736 -0.0004
11467W        W27084  12.564  10.555  14.415 -0.0454  0.2625  0.1327
11468W        W27085  12.372  14.351   0.474 -0.1350  0.1084 -0.2889
11469W        W27086   6.110   2.867  14.677  0.3059  0.2110 -0.2902
11470W        W27087  13.661   1.709   4.545 -0.0535 -0.0359 -0.0972
11471W        W27088  16.382   6.932  15.914  0.2093  0.1937  0.1247
11472W        W27089  16.948  11.428   3.733 -0.2098  0.0014 -0.1039
11473W        W27090  16.039   4.578   4.279 -0.0841 -0.1223 -0.0277
11474W        W27091   4.063   5.385   2.084 -0.0272 -0.1528 -0.1432
11475W        W27092  13.887   1.750   4.991 -0.0507 -0.0042  0.3731
11476W        W27093  16.751   9.053  11.738  0.2696  0.3019  0.1032
11477W        W27094  10.167   2.280   5.030 -0.2784  0.0299 -0.1393
11478W        W27095   8.133  10.628  16.098 -0.0880 -0.1881  0.2167
11479W        W27096   1.658   7.454   1.288  0.0637 -0.1388  0.0960
11480W        W27097   8.434   7.458   5.858 -0.0268  0.2452  0.0074
11481W        W27098  11.565  15.342  15.420 -0.0379  0.0886 -0.2615
11482W        W27099  13.021   3.582   1.689  0.3419 -0.0052 -0.1223
11483W        W27100   5.327  14.761   1.405 -0.0075 -0.0086  0.1138
11484W        W27101   5.145   3.242  16.891 -0.2263 -0.0646 -0.2001
11485W        W27102   5.073   6.597   2.875  0.1900 -0.0471 -0.3406
11486W        W27103   1.857   8.739  13.856  0.0203  0.1672 -0.3304
11487W        W27104   2.890   3.936   6.469 -0.2519  0.1619  0.0823
11488W        W27105  12.840  10.136  13.851  0.1069 -0.1124 -0.2856
11489W        W27106   5.514   7.442  15.214 -0.0552 -0.3442 -0.1350
11490W        W27107   6.881  16.669   2.333  0.0260  0.2290 -0.0312
11491W        W27108  14.648   1.387  16.052  0.2415 -0.1411  0.2214
11492W        W27109   3.289  13.368  11.977 -0.3278 -0.2117  0.2718
11493W        W27110  13.501  17.184  17.173 -0.2805 -0.1242  0.4076
11494W        W27111  17.518   6.323   4.620 -0.0774  0.0042  0.0583
11495W        W27112  10.057   1.743  14.887 -0.1399  0.2857 -0.2118
11496W        W27113  16.579   7.829  12.406  0.2048  0.1205 -0.0053
11497W        W27114   8.215  15.336   1.983  0.1650  0.1801 -0.0149
11498W        W27115  11.175  14.577  16.957  0.1721  0.0549  0.2073
11499W        W27116  11.104   1.642  14.910  0.0948 -0.0191  0.0352
11500W        W27117   0.337   0.537   5.329 -0.2335  0.1448  0.0498
11501W        W27118   9.450  13.964   4.189 -0.0363  0.0682  0.0249
11502W        W27119  13.294   6.958   5.809  0.1045 -0.0667 -0.5928
11503W        W27120   7.516  15.526  11.634 -0.2224 -0.0031 -0.0033
11504W        W27121  14.196  15.193  11.982 -0.2276  0.1985 -0.1255
11505W        W27122  12.515   4.453  13.329  0.2541  0.0421 -0.0150
11506W        W27123   8.036   1.046   2.788 -0.3460 -0.0241 -0.1867
11507W        W27124   5.478   2.746   1.642 -0.0392  0.2025 -0.1547
11508W        W27125   7.877  12.116  12.713 -0.0213 -0.1190 -0.1241
11509W        W27126   4.181   2.654  14.872  0.1329  0.1448 -0.3177
11510W        W27127   1.115   4.361  15.452 -0.2362 -0.0527  0.0229
11511W        W27128  13.956   3.466  13.299 -0.1381 -0.0937  0.0292
11512W        W27129  17.556  13.908   2.688  0.0108 -0.0616  0.0565
11513W        W27130   3.661  14.317   0.526 -0.0680 -0.0445  0.4751
11514W        W27131   4.449   5.921   5.471 -0.3299 -0.0462  0.2638
11515W        W27132   4.158   7.941  16.094 -0.0716  0.1092  0.0484
11516W        W27133   9.358   0.849   1.708 -0.1000  0.2508 -0.1579
11517W        W27134  14.827   7.355   3.686 -0.1748 -0.1244  0.3341
11518W        W27135   5.260  12.774  12.990  0.0296 -0.1173  0.0989
11519W        W27136  10.406  11.718   3.611  0.2243 -0.3202 -0.1807
11520W        W27137  12.718   3.619   2.178 -0.0589 -0.0369 -0.1861
11521W        W27138   6.057   6.831  11.923 -0.2370 -0.2071 -0.3216
11522W        W27139  11.717   2.587  14.714 -0.0734 -0.0792 -0.0728
11523W        W27140   9.472   3.519   5.487  0.0779  0.0558 -0.1115
11524W        W27141  17.356  16.328   2.238  0.1833  0.0633  0.1725
11525W        W27142  14.172   4.803   2.161 -0.0679 -0.0508 -0.0383
11526W        W27143   3.877   1.468  14.061  0.0506 -0.1048 -0.1123
11527W        W27144   0.257  17.192  14.246  0.0341  0.2459 -0.0943
11528W        W27145   4.272   6.310  14.736 -0.1826 -0.1226 -0.0566
11529W        W27146   3.170   1.317  13.397 -0.2201  0.0845 -0.0053
11530W        W27147  13.384  10.656  11.855  0.2068 -0.2746 -0.2736
11531W        W27148   5.071   1.039   2.842  0.2408  0.1305 -0.1026
11532W        W27149  16.114   2.489  15.652  0.0208  0.0744  0.3395
11533W        W27150  11.967   0.678   1.628 -0.1394  0.0793  0.0524
11534W        W27151   4.092  10.054   1.961 -0.1097  0.0686  0.0275
11535W        W27152   8.811   0.813  14.625 -0.1039 -0.3567 -0.2012
11536W        W27153   1.492  17.512   4.097  0.4510 -0.1884  0.2773
11537W        W27154   0.477   9.401   1.801  0.0212  0.1247  0.0749
11538W        W27155   9.058  16.128  14.460 -0.0590 -0.0781 -0.1331
11539W        W27156   5.686   7.980  13.280  0.2267  0.2955  0.2804
11540W        W27157   4.586   5.130   4.047 -0.0781  0.1980  0.2543
11541W        W27158   0.091   7.812  13.868  0.0760 -0.1715 -0.1301
11542W        W27159   1.962   9.491   5.211  0.1321  0.1091 -0.0870
11543W        W27160   5.550   0.456   0.275 -0.1700  0.1045 -0.2170
11544W        W27161  17.305  11.467   3.334  0.0794 -0.1893  0.1775
11545W        W27162   3.007   3.016  14.845  0.0057  0.0277  0.0741
11546W        W27163  11.106  11.431  14.708 -0.0781 -0.1555 -0.2933
11547W        W27164  17.438   0.317   1.537  0.0882 -0.0225 -0.0801
11548W        W27165   2.362   6.693   0.166  0.0660  0.1341  0.2994
11549W        W27166   8.057  16.932  15.207  0.0562  0.2782 -0.2063
11550W        W27167  10.550  11.024   4.121 -0.0610  0.0420 -0.0003
11551W        W27168   1.888   0.164   4.380  0.0900 -0.2785 -0.2580
11552W        W27169  10.766  12.765   3.955 -0.0012  0.0474 -0.0715
11553W        W27170   7.770  13.128  14.965  0.3252  0.4426  0.2389
11554W        W27171  13.160   0.515   4.848 -0.1103 -0.0838 -0.0672
11555W        W27172   0.592  12.592  14.002  0.0723 -0.2519  0.0618
11556W        W27173   3.600  10.297   4.093  0.0130  0.0398 -0.0962
11557W        W27174   5.652  17.400  13.184 -0.0749  0.0570  0.0885
11558W        W27175   1.803   3.908  15.168 -0.1695 -0.2985  0.2038
11559W        W27176  16.125  16.784   5.131 -0.2209 -0.0900  0.3889
11560W        W27177   6.907   2.609   0.543 -0.1508  0.0346 -0.0242
11561W        W27178  11.566   0.721   4.887  0.1950 -0.3752 -0.1646
11562W        W27179  16.808  11.709  16.075  0.4149  0.0997  0.0822
11563W        W27180  13.945   5.781   5.946 -0.2403  0.0781  0.0676
11564W        W27181  12.858  16.289  10.940 -0.4550 -0.1356  0.4277
11565W        W27182  11.400   5.748  10.852  0.3049  0.0581  0.1721
11566W        W27183   8.492   8.054   4.978  0.0111  0.0920 -0.1262
11567W        W27184   4.114  15.844  14.758 -0.0322  0.0014 -0.0462
11568W        W27185  15.625   2.335   3.262  0.2196  0.1331  0.1211
11569W        W27186  14.562   4.594   1.934 -0.0895  0.4670 -0.3072
11570W        W27187   5.032   9.130  13.671 -0.0410 -0.2642  0.0101
11571W        W27188  14.235  17.032  14.834  0.3040  0.0062 -0.1033
11572W        W27189  13.936  12.821   6.322 -0.1014 -0.1013  0.0555
11573W        W27190   9.518  14.684  15.720  0.0538 -0.1649  0.0893
11574W        W27191   3.824   6.461  13.952 -0.1865  0.0222  0.1073
11575W        W27192   8.509  17.102  11.843 -0.0302 -0.0110  0.0606
11576W        W27193  12.461   2.309  17.192 -0.0195 -0.0087 -0.0577
11577W        W27194   7.499  10.128   1.501  0.0755 -0.0244  0.0026
11578W        W27195   1.443   3.307   1.354  0.3085 -0.1359  0.1919
11579W        W27196   4.572  10.814   5.120  0.0446 -0.1411 -0.0082
11580W        W27197   8.322   7.808   4.364  0.0974  0.5281  0.0592
11581W        W27198   7.992   6.008   3.672 -0.2105 -0.0812  0.1101
11582W        W27199   8.986   5.302   1.056 -0.0620  0.1473  0.0626
11583W        W27200   6.122  11.623   5.679  0.2342  0.0317  0.0576
11584W        W27201   7.062  17.584   4.128  0.1028 -0.0194 -0.4597
11585W        W27202  11.982  13.575  12.229 -0.0867 -0.0076  0.0816
11586W        W27203   0.803   7.707  15.207  0.0171 -0.2411  0.2426
11587W        W27204   3.303   5.737   0.503  0.1545 -0.1468  0.1576
11588W        W27205   7.275  15.842  16.112 -0.0590  0.0132  0.2522
11589W        W27206   4.507  17.544  12.286  0.1167  0.0126  0.3430
11590W        W27207   2.121  14.192   4.861  0.4259  0.0936 -0.0241
11591W        W27208   6.512  14.814  15.179  0.0233  0.1563  0.0197
11592W        W27209   3.487  10.975   5.892  0.2500 -0.1160 -0.0224
11593W        W27210  11.838   3.777  15.884  0.0150 -0.1562  0.0382
11594W        W27211  14.071  17.554   4.650  0.1753 -0.1157 -0.0594
11595W        W27212   9.160   7.780   2.197 -0.3158  0.0246 -0.1011
11596W        W27213  13.094   9.904   0.779  0.2965 -0.0314  0.0279
11597W        W27214  16.460  14.683  14.888 -0.3532  0.0120  0.3864
11598W        W27215  14.649   4.578   2.857 -0.1415  0.2130  0.0108
11599W        W27216   2.555   1.826  12.064  0.0743  0.0578  0.1938
11600W        W27217   9.673  13.448  13.601 -0.3398 -0.1124 -0.4499
11601W        W27218  13.095  13.635  13.130 -0.2306  0.0939 -0.1600
11602W        W27219  13.231   8.736   3.161 -0.0508 -0.1988 -0.2294
11603W        W27220  11.067   2.422   3.902  0.1051 -0.0181 -0.0549
11604W        W27221  12.214  12.447  14.324 -0.2136 -0.0037 -0.0630
11605W        W27222  14.316   9.817   4.843  0.1161  0.1417 -0.4238
11606W        W27223  16.056  11.843  14.295  0.2538 -0.0272  0.0751
11607W        W27224   5.138  12.315   0.879 -0.2438 -0.0512  0.0798
11608W        W27225  10.165   7.343   0.115  0.1114 -0.1290  0.1738
11609W        W27226   1.530  17.002  14.416 -0.0499 -0.1364 -0.2465
11610W        W27227  14.641   8.034   3.043  0.1339  0.0809  0.1846
11611W        W27228  11.376  12.289   3.138 -0.4445 -0.1537 -0.0263
11612W        W27229   8.800   7.138  13.164 -0.0658  0.0282 -0.0962
11613W        W27230   4.706   0.914  16.301 -0.2779 -0.1253 -0.1332
11614W        W27231   4.649   6.539   4.221  0.0705 -0.0023 -0.5137
11615W        W27232  13.388   0.855  16.373 -0.0215  0.2413 -0.0372
11616W        W27233   8.651   3.078  15.346  0.2619  0.1165 -0.1297
11617W        W27234  15.684   7.396   0.806 -0.1222  0.1095  0.1724
11618W        W27235   6.944   4.444  12.463 -0.0693  0.0795  0.0653
11619W        W27236  11.298  14.757   5.217 -0.0038 -0.0491  0.0462
11620W        W27237  15.778   4.412  16.951  0.1480 -0.1482 -0.1340
11621W        W27238   2.538   2.819  17.131  0.0843  0.4375 -0.2591
11622W        W27239   5.209   4.519   0.023 -0.1084  0.2959 -0.1698
11623W        W27240   6.252  11.115  16.585 -0.0563  0.0954 -0.0756
11624W        W27241  16.901   5.767   4.435 -0.2581  0.1292 -0.1092
11625W        W27242   8.445   5.490  11.930  0.1087 -0.3086 -0.1142
11626W        W27243   3.204   2.744   3.974  0.0247 -0.1615 -0.0197
11627W        W27244   2.960   2.460   2.741  0.2997  0.0219 -0.0001
11628W        W27245   1.833   7.013   1.151 -0.0616 -0.0338  0.0527
11629W        W27246  12.035   8.141  17.119 -0.2911 -0.1317 -0.2520
11630W        W27247  17.230  10.598   3.365 -0.0425  0.1172  0.0507
11631W        W27248   8.338  13.374   6.010 -0.2289  0.2769 -0.1350
11632W        W27249   2.598   6.892  11.826 -0.0152  0.0136  0.0313
11633W        W27250  10.053   5.568   4.661  0.0034  0.0657 -0.0411
11634W        W27251   7.459  14.978   4.744 -0.1217 -0.2373 -0.0844
11635W        W27252  14.108  15.649  14.057 -0.1426 -0.1305  0.1206
11636W        W27253  15.669  15.455   5.004 -0.1478 -0.0047  0.0280
11637W        W27254   1.405   8.576   4.190  0.0381  0.3833  0.3374
11638W        W27255   1.120  15.657   5.111  0.0566 -0.3886  0.1263
11639W        W27256  14.901   6.552  16.891  0.3633 -0.0111 -0.0628
11640W        W27257  15.106  11.983  15.253  0.1836 -0.1209  0.0455
11641W        W27258   0.709  10.624  16.371  0.2281  0.0640 -0.2254
11642W        W27259  13.793   2.348  11.615  0.1052 -0.1258 -0.0902
11643W        W27260  11.492   9.384   0.278  0.2575  0.1312 -0.3317
11644W        W27261   3.902   4.955  13.863 -0.0186 -0.0985  0.0516
11645W        W27262   9.009   0.463   2.613 -0.0548  0.0630 -0.2670
11646W        W27263   6.553  14.243   2.649  0.0399 -0.0259  0.0669
11647W        W27264   8.558   4.914  11.665  0.2309  0.1026 -0.0016
11648W        W27265   7.100  14.866  16.441 -0.2080 -0.1139  0.1918
11649W        W27266  15.403   2.307  12.010  0.0127  0.2730 -0.0845
11650W        W27267  15.977   2.901  15.379 -0.3055  0.2207 -0.0630
11651W        W27268  12.924   8.859   0.791  0.1388 -0.3189  0.0716
11652W        W27269   6.399   4.561  14.793  0.0855  0.2303 -0.2100
11653W        W27270   2.030  15.821  15.763  0.0689 -0.0319  0.0697
11654W        W27271   1.775   5.060   5.338 -0.1988  0.2226  0.0630
11655W        W27272   1.078   8.451   5.355  0.0181 -0.1057  0.1288
11656W        W27273   3.945  11.526  14.849 -0.1068 -0.0921  0.1684
11657W        W27274  14.190   3.573   1.794  0.1324  0.2136  0.2577
11658W        W27275   5.406  15.252  12.425 -0.2672 -0.4820 -0.1354
11659W        W27276  16.833  15.935  11.708  0.1832  0.2988 -0.0633
11660W        W27277  11.918  13.212  14.787  0.2737 -0.0789  0.1198
11661W        W27278   3.263  12.045   6.009 -0.1559 -0.0234 -0.1367
11662W        W27279  14.424   2.193  15.015  0.1202 -0.0251  0.0913
11663W        W27280  15.628   0.813  15.167 -0.1034  0.0997  0.0986
11664W        W27281  12.148   0.795  12.363 -0.1220  0.0151 -0.2685
11665W        W27282   7.705   7.328   5.224 -0.2104  0.3458  0.2772
11666W        W27283  16.679   6.725  15.585 -0.2256  0.1412 -0.1191
11667W        W27284   3.218  17.486  13.443 -0.6028  0.1659  0.0994
11668W        W27285  12.198   5.372   0.811 -0.0067 -0.4372  0.0721
11669W        W27286   5.269   5.551  14.551 -0.2829 -0.0862  0.3977
11670W        W27287   4.650   7.312  15.776  0.0350  0.2360 -0.4846
11671W        W27288  12.856   4.205  16.450 -0.1070  0.1031  0.0539
11672W        W27289  16.080  16.990  14.454 -0.0078 -0.3161 -0.0451
11673W        W27290   2.101   2.922  15.844  0.1638  0.0577  0.1476
11674W        W27291   7.013  10.386  15.418  0.0640  0.1482  0.0311
11675W        W27292  17.298   1.440   5.768 -0.0199 -0.4010  0.2503
11676W        W27293  15.454   7.442   6.816 -0.0644 -0.2758  0.0138
11677W        W27294  12.734   3.516   0.069  0.5539 -0.2307 -0.0892
11678W        W27295  13.759  10.676   5.277  0.1314  0.0109 -0.2099
11679W        W27296  13.008   8.827  15.630 -0.1251  0.0321  0.1115
11680W        W27297   7.817   2.207  13.324  0.0985 -0.0078 -0.4564
11681W        W27298  11.391   8.388  15.465  0.0377  0.1805  0.2732
11682W        W27299   6.450  14.046   1.004 -0.0055 -0.0147  0.2629
11683W        W27300   8.238   6.985   3.079  0.3249  0.2589  0.2196
11684W        W27301   9.960  13.886   5.923 -0.0895  0.0180 -0.2157
11685W        W27302  11.329   6.253  13.367 -0.0486 -0.0883  0.2455
11686W        W27303   2.558  17.251  11.289  0.1238 -0.2008 -0.3695
11687W        W27304   0.303   2.381   3.117  0.2769  0.1064  0.0499
11688W        W27305   0.486   4.344  13.532  0.3124  0.1185 -0.0751
11689W        W27306   4.990   9.087  12.013 -0.4685 -0.1408 -0.2340
11690W        W27307   5.439  13.312  13.626 -0.1456 -0.2417  0.2084
11691W        W27308  12.876   9.903  15.705 -0.0510  0.0145 -0.2415
11692W        W27309   6.637   1.907  16.088  0.0728  0.2714  0.0213
11693W        W27310  10.210   0.117  15.045  0.2206  0.0200 -0.0842
11694W        W27311  10.357   3.558   0.756 -0.0080  0.1471 -0.1317
11695W        W27312  13.970  13.373   1.338  0.1384  0.0028 -0.0673
11696W        W27313  11.829   6.374  13.440  0.1045 -0.3913 -0.1261
11697W        W27314  13.752  10.288   3.201  0.1099 -0.2463 -0.1344
11698W        W27315   3.253  10.313   5.131  0.0594  0.2573  0.2211
11699W        W27316  12.134  11.920  17.152 -0.1515  0.0213 -0.1483
11700W        W27317  14.143  15.893   2.567 -0.0756 -0.1984 -0.0744
11701W        W27318   0.685   3.673  14.717  0.3335 -0.4054  0.2244
11702W        W27319  16.743   8.061  12.792  0.2340 -0.2864  0.1393
11703W        W27320   5.028  12.011  12.280  0.1126 -0.0025  0.1059
11704W        W27321  15.978   6.822   4.768 -0.1718 -0.0482 -0.2417
11705W        W27322   5.020   3.849   5.460  0.1312  0.2189  0.1081
11706W        W27323   9.304   6.999  14.518  0.0255 -0.3482 -0.3431
11707W        W27324   2.140  17.283   2.169 -0.1659  0.3717 -0.0930
11708W        W27325   9.984  11.187   2.767  0.0237  0.0778 -0.1198
11709W        W27326  15.256   3.686   4.806 -0.0657 -0.2235 -0.1573
11710W        W27327  17.586  16.154   0.698  0.3260  0.0865 -0.0607
11711W        W27328   5.782  14.339  13.077  0.1101  0.0580  0.1363
11712W        W27329   9.715  14.229   1.902  0.0807  0.1231 -0.1850
11713W        W27330   2.177  10.766  12.369  0.1385 -0.0986  0.0854
11714W        W27331   2.350   1.294   0.001 -0.2854 -0.1827  0.0361
11715W        W27332   7.414   9.586  17.110 -0.1041  0.2063  0.0732
11716W        W27333  15.700   6.745  16.683  0.1500  0.1118  0.1153
11717W        W27334   1.997  10.160  13.498  0.3992 -0.0184  0.0377
11718W        W27335  12.364   8.153   0.729  0.1730 -0.3236 -0.2317
11719W        W27336  14.939   5.344   1.771  0.1530  0.2541  0.0702
11720W        W27337  14.479  10.794  13.204  0.0433  0.0863 -0.0547
11721W        W27338   0.524  14.131   3.519 -0.1908 -0.0066  0.1865
11722W        W27339   3.399  16.512  13.594 -0.3761 -0.0398  0.0726
11723W        W27340   9.435   7.592  15.074  0.1382  0.1581  0.0996
11724W        W27341  17.476   4.844   0.906 -0.1457 -0.3927  0.0928
11725W        W27342  13.630   9.089   2.228  0.0281 -0.1215  0.2255
11726W        W27343  15.589  14.215   4.753 -0.0811 -0.2139 -0.2760
11727W        W27344   3.792  10.090   2.687  0.3106 -0.3144  0.0891
11728W        W27345  16.333  13.885   4.026  0.0598 -0.1241 -0.0011
11729W        W27346  13.862  13.216  10.622 -0.1894 -0.1467  0.1943
11730W        W27347   2.469  15.173  15.274 -0.2853  0.0412 -0.1445
11731W        W27348  14.721   6.818   5.257 -0.1405 -0.1644 -0.3928
11732W        W27349   8.557  11.666  15.082  0.2322  0.0620  0.0371
11733W        W27350   8.440   0.574  12.192  0.4792  0.0882  0.0668
11734W        W27351   9.596   5.857  14.267  0.1096 -0.1640  0.2087
11735W        W27352   4.292   0.719   5.100 -0.2631  0.0456 -0.4617
11736W        W27353   4.797   7.709   0.684  0.0075 -0.2282  0.1524
11737W        W27354   6.868  12.788   5.391 -0.2242  0.1582 -0.2208
11738W        W27355   3.101  15.328   0.896  0.2959 -0.1038  0.3596
11739W        W27356  13.326  13.394   4.507 -0.0637 -0.0617 -0.0922
11740W        W27357  14.635   5.603   7.114 -0.1514  0.2238 -0.5118
11741W        W27358  15.357  15.404  14.311 -0.6143  0.0651 -0.0564
11742W        W27359   4.140   9.245   5.625 -0.2641  0.0246  0.2894
11743W        W27360   3.500   7.496   2.221  0.0482  0.1261  0.0984
11744W        W27361   8.982  17.267   2.911  0.1930 -0.1136 -0.0477
11745W        W27362   0.384   5.694  13.167  0.0792  0.1200  0.0382
11746W        W27363  11.082   8.868   5.158  0.1053  0.1689 -0.1291
11747W        W27364  15.177  16.935  12.923  0.1328  0.2426 -0.0958
11748W        W27365  13.570   2.279   3.093 -0.0013  0.2394  0.4132
11749W        W27366   4.000   0.197  15.685 -0.1032  0.2100  0.3506
11750W        W27367   9.273   0.768  13.994 -0.4647 -0.0224  0.3083
11751W        W27368   5.857  10.906  15.563  0.1659 -0.1872 -0.1139
11752W        W27369   9.129   2.045   0.180 -0.0573 -0.3025 -0.0714
11753W        W27370   4.586  10.527  16.137 -0.0767  0.2979 -0.0652
11754W        W27371  16.471  10.249   4.710  0.0366 -0.0713  0.3218
11755W        W27372   9.453  11.191  16.908  0.0060  0.0167  0.0729
11756W        W27373  15.202  12.198   5.107 -0.0685  0.1166  0.1161
11757W        W27374  10.587   5.722  16.482 -0.1376 -0.3326  0.0679
11758W        W27375   2.294   8.595   2.431  0.2414  0.1179 -0.1496
11759W        W27376   6.282  16.739  16.641 -0.0081 -0.2314  0.2285
11760W        W27377  10.130   5.523  15.597 -0.0383  0.0263 -0.2401
11761W        W27378  15.873  10.882   0.017  0.1279  0.2566 -0.1731
11762W        W27379   9.663   8.505  17.144  0.6645  0.2327 -0.1003
11763W        W27380  15.351   9.767   4.141 -0.0719  0.3064 -0.2523
11764W        W27381   5.954   6.903   5.273 -0.2197 -0.0062 -0.1610
11765W        W27382  14.123   2.723  16.109  0.1996  0.0993 -0.2664
11766W        W27383  15.938  12.064   0.567  0.1351  0.0710  0.1777
11767W        W27384   3.460   3.021  15.684 -0.0683  0.0174  0.0668
11768W        W27385  12.853  10.394  17.243  0.1608 -0.1738 -0.2161
11769W        W27386   1.776   3.597  16.201 -0.0670  0.0597  0.2636
11770W        W27387   2.022  13.875   5.548 -0.0819  0.1631 -0.0669
11771W        W27388  16.274   8.052   4.100 -0.1625  0.0776 -0.0445
11772W        W27389   1.422   7.845   1.651 -0.1274  0.0440  0.2037
11773W        W27390   7.281   4.515  14.521  0.0420  0.0338 -0.0449
11774W        W27391   4.477   7.760   5.445 -0.1952  0.0606 -0.0488
11775W        W27392   3.237  11.871   1.783 -0.1494  0.0884 -0.0598
11776W        W27393  15.991  13.131   5.190 -0.2978 -0.0799  0.1725
11777W        W27394  15.874   8.342   0.794 -0.0724  0.1028  0.1015
11778W        W27395  10.294  17.483  15.530 -0.1274 -0.1350  0.1303
11779W        W27396  12.751  17.226   1.551 -0.0376 -0.3297  0.0759
11780W        W27397  10.993  16.071   2.948 -0.0973  0.1787  0.2403
11781W        W27398   6.228  14.799  12.345 -0.3960  0.1937  0.0770
11782W        W27399   9.435  15.193   3.343 -0.0848 -0.1768 -0.1747
11783W        W27400   2.422   3.754  14.774 -0.0983  0.1594 -0.2791
11784W        W27401  11.620   6.046   1.531 -0.3224 -0.0022  0.0699
11785W        W27402  14.074  14.082   2.792 -0.1342 -0.0051 -0.0113
11786W        W27403  15.867   2.191   1.112  0.0110 -0.1487  0.1260
11787W        W27404  17.068  16.973  15.738 -0.2012 -0.0423 -0.0037
11788W        W27405   0.936   3.855  11.919  0.2770  0.2974  0.1590
11789W        W27406  10.023  10.337   5.287 -0.0256 -0.2891  0.0607
11790W        W27407  11.402  11.246  11.465 -0.0148 -0.0404 -0.3093
11791W        W27408   6.984   4.552   4.396 -0.0419  0.1341 -0.0416
11792W        W27409  10.157   8.568  12.138 -0.0195  0.1604 -0.0771
11793W        W27410   3.064   2.486   0.543 -0.1724  0.2711 -0.0985
11794W        W27411  10.790   4.022   1.483  0.1505  0.3345  0.1270
11795W        W27412   2.994   7.049  15.106 -0.2715  0.1593  0.0462
11796W        W27413   7.127   0.434  12.495  0.1612  0.1803  0.1636
11797W        W27414  11.661  16.800  12.222  0.2310 -0.0860  0.0223
11798W        W27415   3.746   4.760   3.101  0.1462 -0.0779 -0.2570
11799W        W27416  11.669   6.780   0.483  0.0110  0.3332 -0.1885
11800W        W27417   0.196  17.446   6.336  0.1934  0.0691 -0.0865
11801W        W27418  12.124   9.535  13.080  0.2934  0.1879  0.1247
11802W        W27419   5.494   1.015   4.453 -0.0328 -0.3432  0.0756
11803W        W27420  12.491   4.119   2.101 -0.0242  0.4150 -0.0943
11804W        W27421  10.515   9.884   3.102  0.0580 -0.0114  0.1532
11805W        W27422   2.229  14.790   5.971 -0.1885 -0.2446 -0.1838
11806W        W27423  14.319   3.378   0.780 -0.2014  0.3116 -0.1846
11807W        W27424  13.813  15.410  15.185  0.0774  0.0956  0.3237
11808W        W27425   7.406  16.781   3.275 -0.0260 -0.2488  0.0149
11809W        W27426   4.221  14.254  14.674 -0.0742  0.0725  0.2167
11810W        W27427   3.508   1.021   6.241  0.0073  0.2238 -0.1960
11811W        W27428  12.927   0.923  16.078  0.0701  0.1456  0.0801
11812W        W27429   8.745   1.316   0.172  0.2483  0.0588 -0.0947
11813W        W27430  14.179   8.440   5.901  0.0054 -0.0272  0.0412
11814W        W27431  16.318   7.648   5.334 -0.3098 -0.1797  0.2044
11815W        W27432   9.034   6.060  14.504 -0.0366  0.1597 -0.0582
11816W        W27433   5.535  16.544   2.998 -0.2644  0.1228  0.0941
11817W        W27434   6.329   8.639  12.604 -0.0911 -0.3056  0.1340
11818W        W27435   2.518   6.798  13.916  0.0119  0.0149 -0.2037
11819W        W27436  13.302   1.847  16.502  0.2583 -0.0308 -0.2427
11820W        W27437   3.379   6.611  15.857  0.5381  0.0213  0.0648
11821W        W27438   2.295   6.226  17.231  0.0608  0.2031  0.0851
11822W        W27439  17.296   4.050  15.924  0.0320 -0.0006  0.1733
11823W        W27440   5.770   3.069   2.448  0.2385  0.1669  0.0889
11824W        W27441   2.220  15.167  12.136 -0.0059 -0.0048  0.2078
11825W        W27442  14.185   9.743   2.162 -0.2022  0.0072 -0.3315
11826W        W27443   9.737  14.122   5.155 -0.1321  0.1688 -0.2453
11827W        W27444  13.528   0.972   5.690  0.2123  0.1622  0.2620
11828W        W27445   4.215   3.465   4.742 -0.0378 -0.2432 -0.1044
11829W        W27446  10.261  15.269  11.170 -0.1515 -0.1282  0.0559
11830W        W27447  15.737   3.509   2.865 -0.0207  0.3137  0.0926
11831W        W27448  12.094  13.180   4.931  0.0296 -0.1848  0.0937
11832W        W27449   5.989   6.355   1.672 -0.2587 -0.1925  0.0895
11833W        W27450   0.029   7.549  14.462  0.0374  0.1295 -0.0452
11834W        W27451   9.870  11.327   1.569  0.0793  0.2053  0.0803
11835W        W27452  11.681   3.093   1.746  0.1019  0.0203  0.1681
11836W        W27453  13.327   3.905  14.876 -0.0149 -0.0849  0.0237
11837W        W27454   5.305   6.013  14.740 -0.2638 -0.1776  0.0799
11838W        W27455  15.357   6.000  14.004  0.2843 -0.0038 -0.0091
11839W        W27456  15.835  14.804   2.512  0.2211  0.1167 -0.3364
11840W        W27457   1.427   5.974   3.044  0.1277 -0.1303  0.1709
11841W        W27458   0.210  15.399   1.567 -0.1207  0.5453 -0.3099
11842W        W27459   8.830   0.933  13.677 -0.0813  0.1170 -0.2443
11843W        W27460  16.281  13.323   0.187  0.0524 -0.1609 -0.0249
11844W        W27461   3.936  11.380  12.404 -0.0092 -0.0957  0.1508
11845W        W27462   8.224   2.403   0.770  0.1719  0.1554 -0.1254
11846W        W27463   2.540  12.476  12.313  0.3228 -0.0214  0.1338
11847W        W27464   8.164  11.609   5.257 -0.3635 -0.0522  0.0226
11848W        W27465   3.261   5.288   0.222  0.3068  0.0448 -0.0589
11849W        W27466  14.577  17.323   4.853  0.3155 -0.0739 -0.2003
11850W        W27467   1.583  13.407  11.895  0.3616  0.2074 -0.0403
11851W        W27468  11.309  14.952  12.499 -0.0807  0.1721 -0.0482
11852W        W27469  15.430  11.223  14.692  0.2560 -0.1721 -0.1692
11853W        W27470  11.266  15.136   3.571 -0.2963  0.2665  0.0051
11854W        W27471  11.452  13.006  15.539  0.2881 -0.2348 -0.4626
11855W        W27472   6.280  10.389   0.743 -0.0844 -0.3625 -0.0729
11856W        W27473   3.016   2.542  14.957 -0.0006 -0.0258 -0.0655
11857W        W27474  12.901   6.090  12.675  0.2827  0.2906  0.1145
11858W        W27475   5.352   8.247   0.774  0.0139  0.2152 -0.1703
11859W        W27476   7.984   1.782   1.462  0.0855 -0.1454 -0.2321
11860W        W27477  11.132   7.041  13.214 -0.0239  0.0243 -0.1552
11861W        W27478  17.404  13.583   0.886 -0.0689  0.1242 -0.0106
11862W        W27479  14.367   2.147  13.419  0.0086 -0.1183 -0.1149
11863W        W27480  16.055   6.955   1.155 -0.2116 -0.0398 -0.0621
11864W        W27481   9.445   2.841  13.051 -0.0993  0.1833 -0.2952
11865W        W27482  15.454   8.888  14.943  0.4832  0.0174 -0.1123
11866W        W27483   8.225  11.706  16.761  0.2803 -0.1738  0.0348
11867W        W27484  10.667   8.679  12.111 -0.3096 -0.1723 -0.0989
11868W        W27485   9.107  12.205   0.144 -0.0303  0.2303  0.0783
11869W        W27486   9.791  17.566  15.312  0.3383  0.1859  0.1518
11870W        W27487   2.805  15.326   2.900 -0.1544 -0.3612 -0.4189
11871W        W27488   9.610   2.955  12.589  0.3191 -0.0042 -0.1473
11872W        W27489   1.520  12.348   4.367 -0.2021  0.0882 -0.0730
11873W        W27490   7.308  10.997  12.166 -0.2272 -0.0299 -0.1749
11874W        W27491   1.722  16.703  15.250  0.0894  0.1737  0.0179
11875W        W27492  13.726   2.018  14.676 -0.1659  0.1904 -0.2474
11876W        W27493   9.661   3.434  16.931  0.1232 -0.0159 -0.0721
11877W        W27494  15.596  16.732   5.078 -0.1263  0.0620 -0.2103
11878W        W27495   9.703  12.220   3.292  0.0252 -0.0616  0.2423
11879W        W27496   5.593   2.107   5.224 -0.0097  0.0858 -0.0553
11880W        W27497  17.257  11.595  16.230  0.0708 -0.0602 -0.2575
11881W        W27498   2.853  10.842  16.432 -0.2214  0.1835  0.0541
11882W        W27499   7.000  15.674   4.225  0.0037 -0.0768 -0.2302
11883W        W27500   1.128   4.918   5.159  0.1104 -0.0932  0.0220
11884W        W27501  17.590   1.770   2.500 -0.0464  0.1562  0.1588
11885W        W27502  14.020   1.847  13.232  0.1740  0.3149 -0.1409
11886W        W27503   3.531  13.463  15.834 -0.2118  0.0409 -0.0325
11887W        W27504  10.323  14.110   0.073  0.0227 -0.0577  0.1284
11888W        W27505  16.249  13.642   3.195  0.0012  0.0334 -0.0871
11889W        W27506  13.381   4.596  14.685  0.2004 -0.2398  0.1451
11890W        W27507   0.919  14.855   0.326 -0.0662 -0.1789  0.1103
11891W        W27508  14.765  15.568  12.634 -0.3081 -0.0481  0.1781
11892W        W27509  14.963  12.927   3.762  0.0436 -0.0405  0.1274
11893W        W27510   7.154  11.291   0.601 -0.2029  0.0009 -0.1321
11894W        W27511   5.573  13.384  16.989  0.1176 -0.2848 -0.0687
11895W        W27512  13.506   9.710  12.193 -0.1624 -0.1424  0.0826
11896W        W27513   3.911  15.910  15.993 -0.1250 -0.0944  0.0279
11897W        W27514   8.705   7.897   5.418  0.0938 -0.0235 -0.0867
11898W        W27515  13.755   8.958   5.955 -0.1518 -0.1698  0.2640
11899W        W27516   8.516   7.671  15.981 -0.0684  0.0297  0.1700
11900W        W27517   7.116   2.038  14.695  0.1185 -0.1747  0.1802
11901W        W27518  12.671  11.058  14.071 -0.1492  0.1679 -0.2339
11902W        W27519   0.595   6.886  15.810  0.1646 -0.1665 -0.0823
11903W        W27520  14.504  11.881   4.680 -0.0379 -0.1228 -0.1014
11904W        W27521   1.738   3.620   4.692 -0.1202 -0.2099 -0.4267
11905W        W27522   5.301  12.794   2.012 -0.2379 -0.0308 -0.0905
11906W        W27523   2.842   7.342  16.876  0.0025 -0.0146  0.2256
11907W        W27524   4.410   4.229   4.405 -0.3283 -0.5021  0.2577
11908W        W27525   4.971  10.809  16.047 -0.0925 -0.0450 -0.0037
11909W        W27526  10.743  13.454  11.729 -0.1025 -0.2673  0.2372
11910W        W27527  13.184   4.824   4.335  0.1055  0.1748 -0.1725
11911W        W27528   8.304  15.526  10.944 -0.2337 -0.1414 -0.2090
11912W        W27529   9.433  11.618   3.851 -0.0213 -0.1822 -0.1282
11913W        W27530  17.500   2.500   5.530 -0.0895  0.0302  0.0028
11914W        W27531   5.292  12.898  16.168  0.1992  0.0018 -0.2166
11915W        W27532   5.016  15.510  12.214 -0.3235 -0.4878  0.0805
11916W        W27533   6.991  17.582   0.124  0.0651 -0.1130  0.0575
11917W        W27534  12.792  15.764   1.135 -0.2046 -0.1428 -0.3759
11918W        W27535   0.345   6.494   2.029  0.2697 -0.2345 -0.0967
11919W        W27536  12.817  15.948  15.236 -0.0665  0.0055 -0.0142
11920W        W27537  17.527   4.064   4.571 -0.3687  0.0463 -0.0660
11921W        W27538  17.073  11.913   0.933 -0.3978  0.0993 -0.0365
11922W        W27539   7.941   4.409  12.556  0.2544 -0.1058  0.5066
11923W        W27540   8.605   0.141  13.248  0.3813 -0.1343  0.2140
11924W        W27541   1.259   6.976   6.202 -0.1112 -0.2245  0.1819
11925W        W27542   8.704  14.094   5.398 -0.0493 -0.2265  0.0072
11926W        W27543   3.070   3.815  11.124  0.1034  0.2479 -0.0919
11927W        W27544  14.518   4.632   0.024  0.1075  0.1682 -0.0782
11928W        W27545  13.626   6.445  16.087  0.0327 -0.0303 -0.1483
11929W        W27546  13.134   9.152   3.767  0.3777  0.0990  0.4549
11930W        W27547  15.199  14.531   3.776  0.2190 -0.1985  0.0303
11931W        W27548   5.632  11.907   5.658 -0.1398  0.0127 -0.2338
11932W        W27549   2.903   4.348   6.782 -0.1961 -0.0671 -0.0080
11933W        W27550   6.660   4.604   5.540 -0.3024 -0.0421 -0.0498
11934W        W27551   5.552  10.534   5.905 -0.0723  0.2483 -0.1675
11935W        W27552   5.587  13.548  11.840  0.2326  0.0706  0.1596
11936W        W27553  11.733   5.888  13.553 -0.0477  0.0991  0.1088
11937W        W27554   9.709   2.385   3.156  0.1301 -0.0198 -0.0825
11938W        W27555  17.092  13.138   2.141 -0.0866 -0.3424  0.1779
11939W        W27556  14.700  12.676   0.121  0.0705  0.2051 -0.2633
11940W        W27557   8.935  12.682  15.825  0.0004  0.0419 -0.1073
11941W        W27558  10.684   2.754  14.405 -0.1353  0.1022 -0.4501
11942W        W27559  11.154   4.274  16.139  0.2932 -0.1156  0.1050
11943W        W27560   1.448   2.754   1.577 -0.1461 -0.1813 -0.1594
11944W        W27561  15.847  10.040   1.157  0.1679 -0.0990  0.1100
11945W        W27562  11.573   9.506   1.880  0.0152  0.0537 -0.0310
11946W        W27563   4.613  16.709   4.351 -0.1447  0.0903  0.0975
11947W        W27564  10.668   4.556   4.684 -0.3607 -0.1343 -0.0550
11948W        W27565  16.335   7.979  13.215  0.1154 -0.0048  0.3780
11949W        W27566   5.925  10.051  13.139  0.3225 -0.1724 -0.0904
11950W        W27567   9.153   7.228   1.268 -0.1632  0.0423 -0.0246
11951W        W27568  10.048  14.535  13.459 -0.0496  0.1557  0.1145
11952W        W27569  11.790   8.042  14.324  0.1379  0.2753  0.0114
11953W        W27570  10.624   9.794  17.187 -0.1853 -0.2587  0.3283
11954W        W27571   2.881  15.999   1.448 -0.1365 -0.1052  0.1254
11955W        W27572  11.526  15.601   2.243 -0.0229 -0.3581  0.0976
11956W        W27573   3.906  16.246  14.053 -0.1085 -0.0552 -0.0072
11957W        W27574  13.874   9.423  11.033  0.0804 -0.0858  0.3631
11958W        W27575   5.131   7.436  14.282  0.1389  0.1643  0.1641
11959W        W27576   1.612   8.626  15.398 -0.1106 -0.1073  0.1922
11960W        W27577  10.148   0.930  11.182 -0.0560  0.0711  0.2490
11961W        W27578   3.556  12.966  12.823  0.3616  0.2325  0.1161
11962W        W27579   5.378   9.512   3.769  0.0029 -0.1030 -0.3189
11963W        W27580   6.623   8.838   2.137 -0.2354 -0.0981  0.0106
11964W        W27581   4.583  15.686  13.626  0.0921 -0.0939 -0.1551
11965W        W27582  11.706   1.020   2.047 -0.0388 -0.0104  0.1031
11966W        W27583  14.964   5.849  12.540 -0.0461  0.2128  0.3047
11967W        W27584  15.514   8.161  13.084  0.1931 -0.1156  0.0618
11968W        W27585  16.130   8.214   0.376  0.0352 -0.1370  0.0275
11969W        W27586   2.876  16.421  14.450 -0.0705 -0.4267  0.3284
11970W        W27587   6.350  15.894  15.585 -0.4858  0.0299 -0.1671
11971W        W27588   0.277   9.104  16.976  0.0227  0.0424 -0.2436
11972W        W27589  12.437   7.072   5.556  0.1410 -0.1959 -0.0764
11973W        W27590  15.602  17.107   3.829 -0.0772 -0.0687 -0.0761
11974W        W27591  15.835  14.693  16.571 -0.0698 -0.0953  0.0448
11975W        W27592  14.276  16.388  14.340 -0.0017 -0.2145 -0.0179
11976W        W27593  16.841   0.749  15.144  0.2862  0.1321 -0.0832
11977W        W27594  11.008   0.651   1.823  0.0876 -0.3936 -0.2280
11978W        W27595   4.190  15.723  16.443  0.0510 -0.0767  0.2558
11979W        W27596  15.139   5.555   5.884 -0.1125 -0.2035 -0.0426
11980W        W27597  13.187   7.115   2.576  0.0839 -0.1508  0.0219
11981W        W27598   3.006  15.052   0.443 -0.1505  0.0195 -0.0581
11982W        W27599   9.911   7.036   3.596  0.0645  0.1138 -0.0949
11983W        W27600   4.082   6.169  15.289 -0.0670 -0.1389 -0.1891
11984W        W27601   4.662   0.311   4.351  0.2705 -0.0489 -0.1157
11985W        W27602  11.362   2.611   2.982  0.0222  0.2927  0.0105
11986W        W27603   5.260  16.856  16.837 -0.1092  0.0697  0.1322
11987W        W27604   9.119   1.249  11.153 -0.2499  0.0384 -0.3667
11988W        W27605  13.859   9.795  16.197  0.4584  0.0766  0.0759
11989W        W27606   2.471   4.812   4.826 -0.0457 -0.1301  0.0355
11990W        W27607   4.860  15.085  15.874  0.0737 -0.3143  0.2006
11991W        W27608   5.381   1.128   2.368 -0.1531 -0.0493  0.3084
11992W        W27609  16.907   1.360  12.378 -0.4125  0.0674 -0.1374
11993W        W27610  17.369  11.984   4.446 -0.2202  0.0929 -0.0032
11994W        W27611  14.826   9.211   5.928 -0.2813  0.4171  0.0310
11995W        W27612   0.060   1.915   3.016 -0.0267 -0.2554 -0.1388
11996W        W27613  17.603   4.020   5.632  0.1150  0.0825 -0.0522
11997W        W27614   7.222  13.235   3.585 -0.1284  0.1152  0.2078
11998W        W27615   7.852   1.525  17.228  0.1893  0.0791 -0.2915
11999W        W27616  17.615  17.606  11.672 -0.2826 -0.1589  0.0838
12000W        W27617   8.279   0.125   0.153 -0.1036 -0.2409 -0.0138
12001W        W27618  12.921  16.063  15.799 -0.0190  0.1172  0.0534
12002W        W27619   1.050  13.312   5.408  0.0784  0.0371  0.3140
12003W        W27620   4.067   9.503  17.169  0.0506 -0.1384 -0.4421
12004W        W27621  15.262   1.319   0.008  0.1838  0.1904 -0.1048
12005W        W27622  13.125   8.988   5.363 -0.0079  0.0660  0.1828
12006W        W27623   4.653  10.753   2.100 -0.2354  0.1680  0.0300
12007W        W27624   8.657  14.169  14.806  0.2844 -0.1292  0.0061
12008W        W27625   4.544  14.192  12.552  0.3662  0.2626 -0.0972
12009W        W27626   5.493  10.869   2.639 -0.1701 -0.1412 -0.3013
12010W        W27627  10.469   2.405  17.174 -0.1638 -0.0801  0.1434
12011W        W27628   3.492   6.843  12.161 -0.0270 -0.0338  0.0465
12012W        W27629  12.677   0.878   5.724 -0.0571 -0.0230  0.0970
12013W        W27630   1.265  13.389  13.936 -0.2937 -0.0639  0.1602
12014W        W27631   8.804  13.213  12.405 -0.1669 -0.0190 -0.1176
12015W        W27632  11.923  16.126  17.290 -0.1365 -0.0265 -0.3928
12016W        W27633  13.381  13.872   5.776  0.2073  0.1189 -0.3954
12017W        W27634   4.398  15.053   2.995  0.1156  0.2231  0.0375
12018W        W27635  16.148   7.427   6.149  0.2308 -0.0651  0.0860
12019W        W27636   6.511  13.383   2.413 -0.1481  0.0443  0.1359
12020W        W27637   1.537   4.281   1.611 -0.1530 -0.2328  0.2060
12021W        W27638   9.895  14.197  17.012  0.0517  0.3113 -0.2435
12022W        W27639  12.967   0.979   2.836 -0.0378 -0.1997 -0.0977
12023W        W27640  12.614   5.007   4.445 -0.3019 -0.1268  0.0485
12024W        W27641   2.314   9.615  12.768  0.1766 -0.0501 -0.1833
12025W        W27642   9.203   7.303   3.227  0.2207 -0.2992  0.4005
12026W        W27643   0.391  10.203  14.426 -0.1365  0.0936  0.0915
12027W        W27644  13.353   4.402  14.159 -0.0385 -0.0940  0.2089
12028W        W27645  14.863   7.725   2.736  0.1394 -0.2594  0.1963
12029W        W27646   5.790  11.407   4.021  0.1303 -0.1376 -0.1262
12030W        W27647   2.486   4.314   5.781 -0.2327  0.0891  0.0000
12031W        W27648  14.872   3.009  11.679 -0.1305  0.0875 -0.1797
12032W        W27649   1.062   3.399  13.655 -0.0271  0.1445  0.2141
12033W        W27650   0.904   3.937   4.518  0.0547  0.0561  0.1994
12034W        W27651  15.686   2.348  16.688  0.0339 -0.1300  0.1170
12035W        W27652  12.537   1.060  12.054  0.0410 -0.2418  0.2156
12036W        W27653  10.833   1.846  14.563 -0.0133  0.1606  0.1606
12037W        W27654  17.514   9.103  16.029 -0.1250 -0.0062  0.3096
12038W        W27655   7.114   3.840  15.334  0.0455 -0.4099  0.1158
12039W        W27656  13.642  16.274   4.301  0.0206  0.0066  0.0415
12040W        W27657   3.153   4.631  14.810  0.2656 -0.0614  0.0899
12041W        W27658  14.566   5.978   6.753  0.0470  0.3587  0.0984
12042W        W27659   6.953   5.439   6.922  0.0076 -0.2153  0.1596
12043W        W27660   7.528  11.168   0.241  0.1054  0.0477 -0.2818
12044W        W27661   3.006   8.384   6.523  0.1025  0.0526 -0.1557
12045W        W27662  11.176  11.782  14.327 -0.1609 -0.2298  0.1586
12046W        W27663  14.813   2.438  14.021  0.2770 -0.2502  0.0265
12047W        W27664  16.291   1.577  15.489 -0.0753 -0.0557 -0.0451
12048W        W27665  17.119   3.467   3.034  0.1205  0.0025 -0.1244
12049W        W27666  13.402   8.556   4.392 -0.0415 -0.2877  0.0141
12050W        W27667   3.858  12.684  12.504  0.0092  0.1032 -0.1247
12051W        W27668   6.567   1.861   3.639 -0.0124  0.0551  0.0729
12052W        W27669   0.199  15.801   2.067 -0.1575 -0.1893  0.1278
12053W        W27670   5.114  17.500  10.640  0.0602 -0.2031  0.0492
12054W        W27671   1.769  16.327  16.339 -0.2471  0.0444  0.2616
12055W        W27672   7.149   5.949  12.244  0.1351  0.0453  0.0012
12056W        W27673   2.651   6.043  13.215 -0.0422  0.0828 -0.2539
12057W        W27674  11.891   1.085   4.026  0.2413 -0.0655 -0.2040
12058W        W27675  17.229   0.405  16.926  0.0083  0.2918 -0.1634
12059W        W27676   0.224   4.101  14.127  0.1017 -0.1108 -0.1489
12060W        W27677  15.479   7.522  12.247  0.1370 -0.1630  0.2825
12061W        W27678  13.133   6.054   2.181  0.0123  0.3094 -0.2341
12062W        W27679   3.179  15.673   1.271 -0.0024  0.0989 -0.0521
12063W        W27680  13.928  17.131  13.265 -0.0343  0.1374 -0.1418
12064W        W27681  13.320  13.658   3.239  0.1524 -0.0636  0.0281
12065W        W27682   9.869  16.706   1.934 -0.3074 -0.2293  0.1947
12066W        W27683   5.751   9.018   3.736 -0.0743  0.2295  0.1891
12067W        W27684   2.854   9.558  17.101  0.3623  0.2202 -0.0156
12068W        W27685  14.892   3.468   0.616 -0.1460  0.0107 -0.5290
12069W        W27686  12.747  16.652   1.402  0.1874  0.1554  0.0907
12070W        W27687  13.896  14.926  12.567 -0.0054  0.0369  0.0570
12071W        W27688  12.092  10.872  15.950 -0.0599 -0.1387  0.1892
12072W        W27689  14.543  10.500   4.150  0.0275 -0.0606  0.0715
12073W        W27690  15.911  16.720   3.710  0.0884 -0.3154 -0.0770
12074W        W27691   5.707  14.871  14.707 -0.0096  0.5068  0.1435
12075W        W27692   9.600   3.748  13.070 -0.1324 -0.0894  0.0786
12076W        W27693  11.967   2.793   3.055  0.2380  0.1284  0.0917
12077W        W27694  12.332   9.574   3.230  0.0310  0.1679  0.0846
12078W        W27695   7.180   5.814   5.202 -0.0575  0.0615 -0.0738
12079W        W27696   1.059  17.115  13.007 -0.0349 -0.0876  0.2741
12080W        W27697   1.297  10.620  14.967 -0.0307 -0.2436 -0.0104
12081W        W27698  12.284   3.768  16.801 -0.0592 -0.0761 -0.1083
12082W        W27699   2.392  16.588  12.724 -0.2513 -0.0798 -0.1019
12083W        W27700  12.906  15.296   2.871 -0.2505  0.3580 -0.1498
12084W        W27701   8.039   2.388   5.897 -0.1174 -0.1848  0.0974
12085W        W27702   2.109   7.137  12.189 -0.0460  0.1316 -0.3050
12086W        W27703   8.508  14.563   0.544  0.3310 -0.3620 -0.0816
12087W        W27704   3.813   1.156   4.134 -0.2644 -0.0567  0.1447
12088W        W27705  13.106  10.671  12.736  0.2099  0.2210 -0.1776
12089W        W27706  13.526  14.871  13.887 -0.0367  0.1906 -0.0040
12090W        W27707   8.605  11.157   4.029 -0.1020  0.0360  0.1715
12091W        W27708  17.145   3.823  12.458 -0.1219 -0.1337 -0.1446
12092W        W27709  10.595   8.033   1.744  0.2047 -0.1039  0.2580
12093W        W27710   2.543   4.279   4.974 -0.1703  0.1228 -0.1371
12094W        W27711   3.945   8.952   1.625  0.1074 -0.2097 -0.1289
12095W        W27712   4.667  12.546  15.270  0.1206  0.1285  0.0884
12096W        W27713  10.163  16.988   4.689  0.4604 -0.3981 -0.0268
12097W        W27714   3.951  11.586  14.283 -0.1310  0.0172  0.0912
12098W        W27715   8.277   7.745   2.570  0.1293 -0.2535 -0.0365
12099W        W27716   3.213  13.294   3.725  0.3592 -0.1630 -0.2512
12100W        W27717   9.803  16.820   4.381  0.2008  0.0424  0.0047
12101W        W27718   3.356   7.972   3.602 -0.0992 -0.1866 -0.1608
12102W        W27719  11.977  17.104  14.860  0.1174 -0.2852 -0.1816
12103W        W27720   0.988   6.206   3.848 -0.1497 -0.3404  0.1810
12104W        W27721   5.136  14.698  13.292  0.1341 -0.0171  0.3902
12105W        W27722   8.124   0.562  12.569  0.1085 -0.1733  0.0596
12106W        W27723  17.278  17.256  12.025 -0.0744  0.3141 -0.1633
12107W        W27724   8.312   0.635   1.332  0.2368  0.3380  0.2484
12108W        W27725   5.641   3.271  15.170 -0.0030  0.0151  0.2044
12109W        W27726  12.338  10.915  16.448  0.2207  0.0443  0.0569
12110W        W27727  12.694  17.279  12.546 -0.1795  0.0905 -0.1661
12111W        W27728   0.380   2.411  14.007 -0.3029  0.2201 -0.0551
12112W        W27729  12.108   1.032  12.816 -0.2518 -0.1503  0.0551
12113W        W27730   9.308   6.961  17.194 -0.2021  0.1614 -0.2441
12114W        W27731   7.393   6.674   4.662 -0.1173  0.2747  0.3510
12115W        W27732   1.702   3.370  14.063  0.4092  0.1658 -0.2017
12116W        W27733   3.987  10.810  16.728  0.0834 -0.1815  0.0942
12117W        W27734   8.580   1.360   5.570  0.3102  0.1585 -0.1525
12118W        W27735   5.835   5.000  16.802  0.0416 -0.1990 -0.1200
12119W        W27736  14.199   4.736   0.393  0.0815 -0.1093  0.0384
12120W        W27737   8.017  14.213  16.536  0.4098 -0.1313 -0.0315
12121W        W27738  14.581  10.217   5.047 -0.1954  0.2704 -0.3229
12122W        W27739   4.217   0.311   4.677 -0.1209  0.1041  0.0133
12123W        W27740   2.300   5.663   1.592  0.0072 -0.3195 -0.1434
12124W        W27741   3.668   3.090   4.015 -0.2037  0.2036  0.3586
12125W        W27742  14.137   5.391  16.017 -0.2472 -0.0036  0.0997
12126W        W27743   4.608  15.315   4.811  0.1012  0.0645  0.1579
12127W        W27744  13.066  17.457  11.791 -0.0127  0.1675 -0.0232
12128W        W27745  14.895   6.009   2.339 -0.1260  0.1088  0.0625
12129W        W27746   1.526  13.797  13.202  0.0809 -0.2098  0.1290
12130W        W27747   8.783  16.695   1.722 -0.1994  0.2550  0.0705
12131W        W27748   9.067   5.874   3.897 -0.1031  0.0059  0.1389
12132W        W27749   8.532   0.432   5.365  0.0543 -0.2205 -0.0905
12133W        W27750   3.101   4.289  12.293 -0.2362 -0.1725 -0.2688
12134W        W27751  16.540   5.507   2.268 -0.1932  0.1271  0.2922
12135W        W27752  14.274  16.999   0.440  0.0194 -0.2158  0.1669
12136W        W27753  11.610   0.994  14.182  0.2656 -0.0541  0.1154
12137W        W27754   0.517   1.592  12.332 -0.1566 -0.2685 -0.0521
12138W        W27755   6.968  13.442   2.208  0.1343  0.0663 -0.0003
12139W        W27756   2.936   6.746   5.174 -0.1114 -0.1867  0.1557
12140W        W27757   0.116  13.209  12.859  0.0992  0.1581 -0.4213
12141W        W27758  11.112   7.930  13.568  0.2359  0.1065  0.0921
12142W        W27759   6.460  12.021  12.317 -0.1940  0.1835 -0.1109
12143W        W27760   9.440   7.324   3.652  0.1197 -0.3366  0.1835
12144W        W27761  14.338   0.309  12.148 -0.1155  0.0244 -0.1470
12145W        W27762   1.443  11.482  13.701  0.0384 -0.0123 -0.1154
12146W        W27763   1.432   3.973   4.717  0.1341 -0.0461  0.3143
12147W        W27764  16.176  17.540   5.067 -0.2326  0.3225  0.1672
12148W        W27765   8.697  10.284  14.048 -0.2454  0.0008 -0.0978
12149W        W27766   6.928  16.638   0.325  0.0637  0.0144  0.3921
12150W        W27767   4.134   3.986   5.572  0.0947 -0.2421  0.0525
12151W        W27768   9.291  13.091  16.677 -0.1801 -0.1505 -0.1868
12152W        W27769   9.950   7.067   4.919 -0.2388 -0.0228 -0.1096
12153W        W27770   2.159   0.392   1.468  0.0667 -0.1503  0.0683
12154W        W27771   6.438   7.171  14.325  0.1693 -0.1865  0.1961
12155W        W27772  17.347   5.942   5.819  0.2310 -0.0920 -0.1466
12156W        W27773   7.458   0.319   4.865 -0.0780  0.0485 -0.0263
12157W        W27774  17.050   1.508   0.130  0.0552 -0.0446 -0.4038
12158W        W27775   3.126   6.157  15.028  0.1023 -0.0425  0.3475
12159W        W27776  15.923   9.139  16.627 -0.1281  0.5691  0.1677
12160W        W27777   3.836   6.382  16.964 -0.3800 -0.2242  0.2746
12161W        W27778   0.468  14.673   4.095  0.0926  0.0102 -0.1217
12162W        W27779   6.111   1.024  14.823  0.1770 -0.0831 -0.3657
12163W        W27780   6.537   5.615   4.879  0.2119 -0.1747 -0.2713
12164W        W27781  14.488  17.248   6.528  0.2531 -0.0538  0.0807
12165W        W27782   9.810   6.885  15.743  0.2222  0.0292  0.0082
12166W        W27783   8.371   7.198  16.282 -0.1884  0.0367 -0.3426
12167W        W27784  11.160   2.325   2.662  0.2555 -0.2267  0.1003
12168W        W27785   2.914   6.056  12.784  0.2303 -0.1066  0.0576
12169W        W27786   1.713  17.541  16.915  0.2048 -0.0875 -0.0685
12170W        W27787  14.807   1.830  16.588  0.4244  0.0004 -0.0150
12171W        W27788  16.983   4.128  15.448  0.0404  0.4297 -0.0167
12172W        W27789  12.758   9.527   4.193 -0.1624 -0.2100  0.0250
12173W        W27790   0.426   3.968  15.186 -0.0980  0.0832 -0.0477
12174W        W27791  14.002  10.538  16.459  0.3487  0.0846 -0.0805
12175W        W27792  12.054   3.435   3.039  0.3325 -0.0898  0.3474
12176W        W27793  11.450  11.392   5.042  0.1623 -0.2156  0.2594
12177W        W27794  12.395   2.073  12.411  0.0536  0.1929 -0.1052
12178W        W27795   3.058  12.774  16.083 -0.1925  0.1352  0.1100
12179W        W27796  15.921  10.441   2.911 -0.0229  0.0651  0.0548
12180W        W27797   3.248   1.244   0.184 -0.1575 -0.0910 -0.2085
12181W        W27798  13.588   4.148   0.921 -0.4199 -0.1919 -0.2727
12182W        W27799   9.571  14.059   5.644 -0.1121  0.0851 -0.0596
12183W        W27800   2.790   1.723  12.498 -0.0021 -0.0273 -0.0975
12184W        W27801   6.611   7.695  14.180 -0.1608 -0.0643 -0.2152
12185W        W27802  11.729   7.653   5.499 -0.0240 -0.0285 -0.1824
12186W        W27803   5.231  15.167  13.016 -0.0189 -0.2744 -0.1428
12187W        W27804   4.289   4.035  14.200 -0.1154  0.1722 -0.2032
12188W        W27805   1.594   4.163   3.886 -0.1022  0.1295 -0.1318
12189W        W27806   3.569  14.555   1.853  0.0245  0.0242 -0.1991
12190W        W27807   2.509   2.025   3.379 -0.1430  0.0461 -0.0990
12191W        W27808   7.181   9.208  16.889  0.0954 -0.1431 -0.2762
12192W        W27809  16.487   5.743  15.956 -0.0097  0.1890 -0.0700
12193W        W27810   5.657   6.842  14.868 -0.0878 -0.0221 -0.1846
12194W        W27811  10.368   3.497  12.452 -0.2391  0.2658 -0.0970
12195W        W27812  13.349   1.612  11.624  0.1657 -0.0236  0.1744
12196W        W27813  10.057  13.094  15.500  0.0521  0.1418 -0.0711
12197W        W27814   5.692   6.527  16.734  0.3091 -0.0683 -0.0065
12198W        W27815  16.281  14.758  16.085  0.3744  0.0380  0.2494
12199W        W27816  14.691  10.506   0.652  0.0057 -0.2117  0.1313
12200W        W27817   7.087   8.562   4.399 -0.0915  0.3131  0.3137
12201W        W27818  10.395   0.665   5.947 -0.2528  0.1019  0.1068
12202W        W27819  16.346  12.795   0.929  0.0824 -0.0539 -0.0543
12203W        W27820   6.839   4.971  12.038 -0.2868 -0.0882  0.0197
12204W        W27821   1.768  13.327  14.223  0.0905 -0.0227 -0.3021
12205W        W27822  17.234  15.471   1.404 -0.0967  0.0324  0.0350
12206W        W27823   6.865  11.879  15.077  0.4878  0.1980  0.1540
12207W        W27824   8.428   4.914   3.166  0.2911  0.1996 -0.1967
12208W        W27825  15.055   6.190   1.933 -0.0556 -0.1068 -0.1618
12209W        W27826  11.213  14.835   1.701  0.1355  0.1753  0.0218
12210W        W27827   3.388  12.647  15.073 -0.0818  0.2750 -0.3955
12211W        W27828   1.328  10.123  15.333 -0.2532 -0.0575  0.0294
12212W        W27829   8.749   5.067   0.541 -0.0977  0.0700 -0.0303
12213W        W27830   9.101  15.793   1.743 -0.2096  0.0129  0.1869
12214W        W27831  13.661  15.921  14.095  0.0232 -0.1642 -0.1125
12215W        W27832   4.841   7.598  14.681  0.1229 -0.1479  0.0808
12216W        W27833   6.373   5.409  17.290 -0.2927  0.0094 -0.1865
12217W        W27834   8.259  16.691  14.793 -0.2966 -0.1778  0.1507
12218W        W27835   4.153  15.888   2.905  0.1260  0.1030  0.2180
12219W        W27836   5.570  12.181  12.208  0.0316  0.0643 -0.0922
12220W        W27837   4.652  11.523  16.888 -0.1693 -0.1947  0.1216
12221W        W27838   2.335   2.344   4.950  0.2080  0.0932  0.0666
12222W        W27839   6.134  15.496  14.740 -0.0331  0.2495  0.0997
12223W        W27840  11.361   8.698  16.029  0.2060  0.0078 -0.0411
12224W        W27841   4.487   7.806  15.566  0.2252  0.1766 -0.1001
12225W        W27842   8.998   2.925   2.353 -0.2077  0.0072  0.1777
12226W        W27843  13.069  13.164   2.467 -0.2459  0.0360  0.0327
12227W        W27844  13.351   9.803   3.299  0.4430  0.2396 -0.1961
12228W        W27845   2.035   4.279  13.473 -0.1639 -0.1014 -0.0836
12229W        W27846   1.616  14.854   5.977 -0.1256 -0.0131 -0.0255
12230W        W27847  14.642   8.504   5.052  0.0704 -0.0783  0.1219
12231W        W27848  10.607  10.093  15.267  0.2369 -0.1556 -0.0509
12232W        W27849   2.239  17.381  17.143 -0.3296 -0.1193  0.2427
12233W        W27850   1.385   1.958   3.108 -0.0684 -0.0325  0.2015
12234W        W27851   9.991  12.207  14.241  0.0429 -0.3251 -0.1266
12235W        W27852   1.368   0.531  15.144 -0.2701 -0.0582 -0.0814
12236W        W27853   7.151   8.975  14.909  0.0492 -0.1838 -0.0842
12237W        W27854   3.186   0.808  16.239  0.0462 -0.3003 -0.2268
12238W        W27855  12.042   3.584  15.463  0.1465 -0.0245 -0.1326
12239W        W27856   8.605   3.310  13.071 -0.0868  0.1626 -0.3423
12240W        W27857  17.454   7.370  13.964  0.0034 -0.1965 -0.1062
12241W        W27858   7.452  13.042   0.456 -0.3084 -0.1919  0.1130
12242W        W27859  16.112  13.930  16.909 -0.2227 -0.0422  0.1822
12243W        W27860  15.895   0.104   4.122 -0.2005 -0.2506 -0.1705
12244W        W27861   2.393   1.953  14.793  0.2449  0.1429  0.0030
12245W        W27862  13.884  10.596   5.730  0.2608 -0.2342  0.0946
12246W        W27863   3.021   6.939   1.972  0.0367 -0.1389  0.2030
12247W        W27864   5.600   6.331  13.577  0.0008  0.0120  0.1318
12248W        W27865   2.296   6.971   6.175 -0.0255 -0.1996 -0.0613
12249W        W27866  17.128  10.705   5.930 -0.1368 -0.2152 -0.2861
12250W        W27867   1.439  15.956  16.477  0.0398 -0.2226  0.4782
12251W        W27868   3.200   4.156  14.864  0.1988  0.0421  0.4618
12252W        W27869   5.017   3.211   6.333 -0.1164 -0.0147  0.1845
12253W        W27870   5.298   6.533   2.475 -0.1243  0.0995 -0.1558
12254W        W27871   5.979   0.352   4.264  0.1272  0.0099  0.3603
12255W        W27872  15.804   6.543   1.430  0.2163  0.1971  0.2376
12256W        W27873  10.510   9.520  12.617  0.0397  0.1511 -0.0777
12257W        W27874   7.803   0.552  14.633 -0.1130 -0.0196  0.1442
12258W        W27875   5.093  10.422  14.155 -0.2251  0.1780 -0.0392
12259W        W27876   1.498  16.186  11.563 -0.3081  0.0548 -0.1011
12260W        W27877   8.512   5.671  12.722 -0.0362  0.1811  0.2307
12261W        W27878  14.367  11.944  15.668  0.4015 -0.0556 -0.0457
12262W        W27879   3.199  17.382  12.517  0.1854  0.1090  0.2002
12263W        W27880   8.579  11.834  14.357  0.1591  0.1693  0.0233
12264W        W27881  16.739   0.482   3.973  0.1248  0.0013 -0.1763
12265W        W27882   9.261  17.582   1.686  0.1719 -0.1793 -0.0243
12266W        W27883   8.648   5.570   0.761 -0.1789  0.1656 -0.0288
12267W        W27884  17.526   7.962  13.031  0.1141 -0.0443  0.0631
12268W        W27885  14.383  12.819   6.061 -0.0904  0.2556  0.0616
12269W        W27886   3.617   7.119   6.903  0.0789 -0.0649  0.1317
12270W        W27887  15.924  15.974   3.797  0.0197 -0.0434  0.0246
12271W        W27888  10.996  10.059   0.073  0.1113  0.0350  0.0372
12272W        W27889  10.985   3.109  14.667 -0.1015 -0.3178 -0.0251
12273W        W27890   0.671  11.845   4.113 -0.2302 -0.0451  0.1309
12274W        W27891  10.778  15.504   1.308 -0.2122  0.0508  0.1497
12275W        W27892  17.381   6.959   4.002 -0.5185 -0.1348 -0.0294
12276W        W27893   6.217   4.645   5.906 -0.1810  0.2250  0.2389
12277W        W27894   0.075   8.863  13.893 -0.3268  0.0194 -0.1533
12278W        W27895  17.255  15.826  14.402 -0.2065  0.0180 -0.1891
12279W        W27896   5.155   3.378  16.345 -0.2803 -0.0571  0.1583
12280W        W27897  15.885  10.171  14.781 -0.0081 -0.0553  0.3647
12281W        W27898  10.418  17.285  13.560 -0.0595  0.0993  0.1012
12282W        W27899  13.659  13.952   4.941  0.1301  0.0576  0.1410
12283W        W27900   2.075   7.691  14.304  0.1103  0.0259  0.0625
12284W        W27901   0.662   4.133   3.016 -0.2619 -0.0675 -0.0439
12285W        W27902  10.341  11.816   6.122  0.2534 -0.0624  0.1057
12286W        W27903   9.150  14.456  14.936  0.2523  0.1880 -0.2070
12287W        W27904   2.547   3.015  16.102 -0.0924  0.0805  0.2233
12288W        W27905  17.065   4.273  13.371 -0.2901 -0.0696  0.1021
12289W        W27906  12.908   5.256   0.446  0.1441 -0.2108 -0.1179
12290W        W27907  13.066   2.722   1.992 -0.0075 -0.0861 -0.0108
12291W        W27908  13.689   5.347   0.661 -0.2992  0.0327 -0.2775
12292W        W27909   1.868   9.378  13.490  0.0732  0.1677  0.2062
12293W        W27910   5.986   3.072   0.218 -0.0804 -0.0345  0.0659
12294W        W27911  16.778  13.934   5.335 -0.1835  0.1607  0.0143
12295W        W27912   5.355  14.340   6.182  0.0682  0.1250 -0.0395
12296W        W27913   4.263  11.333   5.198 -0.3995 -0.0080 -0.3169
12297W        W27914  13.684   9.176   5.010 -0.0163  0.1030 -0.2665
12298W        W27915   7.949  10.552   1.334  0.1131  0.0901  0.0861
12299W        W27916  11.884   9.212   0.565  0.0166 -0.1538 -0.0972
12300W        W27917   2.457  13.135  15.199 -0.3796  0.1842 -0.1198
12301W        W27918   9.914  10.819   1.698 -0.2877 -0.1128 -0.3664
12302W        W27919  13.642   0.389  13.448 -0.1016 -0.0546  0.1078
12303W        W27920   8.147  16.169   4.927  0.2699  0.0175 -0.1349
12304W        W27921   1.865   1.852   5.049 -0.0334  0.2030 -0.0218
12305W        W27922   4.745  15.755  13.134 -0.1450  0.4097  0.1016
12306W        W27923   2.272  15.243   0.141  0.1763 -0.3531 -0.1635
12307W        W27924  16.512  17.552  16.396  0.1931  0.0361  0.3532
12308W        W27925   3.566   8.781   0.252  0.1681  0.0728  0.1065
12309W        W27926  15.596  14.491   2.946  0.2403 -0.2409  0.2125
12310W        W27927   6.851   4.082   4.277 -0.0369 -0.1386 -0.0604
12311W        W27928  14.057  11.007  15.435  0.0787 -0.1368 -0.2634
12312W        W27929  13.516   9.083  13.593 -0.1243 -0.0069  0.2421
12313W        W27930  11.208   8.877   1.305  0.5790 -0.0270  0.1037
12314W        W27931  11.007   8.249  15.813  0.2118  0.0147  0.1636
12315W        W27932   9.972   7.786   2.065 -0.1623 -0.0175  0.3244
12316W        W27933  16.085   8.795  16.315 -0.2050  0.2609  0.0344
12317W        W27934  15.102   0.263   0.704 -0.1879 -0.0040  0.0218
12318W        W27935  15.750  13.653  14.967 -0.0203 -0.2494  0.0195
12319W        W27936   1.408   2.818   0.612  0.1039 -0.2360 -0.0134
12320W        W27937  12.745   3.275  16.914  0.2247 -0.1838 -0.2081
12321W        W27938  13.192   7.747  12.293  0.2880 -0.0998 -0.1407
12322W        W27939   7.870   7.225  13.428 -0.2708 -0.0427  0.0197
12323W        W27940   7.408   4.019  13.124  0.2921 -0.0103 -0.1892
12324W        W27941  12.705   4.564   3.642 -0.0544 -0.0607 -0.1285
12325W        W27942   1.224   6.549  14.133 -0.0981 -0.1973  0.0591
12326W        W27943   1.463  16.989   6.226 -0.2394 -0.2424  0.2068
12327W        W27944  14.383  10.426  16.138 -0.1871 -0.0561  0.3269
12328W        W27945   9.214   1.443   0.092  0.1222  0.1824 -0.0657
12329W        W27946  14.333  14.452   4.934  0.0900  0.0683 -0.0653
12330W        W27947   9.239   5.429  13.068 -0.2048 -0.1546  0.1019
12331W        W27948  16.025  12.878   0.333  0.1430 -0.1415  0.0744
12332W        W27949  15.189   2.802  14.057 -0.0879 -0.0988  0.0955
12333W        W27950   9.969   5.682   5.187  0.2135 -0.1266  0.1134
12334W        W27951   8.352  12.118  13.998 -0.1065  0.0825  0.0017
12335W        W27952   8.256   0.003  16.359 -0.1467  0.0824  0.1119
12336W        W27953  11.586   5.396  16.575  0.0582  0.0860 -0.2345
12337W        W27954  11.591  15.966   1.146  0.0117 -0.2085 -0.0043
12338W        W27955  13.045  11.907   5.907  0.0879 -0.2210 -0.0878
12339W        W27956   5.469   7.990   1.172  0.0674 -0.2660  0.0907
12340W        W27957   8.180  12.235   3.693 -0.0613 -0.0120 -0.1711
12341W        W27958  13.117   7.748   5.725 -0.4414 -0.0462 -0.1160
12342W        W27959   5.275  13.670  14.046 -0.0057 -0.2067 -0.1462
12343W        W27960   7.526   5.414   2.145 -0.1222  0.1612  0.0976
12344W        W27961   1.046   3.628  16.803  0.1195 -0.2988 -0.0962
12345W        W27962   4.649  12.074  14.426  0.4013 -0.1697  0.4130
12346W        W27963   6.648   7.620   4.212  0.1074  0.2197  0.0190
12347W        W27964   7.711   8.398  12.799  0.0233  0.0145 -0.3158
12348W        W27965  10.934  11.369  13.430  0.0575  0.0329  0.0951
12349W        W27966   8.363   5.224  12.910 -0.1279  0.0272  0.1103
12350W        W27967   6.353   3.093   3.537 -0.0385 -0.2069  0.2597
12351W        W27968   7.406   6.555  12.793 -0.1538  0.1353  0.1238
12352W        W27969   1.328  10.653   5.919 -0.1586  0.2562  0.0573
12353W        W27970   4.251  12.782   1.079 -0.1692  0.1140  0.0479
12354W        W27971  14.686   4.681  12.734  0.0801 -0.2087  0.1204
12355W        W27972  14.955   7.187  12.264  0.0881  0.3222  0.0803
12356W        W27973  10.626   2.442   5.396  0.0984  0.2234 -0.1585
12357W        W27974   4.471  10.337   4.180 -0.0841 -0.3203 -0.1863
12358W        W27975   7.279  10.905  12.711  0.0626  0.1566 -0.3487
12359W        W27976  14.840   6.131  14.968  0.3727 -0.1036 -0.0239
12360W        W27977  11.210   2.902   5.807  0.4074  0.1717 -0.3422
12361W        W27978   8.058   2.619   4.920  0.1668  0.0913  0.2640
12362W        W27979   2.338  11.384   0.412 -0.1035 -0.2103 -0.1747
12363W        W27980  11.128   9.460   5.549  0.0204 -0.0952  0.3861
12364W        W27981   0.055  11.322   0.978 -0.0927 -0.0436  0.0513
12365W        W27982   0.707   8.291   0.078  0.0902 -0.0439 -0.0833
12366W        W27983   0.840  14.151   4.990  0.1135 -0.1593 -0.1934
12367W        W27984  14.863  17.430  13.572 -0.0649 -0.2237  0.1929
12368W        W27985  11.681  12.341  14.376  0.0676 -0.1845 -0.2706
12369W        W27986   7.052  12.929  14.512  0.3192  0.0507  0.2114
12370W        W27987   8.929   8.131  15.349 -0.0234 -0.0076  0.2141
12371W        W27988  14.560   2.528  15.932 -0.0586 -0.2942 -0.1298
12372W        W27989  15.862   7.944  13.997 -0.0769  0.0141  0.0843
12373W        W27990   9.768  14.799   0.804  0.0381 -0.0200  0.0586
12374W        W27991  15.900   4.957   0.576 -0.2345  0.0791  0.2873
12375W        W27992   3.871   1.700  17.218  0.0164  0.0605  0.0776
12376W        W27993   2.402   9.366  15.921  0.3046 -0.2108 -0.1869
12377W        W27994   6.331  13.156  15.260  0.0287 -0.3671  0.0635
12378W        W27995   7.661   8.581   0.533 -0.0934  0.0209 -0.0869
12379W        W27996  16.358   4.289  16.969  0.2869  0.1760  0.0624
12380W        W27997   4.793  15.624   3.113 -0.0613 -0.1488  0.2166
12381W        W27998   8.237   5.618   6.267 -0.2169  0.0371  0.0980
12382W        W27999   4.939  12.532   2.421 -0.4263  0.1297  0.3382
12383W        W28000   0.173  14.935  11.329 -0.1962  0.1988 -0.0195
12384W        W28001   2.760   7.843  14.366  0.1051 -0.0728  0.1351
12385W        W28002   7.225   4.618  12.107 -0.0732 -0.3944 -0.1870
12386W        W28003  11.494  16.190   2.103  0.0972 -0.1743 -0.0419
12387W        W28004  11.190   6.505   3.537 -0.0644  0.1812  0.3223
12388W        W28005   6.639   6.505   5.427  0.0260 -0.1066 -0.1887
12389W        W28006   0.551   8.552  15.514  0.1806 -0.3301 -0.1954
12390W        W28007   9.909  13.254   4.444 -0.0453 -0.3298  0.1580
12391W        W28008  14.836   8.431  15.869 -0.1547 -0.1450  0.2502
12392W        W28009  12.359   8.529  12.399 -0.0841 -0.1519  0.0008
12393W        W28010   7.407  16.705  13.739 -0.0677  0.1772  0.1873
12394W        W28011   9.069  17.367  13.942 -0.0959  0.3768 -0.1291
12395W        W28012   5.182  15.301   1.257 -0.3279 -0.0530  0.5795
12396W        W28013  17.382   2.305   4.944  0.2192  0.0717 -0.0429
12397W        W28014  13.355   7.619  15.860  0.1318 -0.1036  0.4247
12398W        W28015   3.615   8.643  12.421  0.0201 -0.0113  0.0978
12399W        W28016  11.487  10.967  13.996 -0.0892  0.0214 -0.0222
12400W        W28017   7.400   6.804  14.388  0.2120  0.0987 -0.0570
12401W        W28018  17.339  12.440   4.745  0.0246  0.4307  0.0851
12402W        W28019   0.802   4.796  12.305  0.4040 -0.2410  0.0442
12403W        W28020   7.240   5.384   3.688 -0.1719 -0.1477 -0.2729
12404W        W28021  11.385  10.675   0.606 -0.0311 -0.3014 -0.0637
12405W        W28022  13.104  15.048  14.057  0.0894  0.1756  0.1110
12406W        W28023   2.249  11.440  13.172 -0.0859 -0.2191  0.2256
12407W        W28024   4.326  14.097  16.100  0.0776  0.1359  0.1235
12408W        W28025   9.856  15.064  12.893 -0.0047  0.0770 -0.0476
12409W        W28026   8.479   9.007  15.503  0.1531 -0.1901 -0.3084
12410W        W28027   5.692   5.769  14.437  0.3030  0.0212  0.2054
12411W        W28028   9.937   0.138   1.113  0.0540  0.3334  0.0314
12412W        W28029  17.294  15.632  15.978 -0.0321  0.1679 -0.2331
12413W        W28030  10.474  17.009  15.464  0.0637  0.2942  0.2009
12414W        W28031   0.959  15.332   3.528 -0.1875  0.0697 -0.2720
12415W        W28032   9.528   3.567   3.527 -0.2212  0.0204  0.0177
12416W        W28033  10.718   1.826  11.980  0.2446  0.0043 -0.2526
12417W        W28034   8.799   7.393   0.849  0.1259 -0.2986 -0.0842
12418W        W28035   5.224   1.123  12.057  0.0054  0.0044 -0.3154
12419W        W28036  11.148  14.602   4.268 -0.3458 -0.1549  0.1508
12420W        W28037   6.469  10.413   0.202  0.0977 -0.1562  0.1462
12421W        W28038   6.341   8.698  16.294 -0.0189 -0.0097 -0.3531
12422W        W28039   7.840  16.215   0.010 -0.0866 -0.2840  0.3027
12423W        W28040  10.831   4.324   0.528 -0.3901 -0.0576 -0.0121
12424W        W28041  16.648   3.359  13.249  0.1308  0.1596 -0.2383
12425W        W28042  13.069   7.164   0.110 -0.0303 -0.2469 -0.1887
12426W        W28043  12.360   9.471   0.290  0.0717  0.0153 -0.5787
12427W        W28044   4.379   9.232  14.925 -0.3455 -0.1974  0.0720
12428W        W28045   4.890   8.031   6.196 -0.1611  0.0438  0.1276
12429W        W28046   4.854   2.422  14.268  0.1485 -0.0750 -0.1908
12430W        W28047  17.036   6.731   0.841 -0.1032 -0.3275  0.0576
12431W        W28048   2.156   8.778  13.004 -0.1520  0.2841  0.0522
12432W        W28049   0.206   5.589   2.265 -0.1525 -0.1910 -0.1219
12433W        W28050   3.429  10.312  13.050  0.0183 -0.0137 -0.0513
12434W        W28051   7.735  17.499   0.765 -0.0364 -0.1910 -0.0641
12435W        W28052   5.871   6.142   4.774 -0.1770  0.0045  0.0260
12436W        W28053  12.832  17.334  14.467  0.0062 -0.0886 -0.1039
12437W        W28054  10.361  13.177  17.046  0.0190  0.1592  0.0600
12438W        W28055   1.708   9.571   2.360 -0.2151 -0.2041  0.0790
12439W        W28056   5.506   1.215  16.042  0.2053 -0.1012  0.0564
12440W        W28057  10.717   1.535   5.508 -0.0483  0.0685 -0.1982
12441W        W28058  14.915   7.468   0.069 -0.1265  0.2679  0.0951
12442W        W28059  11.147  15.427  14.539  0.0575 -0.0486  0.0775
12443W        W28060   7.754   9.178   3.915 -0.1942 -0.1484  0.1314
12444W        W28061  17.331   5.748   2.379 -0.1794  0.0729  0.2893
12445W        W28062   3.917   6.478   5.151 -0.0122  0.2025  0.0190
12446W        W28063  13.190  12.568  13.031  0.4341  0.1163  0.1953
12447W        W28064  13.411   5.365  11.852  0.3496  0.0282  0.2060
12448W        W28065  10.721  15.855   0.071  0.1035 -0.1744  0.1742
12449W        W28066   0.020   1.319   6.411 -0.0070 -0.1959  0.0967
12450W        W28067   7.398  14.989   1.048  0.1348  0.2074  0.2369
12451W        W28068   6.853  14.598   5.415  0.0659  0.0201  0.0110
12452W        W28069   9.959   5.965  14.993 -0.3331  0.2065  0.1408
12453W        W28070   2.870   6.940   1.514 -0.5461  0.1843  0.2493
12454W        W28071   8.492   6.128   0.235 -0.0495 -0.1393 -0.3806
12455W        W28072   9.605   6.130   1.989  0.0251  0.2309  0.0254
12456W        W28073  16.850  13.329   4.144 -0.2261  0.0202  0.0542
12457W        W28074   9.271  12.659  17.263  0.1903 -0.0618 -0.1400
12458W        W28075  11.305   0.356  15.352  0.2847  0.1956  0.1687
12459W        W28076  11.546  11.422  14.211 -0.3086  0.3593 -0.3222
12460W        W28077   8.760   4.992  12.234 -0.0368 -0.2699 -0.4531
12461W        W28078   2.424   6.501  15.609  0.0112 -0.2751 -0.0825
12462W        W28079   5.846  11.113   0.655 -0.2002  0.2005  0.1972
12463W        W28080  13.462   8.420   2.860 -0.0532  0.0720 -0.0510
12464W        W28081  15.730  12.154   1.035  0.3200 -0.0989 -0.2562
12465W        W28082  13.413   2.462  16.712  0.3237 -0.3204 -0.0712
12466W        W28083   9.833  12.060  11.514 -0.1477  0.0855 -0.2276
12467W        W28084   1.636  14.714  13.812 -0.0418  0.3063  0.1739
12468W        W28085  10.826   9.314  15.560  0.0074 -0.0880 -0.1740
12469W        W28086   2.687  12.896  15.677 -0.1407 -0.0859  0.1486
12470W        W28087  11.003  14.338  11.816  0.1799  0.0513  0.0354
12471W        W28088  10.172   7.882   5.555 -0.2399 -0.0654  0.1528
12472W        W28089  12.798   8.472  12.660 -0.3829 -0.1920 -0.0976
12473W        W28090  13.927   7.109  16.637  0.2480 -0.1612  0.1060
12474W        W28091  15.291   2.032  16.666  0.0859  0.1729  0.2367
12475W        W28092  10.476   5.694   0.868 -0.1262 -0.1256 -0.0500
12476W        W28093  15.317  12.717   2.880 -0.0196 -0.1279 -0.0012
12477W        W28094  14.143  13.631   3.195  0.1092  0.0755 -0.1504
12478W        W28095   1.936  11.995  12.688  0.1994  0.1043  0.0300
12479W        W28096   2.395   3.678   4.105 -0.0176 -0.0127  0.0721
12480W        W28097   2.268  14.347   1.845  0.2296 -0.1226  0.0316
12481W        W28098   8.576  15.611  16.848  0.3620  0.2141  0.2813
12482W        W28099   8.861  14.211   4.905  0.0701 -0.4025 -0.0823
12483W        W28100  14.949   2.754  16.021 -0.3389  0.1666  0.2368
12484W        W28101  16.686  15.541   2.742  0.2414 -0.0232 -0.1761
12485W        W28102  13.594   5.067  12.282 -0.2712  0.0346 -0.0340
12486W        W28103   8.116   6.524  13.873 -0.0856 -0.2873 -0.0725
12487W        W28104  11.245   3.723   3.694  0.3668 -0.1820 -0.1669
12488W        W28105   7.795   2.862  16.853  0.1166 -0.1031  0.1442
12489W        W28106   4.161  17.578   2.363  0.1082  0.0730  0.0800
12490W        W28107   7.953   2.313  17.140 -0.2042 -0.1368 -0.1914
12491W        W28108   1.033   3.234   6.334 -0.1389 -0.0752 -0.0004
12492W        W28109  16.689  11.688   4.945 -0.2175 -0.0795 -0.0712
12493W        W28110   3.170   3.616   0.494  0.3601  0.1173  0.0942
12494W        W28111   5.818   7.367  14.435  0.1450 -0.0208  0.1879
12495W        W28112   9.892   6.298   2.959 -0.0422  0.3950 -0.0595
12496W        W28113   4.176   1.651   0.384 -0.2694 -0.3219  0.4406
12497W        W28114  16.374  17.141  12.389 -0.1257 -0.0602  0.3581
12498W        W28115  16.621   9.890   4.348  0.1989  0.2335 -0.1027
12499W        W28116   4.579   4.030  12.486 -0.0770  0.1720 -0.2396
12500W        W28117   8.551   7.513  13.447  0.2615 -0.6059  0.0574
12501W        W28118   4.611  15.444  16.714  0.0428 -0.2814  0.0976
12502W        W28119   7.557  15.878  14.232 -0.1573 -0.0412 -0.0877
12503W        W28120  16.151  13.979  13.108 -0.1079  0.1581 -0.0778
12504W        W28121  10.231   8.463  15.217  0.1257  0.0588 -0.0617
12505W        W28122  16.947   1.701   4.262  0.0940 -0.2501  0.1841
12506W        W28123  11.453  16.859  14.369 -0.0170  0.0755  0.2254
12507W        W28124  16.318   8.896  17.215 -0.1210  0.2251  0.0001
12508W        W28125   8.439   5.646  14.516 -0.0056  0.2194 -0.2215
12509W        W28126  13.660   3.682   0.609 -0.1618 -0.0349  0.1748
12510W        W28127   5.012   2.951   3.894  0.0637 -0.1137 -0.1911
12511W        W28128  12.956   4.610   6.247 -0.2663  0.0267 -0.2543
12512W        W28129   9.907   2.124  13.026  0.0447 -0.0574 -0.0207
12513W        W28130   6.259  15.000  13.452  0.3216 -0.1649 -0.0115
12514W        W28131   4.675   1.950   3.148  0.1013 -0.0545 -0.3612
12515W        W28132  10.248   4.254  17.197 -0.1967 -0.1514 -0.0542
12516W        W28133  10.530  13.302   3.607  0.5711 -0.0557  0.2341
12517W        W28134  12.615   5.069   6.151 -0.0837  0.0394  0.2183
12518W        W28135   2.556   3.417   0.493 -0.1685 -0.0705  0.2937
12519W        W28136   6.063   8.423  15.878 -0.2069  0.3499 -0.0770
12520W        W28137  14.696  16.631   1.298 -0.0065  0.0283 -0.1533
12521W        W28138   5.515   4.204  16.282 -0.0473  0.0459  0.1857
12522W        W28139  17.109   3.020  14.727  0.2786 -0.2096  0.1556
12523W        W28140  15.863  17.453   2.294 -0.0613 -0.2925 -0.0196
12524W        W28141  15.947  10.640  13.973  0.0145 -0.1185 -0.0820
12525W        W28142  13.707  13.217   5.342  0.0975  0.1352 -0.2499
12526W        W28143  10.662   3.457  14.991 -0.2450  0.0424  0.0867
12527W        W28144  10.054   0.464  13.457  0.1054 -0.0933 -0.1815
12528W        W28145   1.434   9.235   4.231 -0.1659 -0.1162 -0.2174
12529W        W28146   3.064   4.028   4.520 -0.2244  0.0433 -0.2535
12530W        W28147   9.964  12.154  15.870  0.1131  0.4165 -0.0202
12531W        W28148   0.452  11.502   1.335  0.2562  0.0251  0.1747
12532W        W28149   7.263   2.515  14.519  0.1268  0.1272 -0.1993
12533W        W28150  14.785   7.768   4.407  0.1297  0.0462  0.1961
12534W        W28151  14.301  15.501   5.703  0.1631  0.1400 -0.0822
12535W        W28152  17.061  10.175  13.504  0.1265  0.1843  0.1981
12536W        W28153   0.270  17.429  12.133  0.0216 -0.1067  0.1012
12537W        W28154  15.619   7.112   3.804  0.0590  0.0038  0.0652
12538W        W28155  16.309   0.151   5.521 -0.4249 -0.0566  0.2432
12539W        W28156   0.879   5.673   4.501 -0.2591 -0.1676  0.0359
12540W        W28157  11.567   8.283  13.537  0.0558  0.0502  0.1358
12541W        W28158  16.446  15.272  11.593  0.1032 -0.0462 -0.3026
12542W        W28159  12.550   1.913   6.314 -0.0264 -0.0671  0.3408
12543W        W28160   4.026  16.652  14.888  0.0842  0.0887  0.0094
12544W        W28161  12.669  16.449   2.285 -0.0359 -0.0925 -0.0002
12545W        W28162  17.152   9.501   1.600  0.2425  0.2269 -0.1198
12546W        W28163   1.987   7.834   4.016  0.2391  0.2212 -0.0619
12547W        W28164   1.889  10.079   6.754  0.1422 -0.0845 -0.1738
12548W        W28165   9.569   6.405   6.071  0.1389 -0.0595  0.2321
12549W        W28166   1.075   1.322  12.697 -0.1414 -0.0446 -0.1498
12550W        W28167  14.731   4.830   5.993  0.1109 -0.2258 -0.1353
12551W        W28168   7.594  15.748   3.566 -0.1870 -0.0443 -0.0215
12552W        W28169   9.015   5.946  13.099 -0.0953  0.3559 -0.2053
12553W        W28170   3.976   4.709  15.441 -0.1104  0.0894 -0.5197
12554W        W28171   6.840   3.382   1.918 -0.2489  0.0495  0.3526
12555W        W28172  10.316  11.049   1.500 -0.1104 -0.0415 -0.0237
12556W        W28173   9.168  12.579   2.212  0.2480 -0.1286 -0.2228
12557W        W28174   2.214  16.102  14.996 -0.1023 -0.2407  0.0091
12558W        W28175  10.302  11.072  13.402 -0.4174 -0.3027 -0.1737
12559W        W28176  12.039  17.374   4.973 -0.3855  0.0097  0.0419
12560W        W28177  17.254   3.705   6.011 -0.0483 -0.0573 -0.1116
12561W        W28178   5.657   1.029  16.484  0.0744 -0.0587 -0.0873
12562W        W28179   7.002   7.470  15.114  0.1990  0.0421 -0.0582
12563W        W28180   4.815   3.108  16.576 -0.1353 -0.0450  0.1692
12564W        W28181  16.531   4.447  12.912 -0.1525 -0.0620  0.0259
12565W        W28182   2.558   7.879  16.121  0.2406 -0.0173 -0.0746
12566W        W28183   6.819   6.825   0.746  0.2564  0.0489 -0.0454
12567W        W28184  13.703   4.988   0.300  0.3021 -0.0977  0.1116
12568W        W28185   7.144   4.479   0.204 -0.0224  0.2417 -0.3129
12569W        W28186   8.409  16.632  12.798 -0.1606 -0.1944  0.2100
12570W        W28187   5.074   1.476   2.663 -0.0689 -0.1898 -0.0396
12571W        W28188  12.829   3.341  12.323 -0.0031  0.1108 -0.0375
12572W        W28189  15.818  14.670   2.061 -0.0157 -0.3419 -0.1032
12573W        W28190   9.190   5.304   1.589 -0.1159 -0.2632  0.1780
12574W        W28191  12.335  11.462  15.264 -0.0709 -0.1950  0.1058
12575W        W28192   4.515  17.131   3.515  0.1272 -0.0389 -0.0246
12576W        W28193   5.591  15.461  12.840 -0.0570  0.0422 -0.0720
12577W        W28194   9.446   4.979  13.902 -0.1864 -0.2843  0.2466
12578W        W28195   9.328   0.509   4.510  0.1040  0.1339 -0.1838
12579W        W28196  12.400   9.129   5.883  0.1271 -0.1991  0.0122
12580W        W28197  14.307   3.098   4.599  0.1514  0.3345  0.1378
12581W        W28198  12.888  13.793  14.361 -0.0634 -0.0568 -0.0056
12582W        W28199  11.114   2.983   3.257  0.3597 -0.0853 -0.0702
12583W        W28200   1.396   3.885  14.866 -0.0218 -0.3434 -0.0017
12584W        W28201   0.968   6.237  12.360 -0.0765  0.3359  0.0978
12585W        W28202  11.828   1.994  14.441  0.2536 -0.0503 -0.1535
12586W        W28203  11.000  13.029  14.616 -0.0204 -0.0438 -0.1006
12587W        W28204  15.665   0.094   2.661 -0.0712 -0.0316  0.1111
12588W        W28205   1.789   5.726  13.200 -0.3539  0.0618  0.1261
12589W        W28206   5.059   8.812   2.533  0.0221  0.0587  0.1253
12590W        W28207   7.664   3.234  14.784 -0.1743  0.2098  0.3630
12591W        W28208   5.584   9.704  15.071 -0.0043 -0.0464 -0.1119
12592W        W28209  16.459   9.515  12.567 -0.3119 -0.0912 -0.3013
12593W        W28210   9.484   6.292   3.898 -0.0476 -0.1536 -0.0983
12594W        W28211  12.653  12.933   3.018 -0.0811 -0.3860 -0.1911
12595W        W28212  12.841   2.503  13.674  0.1890  0.2721 -0.0005
12596W        W28213  12.023  15.658  14.783  0.3952 -0.4271  0.0123
12597W        W28214  11.235  17.166   6.033  0.0472  0.0305  0.0653
12598W        W28215   1.831   0.410   3.947 -0.2213 -0.2184 -0.2087
12599W        W28216  17.140  15.363  16.433  0.0001 -0.1385  0.0525
12600W        W28217   4.927  10.213  12.207 -0.0522  0.0850 -0.2415
12601W        W28218  11.328  16.738   1.511  0.0769  0.2391 -0.0044
12602W        W28219   0.880  16.289  15.527  0.1273  0.0323 -0.3028
12603W        W28220   2.850   3.446  13.090  0.0701  0.3086 -0.0318
12604W        W28221   5.937  14.099  13.464  0.1130  0.0299  0.3329
12605W        W28222   1.577   8.923   1.417 -0.2543 -0.0710  0.0930
12606W        W28223   4.476  10.145  16.513 -0.0375 -0.3196  0.0400
12607W        W28224   0.595   2.144  12.415 -0.0479  0.2503  0.1076
12608W        W28225   5.494  11.768  13.482 -0.2880 -0.2835  0.1049
12609W        W28226   5.962   8.344  12.591  0.1735 -0.0294  0.3052
12610W        W28227   4.988  14.143   0.925  0.0571  0.1141 -0.0864
12611W        W28228  15.760  14.158   2.651 -0.3906 -0.2680  0.1899
12612W        W28229  12.917   2.882   5.008  0.1983 -0.1149 -0.1655
12613W        W28230  15.627  17.595   1.646  0.0775 -0.5750 -0.3189
12614W        W28231  11.145   6.489  17.291  0.0348 -0.0131  0.0509
12615W        W28232   2.395   8.180   5.255  0.3704 -0.1259  0.2537
12616W        W28233  10.504   4.470   2.723 -0.2789 -0.1606  0.0380
12617W        W28234  11.023  11.132   2.593  0.1530  0.4534 -0.0733
12618W        W28235  14.087   5.046   0.748  0.0049  0.0732 -0.0576
12619W        W28236   6.302   3.871  15.819 -0.4842 -0.1427 -0.0471
12620W        W28237  11.505   3.082   0.792  0.2120 -0.0881 -0.0797
12621W        W28238  14.184   0.387  15.473 -0.0049 -0.2466  0.0577
12622W        W28239   5.548   4.458   2.204  0.0247  0.0516 -0.0347
12623W        W28240  15.107  12.211  14.386  0.4084 -0.1980  0.0411
12624W        W28241  15.365   0.314  14.207 -0.0750 -0.0352 -0.0790
12625W        W28242   5.829   6.811   4.060 -0.1441 -0.3612  0.2122
12626W        W28243  17.538   5.473  16.691  0.1151 -0.3123 -0.3518
12627W        W28244   2.125   3.254   2.606 -0.1343  0.1089  0.0799
12628W        W28245   1.487   0.310   3.111  0.2815  0.0111  0.0300
12629W        W28246   6.165  14.843  12.978  0.2037 -0.1021  0.4796
12630W        W28247  10.465   8.691   0.098 -0.0999 -0.2345 -0.0884
12631W        W28248  12.509  16.442  16.700  0.2082  0.3275  0.1250
12632W        W28249  12.938  14.783   5.066  0.0976 -0.1989  0.0268
12633W        W28250   2.323   7.000  15.910  0.0288  0.2532 -0.2010
12634W        W28251  13.549  11.794   5.706  0.0210 -0.0635 -0.0841
12635W        W28252  17.007   8.767   2.494 -0.1016 -0.1748  0.1432
12636W        W28253   9.524  11.202   4.212  0.0560  0.1536  0.1736
12637W        W28254   7.787  12.238   4.155 -0.2627  0.2911  0.1552
12638W        W28255   6.715   2.696  13.625 -0.0923  0.0337 -0.2999
12639W        W28256  11.691   0.990  12.470  0.0380  0.1985 -0.2730
12640W        W28257  11.822  17.183  11.786  0.1733 -0.2428  0.1292
12641W        W28258  13.272   3.587  12.357 -0.0109  0.2150  0.2201
12642W        W28259   8.362   0.499  12.983 -0.0203 -0.1519  0.1642
12643W        W28260   6.664   5.835   0.723  0.1490  0.2751  0.0969
12644W        W28261   7.077   3.343   2.574  0.0127  0.3391  0.0251
12645W        W28262  17.144   2.541  16.474 -0.0733 -0.1830 -0.1195
12646W        W28263   8.776  15.117  16.040  0.0671 -0.3658  0.1200
12647W        W28264   9.464  13.954  13.921  0.1746 -0.0336  0.1491
12648W        W28265   3.415   3.168  12.788 -0.2330 -0.0075 -0.1074
12649W        W28266  12.358  14.640   5.340  0.1345  0.1844  0.0034
12650W        W28267  11.255  15.341   0.448  0.0223  0.1246 -0.3088
12651W        W28268  16.788  14.959   3.137 -0.0371 -0.1780 -0.1402
12652W        W28269  14.831  10.497   1.947 -0.1827  0.1338  0.1550
12653W        W28270   7.896  17.108   2.188 -0.0799  0.2635  0.2390
12654W        W28271   6.651  13.576   4.427 -0.1184  0.2974  0.1537
12655W        W28272  12.733  15.759  13.721 -0.3826  0.1884  0.1491
12656W        W28273  10.591  12.314   0.851  0.2317  0.0589  0.1710
12657W        W28274   0.882  13.725  16.831  0.0465 -0.1376 -0.1236
12658W        W28275  12.275   2.525  12.718 -0.1415  0.0975 -0.0468
12659W        W28276  10.567   1.771   2.391 -0.2048  0.0646 -0.0880
12660W        W28277  15.331   2.718   0.323  0.0240 -0.0183 -0.1460
12661W        W28278   5.814   4.923   4.016 -0.1593 -0.1725 -0.3126
12662W        W28279  10.454   6.445  13.027 -0.2534  0.0794  0.0604
12663W        W28280   6.002   2.403  12.489 -0.2052 -0.0614  0.1183
12664W        W28281   9.029  15.494  10.965 -0.4129 -0.0987  0.1416
12665W        W28282  17.352   5.716  11.249 -0.2664 -0.2202  0.1476
12666W        W28283   9.824   6.527  11.512  0.3449 -0.0285 -0.1412
12667W        W28284   5.071  16.580   4.299  0.0880  0.1127  0.0429
12668W        W28285   9.235   7.484   0.546  0.0659  0.0895  0.1168
12669W        W28286   2.488  11.310   2.013 -0.0578 -0.1429  0.5379
12670W        W28287   7.823  16.561   0.366 -0.3264 -0.0578 -0.0221
12671W        W28288  14.589   7.912  12.335  0.1949  0.1940  0.0915
12672W        W28289   6.393   8.368  13.441 -0.3669 -0.2427  0.0826
12673W        W28290  10.552   0.791  12.115  0.0457  0.0735  0.4756
12674W        W28291  14.999   8.630  14.114 -0.0409  0.0497  0.0431
12675W        W28292   3.000  16.924   0.393  0.1105 -0.0419  0.0687
12676W        W28293   3.539   9.843   3.732  0.1625  0.1933 -0.1297
12677W        W28294   6.383   0.370  16.367  0.2656  0.1635 -0.1206
12678W        W28295   1.413  17.389   5.947 -0.1146 -0.0502  0.0415
12679W        W28296   2.748   8.167  13.953  0.1061 -0.0729 -0.1489
12680W        W28297   5.856   7.101  15.425 -0.0830 -0.1278  0.1874
12681W        W28298  14.594   9.117  14.662 -0.1218 -0.2932  0.1554
12682W        W28299   6.187   0.629   1.749 -0.0774  0.1115  0.2359
12683W        W28300   1.925  13.778  16.663  0.0737  0.0583 -0.1688
12684W        W28301  10.171   7.848   1.545 -0.1364  0.0516  0.2716
12685W        W28302   3.917   9.230  14.676  0.1664  0.0107 -0.0591
12686W        W28303  15.677  12.983  12.801  0.2836 -0.0892 -0.2670
12687W        W28304   1.050  17.220   6.295  0.3544  0.0897  0.0984
12688W        W28305  11.160   9.008  13.102  0.0302 -0.3905  0.0702
12689W        W28306   5.698   8.644  11.889  0.1242 -0.1708 -0.1240
12690W        W28307  11.488   2.865  12.358  0.0177 -0.1420  0.2257
12691W        W28308  12.902  13.902   3.100  0.0204  0.0387 -0.1078
12692W        W28309   5.438   7.033   4.863  0.0314 -0.1877  0.3207
12693W        W28310   7.580  10.178   1.017  0.0636 -0.0874  0.1757
12694W        W28311   8.072   8.561   3.151  0.0300  0.3072 -0.1343
12695W        W28312  10.848   0.127  12.321  0.0109  0.0922  0.3668
12696W        W28313   4.137   3.816   3.231  0.0019 -0.2063 -0.2507
12697W        W28314  16.155  15.037  16.474  0.2203  0.0077 -0.1700
12698W        W28315   8.560   5.408  13.849 -0.3130 -0.1067  0.2572
12699W        W28316   8.463  11.581   5.703  0.2508 -0.0434 -0.0518
12700W        W28317   4.435   3.332   3.318 -0.1795  0.2363 -0.1631
12701W        W28318   9.066  13.770   1.006 -0.0214 -0.0723 -0.0760
12702W        W28319  11.648  17.005  16.992 -0.1170  0.1341 -0.2609
12703W        W28320   5.833  14.015   1.757  0.0395  0.1518  0.2131
12704W        W28321  13.684   2.339  12.592  0.2014 -0.0228  0.1436
12705W        W28322   2.678   3.933  17.016 -0.0124  0.0402  0.1499
12706W        W28323   6.670   8.695   0.696 -0.1016 -0.1644 -0.0313
12707W        W28324  11.880   5.339  12.858 -0.0598  0.2196 -0.0867
12708W        W28325  16.226   3.879   3.682 -0.0131 -0.2422 -0.1778
12709W        W28326  12.783   7.815   4.322  0.0157 -0.3225  0.0747
12710W        W28327   5.032  11.863   2.181  0.2963 -0.1390  0.0537
12711W        W28328   4.852  10.720  15.213  0.0574 -0.1365 -0.1860
12712W        W28329   6.927   9.851  16.278  0.0725 -0.1492  0.0853
12713W        W28330   8.470   5.433   6.708 -0.3197 -0.0569 -0.1261
12714W        W28331   1.755   3.688   1.896  0.1183 -0.3249 -0.1278
12715W        W28332  17.317   4.485  13.010  0.3973 -0.0302  0.2020
12716W        W28333   3.740   0.078  12.839 -0.1537  0.0289 -0.2619
12717W        W28334   3.800  17.254  13.568 -0.0757 -0.0258 -0.3461
12718W        W28335  13.870   2.136   0.425  0.0382  0.0709  0.0520
12719W        W28336   2.948   3.542   2.542 -0.0614 -0.1538 -0.0650
12720W        W28337   2.408   1.504  14.378 -0.1356 -0.2426 -0.0027
12721W        W28338  16.504   4.936   4.111  0.1524 -0.0089 -0.0723
12722W        W28339  17.576  14.254  13.154  0.2060 -0.0323 -0.0234
12723W        W28340   8.456   8.045   3.399  0.2196 -0.2049 -0.0839
12724W        W28341  12.560   4.261  13.882 -0.1714 -0.0879  0.0377
12725W        W28342   4.867  15.193   0.801  0.1994 -0.2112  0.0860
12726W        W28343   9.170   6.303  12.745 -0.0192 -0.1466 -0.3229
12727W        W28344   9.762  17.361   4.475  0.2342 -0.1931  0.0441
12728W        W28345   6.482  10.363  13.884 -0.0110 -0.0538  0.1849
12729W        W28346   8.662   9.408   6.190  0.0664 -0.2483 -0.0043
12730W        W28347  11.836   5.420  13.843 -0.0274  0.1426 -0.0270
12731W        W28348  16.339  10.780   4.809  0.1586  0.2166  0.0644
12732W        W28349  17.318  11.583  13.779 -0.0805 -0.1069 -0.1116
12733W        W28350   3.061   6.586  12.931  0.2447 -0.2134  0.4072
12734W        W28351   7.045   6.139   3.628  0.0676 -0.0250 -0.1726
12735W        W28352  12.205  14.644   1.913 -0.2712 -0.0633 -0.0874
12736W        W28353   0.365  14.474   1.961  0.0443 -0.0859 -0.1718
12737W        W28354  12.972   0.128   3.375 -0.1016 -0.1360  0.4022
12738W        W28355  11.035  14.562  13.628  0.4190 -0.1568  0.1150
12739W        W28356   1.087   3.520  12.249 -0.0749 -0.3098 -0.0616
12740W        W28357  17.527   7.093  15.348 -0.1820  0.1180 -0.1574
12741W        W28358   8.629  17.142  14.141 -0.4442  0.2527 -0.2485
12742W        W28359   0.608   6.947   1.004  0.3342  0.0688 -0.2662
12743W        W28360   0.536  12.082   5.031  0.0023  0.1653 -0.0733
12744W        W28361   4.961  13.715  16.256 -0.0634 -0.1455 -0.1352
12745W        W28362   0.310  11.173  17.273  0.0199 -0.1821  0.1225
12746W        W28363  11.288   5.843  15.130  0.1348  0.0550  0.0080
12747W        W28364   6.090  13.232  15.753  0.3367  0.0388  0.0029
12748W        W28365   6.609   9.815   0.086 -0.2282  0.0303  0.0319
12749W        W28366   0.326  15.147  12.742  0.2981  0.1078  0.1108
12750W        W28367  10.669   5.909  12.179  0.0646 -0.3079  0.2046
12751W        W28368   7.101  16.138  14.271  0.0973 -0.1434 -0.1210
12752W        W28369  14.454   7.156   2.825  0.4021 -0.1164  0.1940
12753W        W28370   7.326   0.340   4.373 -0.3748 -0.2603  0.1922
12754W        W28371   8.095  14.394  12.171  0.1465  0.0231  0.0699
12755W        W28372  14.677  11.601  12.799 -0.1106 -0.0910  0.0835
12756W        W28373  16.901   9.574  14.080 -0.0406  0.1274  0.0419
12757W        W28374  16.982  17.124  16.333 -0.1060 -0.2159 -0.1266
12758W        W28375  14.731  16.939  15.161 -0.2443 -0.0078  0.1416
12759W        W28376   6.083  15.183   2.219 -0.1841 -0.1040 -0.3395
12760W        W28377  13.745   3.942   0.207  0.1392 -0.0052  0.0536
12761W        W28378   6.339  14.182   1.544 -0.1879  0.0761 -0.0458
12762W        W28379   3.212  11.828  14.305  0.0962 -0.1411 -0.1889
12763W        W28380  11.733  14.646   2.521 -0.0177  0.2029 -0.1725
12764W        W28381  14.108  11.647  16.819  0.1746  0.1119 -0.2137
12765W        W28382   8.179  14.668  11.761  0.0584 -0.3939 -0.1006
12766W        W28383   2.908   6.565  16.586  0.1540 -0.2355 -0.1017
12767W        W28384  14.780   1.159  15.090  0.1117  0.0879  0.1634
12768W        W28385  11.302  10.992  17.121  0.2368  0.2732 -0.2834
12769W        W28386  10.656   7.055   2.176 -0.0469 -0.2089 -0.0054
12770W        W28387  12.196   7.409   4.580  0.0101 -0.1455  0.0634
12771W        W28388   8.572  11.148   0.590 -0.3060 -0.1356  0.1825
12772W        W28389  17.519   8.007   2.189  0.0259  0.1034 -0.1121
12773W        W28390   0.143  15.046  14.955 -0.1925 -0.1644  0.0601
12774W        W28391   2.389   5.242  14.941  0.1089 -0.0181 -0.4034
12775W        W28392   3.196  16.807  11.994 -0.3056 -0.1081 -0.0809
12776W        W28393   4.254   8.723   6.058 -0.0266 -0.1507  0.2465
12777W        W28394   9.045   3.302  16.185 -0.3018 -0.3858 -0.1862
12778W        W28395   5.973   1.445  13.438  0.1686 -0.0919 -0.0117
12779W        W28396  15.930  15.947  17.096 -0.2044 -0.0253 -0.0938
12780W        W28397   5.011   5.121   2.296 -0.1572  0.0949  0.1461
12781W        W28398  11.722   7.342   0.451 -0.0998  0.0674  0.2436
12782W        W28399  11.144   1.155   3.462  0.0370 -0.1292  0.0388
12783W        W28400  16.531   9.720   0.300 -0.0004  0.1759  0.3684
12784W        W28401  14.009   7.083   0.820  0.0288 -0.1006 -0.2853
12785W        W28402   3.637   5.552   6.564  0.0139  0.0848 -0.0946
12786W        W28403   3.734  10.651  14.357  0.2068  0.3158  0.1716
12787W        W28404   3.854  13.545   0.110  0.1860  0.0150 -0.0031
12788W        W28405  15.194  14.388   4.487  0.2063 -0.0337 -0.2481
12789W        W28406   0.213  17.287   4.749 -0.1758 -0.2681 -0.3251
12790W        W28407   1.811   1.341   6.669  0.1705 -0.2021  0.1487
12791W        W28408   3.760   1.253  14.490 -0.0743 -0.0826 -0.2903
12792W        W28409  11.813   6.162  16.092  0.3426 -0.0330  0.2632
12793W        W28410  13.870   0.019  12.404 -0.2318 -0.2928  0.1097
12794W        W28411   3.062  10.984   2.077  0.3332 -0.1053 -0.0779
12795W        W28412   9.156  13.089   1.913 -0.0985 -0.1198 -0.2714
12796W        W28413  15.155   5.352  14.000  0.3041 -0.1630  0.2664
12797W        W28414  11.374   0.415   3.997  0.1473 -0.0715  0.0032
12798W        W28415   5.706   4.176  14.795 -0.1854 -0.0293 -0.1892
12799W        W28416   7.872  13.233   2.354 -0.0216 -0.1526  0.0002
12800W        W28417   6.832  13.849   0.180  0.2037  0.0530 -0.2103
12801W        W28418   9.422   0.966   1.254 -0.0785  0.2468 -0.2274
12802W        W28419   2.106  10.510  16.076  0.2824 -0.0936  0.0869
12803W        W28420   2.747   7.419   1.475  0.1092 -0.2240 -0.1250
12804W        W28421   0.269   4.516   5.691  0.2014  0.0189 -0.3127
12805W        W28422   9.742   4.856   3.020  0.0643 -0.3317  0.1945
12806W        W28423   0.439   5.394   4.129  0.0686 -0.3484  0.0322
12807W        W28424  13.350   8.293   3.904  0.3289  0.0779  0.0367
12808W        W28425   6.963  13.177   5.698  0.2695  0.1492  0.2540
12809W        W28426   6.694   8.111  12.599  0.2155 -0.3618  0.1357
12810W        W28427   5.452   2.951  17.172  0.4294 -0.1808 -0.0972
12811W        W28428   0.387  16.934  13.771 -0.2104  0.1214 -0.2409
12812W        W28429   4.761   7.851  16.909  0.1775 -0.1906  0.0838
12813W        W28430   7.797  11.279   3.337 -0.2078  0.1359 -0.2201
12814W        W28431   3.669   6.200  16.037 -0.0403  0.0107  0.1247
12815W        W28432  10.879   2.153   1.564 -0.0917 -0.0305  0.2843
12816W        W28433  11.826   0.184   1.406 -0.1047  0.2482  0.0359
12817W        W28434   7.938  10.316   2.365  0.1610  0.2661  0.0004
12818W        W28435   8.770   4.646   3.433  0.0067 -0.0443 -0.1618
12819W        W28436   9.753   9.927  14.703  0.1308  0.2319 -0.0825
12820W        W28437   1.164  10.311   5.556 -0.0154 -0.0537  0.0671
12821W        W28438  11.451  10.320   1.163  0.2923 -0.0912 -0.1871
12822W        W28439  15.742   3.309  12.618  0.0855  0.2396  0.0813
12823W        W28440  11.601  16.737   0.543  0.1253  0.0182 -0.0697
12824W        W28441  16.902  16.516   4.049 -0.0527 -0.0538  0.1158
12825W        W28442   3.787   1.088   6.681  0.1575 -0.1775  0.1646
12826W        W28443   5.160  15.839   1.456  0.1204  0.1083  0.1703
12827W        W28444  17.017  13.271  13.587 -0.0115 -0.0155  0.2154
12828W        W28445   1.430   7.188   5.214 -0.0404 -0.0218  0.0746
12829W        W28446  12.905  12.982  11.727  0.0269 -0.2392  0.0488
12830W        W28447   3.782   5.187   6.219  0.0950  0.1736 -0.1242
12831W        W28448  16.692  15.902   0.803 -0.2968  0.2465 -0.0435
12832W        W28449   1.818   1.951  12.675  0.1745  0.1525 -0.0958
12833W        W28450  13.930   2.537  16.915  0.2434 -0.1560  0.2915
12834W        W28451   4.359   6.749   2.410  0.0201 -0.1067 -0.5132
12835W        W28452   4.963   2.252  13.791  0.2470  0.0255  0.1233
12836W        W28453   9.338   3.220   0.673 -0.0127  0.0311 -0.1469
12837W        W28454   1.919   5.565  14.406 -0.1354  0.0811  0.0468
12838W        W28455  10.177   2.391   2.204 -0.0260  0.1363 -0.0164
12839W        W28456  15.779   9.023  11.981  0.2655 -0.1639  0.0379
12840W        W28457  15.208   8.077   2.454  0.0051 -0.2226 -0.2994
12841W        W28458  17.342  13.451   5.036 -0.3012  0.1608 -0.0183
12842W        W28459   7.637   9.985   3.763  0.0004  0.0520 -0.0798
12843W        W28460   1.868   3.542   1.258  0.1430 -0.0137 -0.0181
12844W        W28461   9.013   0.587  15.227 -0.2446  0.2661  0.0285
12845W        W28462  11.635   9.085  13.223 -0.0922 -0.1246  0.0320
12846W        W28463   2.010  14.897  15.166 -0.2054 -0.0913 -0.0465
12847W        W28464   5.330   3.156  14.701  0.0188  0.4711 -0.0433
12848W        W28465   4.397  10.617  17.229 -0.0315  0.2874 -0.0701
12849W        W28466   2.277   2.246  15.198 -0.3396 -0.2786  0.2829
12850W        W28467  13.684   6.203   4.141 -0.0774 -0.1078  0.2063
12851W        W28468  11.954  14.553   3.754 -0.0277 -0.1001 -0.1744
12852W        W28469  14.520  14.203   2.551 -0.2052 -0.0412  0.0475
12853W        W28470   9.888   7.862  16.298  0.0015 -0.0656  0.2420
12854W        W28471   1.088   2.413   2.314  0.0483  0.0395  0.0859
12855W        W28472  11.683  12.778  13.456 -0.0237  0.1221  0.1107
12856W        W28473   1.355  16.903   2.863 -0.2109  0.0437  0.0175
12857W        W28474   3.768   3.290   1.095 -0.1129  0.0533 -0.1525
12858W        W28475  11.143  12.638  15.126  0.2377 -0.0000  0.3646
12859W        W28476   7.621   0.326  15.060  0.0746 -0.0701  0.1426
12860W        W28477   3.015   2.509  17.253  0.3369 -0.1304 -0.0469
12861W        W28478   5.760   6.474   0.289  0.0043  0.0701  0.0119
12862W        W28479  15.330   8.290  16.086 -0.0085 -0.2320 -0.2685
12863W        W28480   5.433   5.035   0.190 -0.1248  0.1473  0.2337
12864W        W28481   1.912  10.007   0.621 -0.2923  0.0657  0.0950
12865W        W28482   4.250  16.045   4.627  0.0679  0.0184  0.0047
12866W        W28483  17.130   4.789   5.256 -0.1858  0.2077  0.1043
12867W        W28484   1.136   0.021   3.317 -0.2843 -0.0677 -0.2302
12868W        W28485   6.538   4.847  14.243 -0.1830  0.1215  0.3814
12869W        W28486  14.715   5.112  15.448 -0.0359 -0.0315  0.0913
12870W        W28487   2.045   3.019  14.784  0.2653  0.1226 -0.2386
12871W        W28488   8.166   2.319   2.234  0.2518 -0.1468 -0.0212
12872W        W28489   2.508   8.507   2.929 -0.0463 -0.0416  0.0578
12873W        W28490  17.454   3.189  13.861  0.1492 -0.0521 -0.0198
12874W        W28491  13.044   8.273   4.438  0.1858 -0.2110  0.0943
12875W        W28492  12.787  10.907  12.314  0.4221 -0.1235 -0.0245
12876W        W28493   8.888  15.568   5.129 -0.2197 -0.1284 -0.3385
12877W        W28494   8.709   9.612   1.220  0.1916  0.0620 -0.0283
12878W        W28495   3.456   3.180   4.976  0.1227 -0.1638  0.1239
12879W        W28496   5.238   0.667   4.258 -0.0623  0.2662 -0.2890
12880W        W28497  16.580   4.511   1.866  0.2670  0.0647 -0.2507
12881W        W28498  14.770  11.418  13.350  0.2187 -0.2197 -0.2793
12882W        W28499   7.677  11.287  14.631  0.0572  0.2290  0.1116
12883W        W28500  11.076  13.998  16.280  0.0055 -0.2123  0.2825
12884W        W28501   8.866   8.988   0.448 -0.0243 -0.1704 -0.0368
12885W        W28502  12.442  16.091   4.102  0.1321  0.1299 -0.3681
12886W        W28503  16.087  14.201   1.875  0.0533 -0.0480 -0.1532
12887W        W28504   5.690   8.566   0.506 -0.0157 -0.0782 -0.0155
12888W        W28505   1.552   3.824   2.733 -0.4029  0.3160 -0.1320
12889W        W28506   4.899  12.626   0.487 -0.2586 -0.2639  0.1268
12890W        W28507   0.346   6.263  12.922 -0.0732 -0.0821  0.0595
12891W        W28508  12.396   6.410  17.202  0.0035 -0.0518 -0.0698
12892W        W28509   4.201   0.141  16.453  0.3048  0.0516 -0.0293
12893W        W28510   5.296   4.940  14.721  0.1137  0.0191 -0.0319
12894W        W28511  10.271   5.088   0.266  0.0078  0.2425  0.2556
12895W        W28512   7.565   6.764  16.115  0.1559  0.0017 -0.1111
12896W        W28513   2.214  15.885   5.451  0.0898  0.1352  0.0626
12897W        W28514   2.027   8.347  16.678 -0.2548  0.1407 -0.1210
12898W        W28515  14.502   3.217  14.433 -0.3341  0.3226 -0.0292
12899W        W28516   0.487   2.564   0.506 -0.0553 -0.3531  0.0811
12900W        W28517  15.783   8.158   2.444 -0.3823  0.1524 -0.4585
12901W        W28518   7.262   2.207  13.180  0.3171  0.1753 -0.2021
12902W        W28519  12.445   7.843  17.275 -0.1163  0.1279 -0.1342
12903W        W28520  14.585   9.600  14.527  0.0819 -0.2743 -0.1237
12904W        W28521   9.803  15.447   1.383  0.1136 -0.1053 -0.0266
12905W        W28522   5.952  15.007   5.410 -0.1759  0.0769 -0.3930
12906W        W28523   4.746  12.636  13.544  0.2184 -0.1427 -0.5188
12907W        W28524  13.442   5.911   5.889 -0.0590 -0.0961 -0.1708
12908W        W28525  11.390   3.788   5.654 -0.1825 -0.0694  0.5288
12909W        W28526   9.386  11.792  13.903 -0.0969 -0.0055  0.0639
12910W        W28527  12.886  10.662  15.312  0.1614 -0.1190 -0.2569
12911W        W28528   1.690  17.281  15.978 -0.1441  0.2666 -0.0680
12912W        W28529   0.586   2.802   1.576  0.2603  0.0812  0.2743
12913W        W28530  12.217  17.542  15.652 -0.3061  0.0631 -0.1444
12914W        W28531   3.755  13.939   5.555  0.1391  0.0101 -0.1307
12915W        W28532   3.856   9.055  16.940  0.5547  0.0782 -0.3958
12916W        W28533   8.547   2.628   4.078 -0.2345 -0.1745  0.0854
12917W        W28534   7.809   5.939  14.696  0.0369 -0.0180  0.0717
12918W        W28535  10.965  12.312  13.794  0.2941  0.0745 -0.0193
12919W        W28536   9.942  16.237  16.858 -0.3443 -0.0927 -0.1320
12920W        W28537   8.878   9.736  15.017  0.2588 -0.2242  0.1363
12921W        W28538   6.451  12.412   0.672  0.1341 -0.0951 -0.0104
12922W        W28539  15.723   0.285   3.342  0.3241  0.1079  0.0804
12923W        W28540   5.865  12.735   5.102 -0.2224 -0.0748 -0.1902
12924W        W28541  16.481   7.694   3.834  0.4645  0.1021  0.1098
12925W        W28542   2.699   6.551   1.887 -0.0183 -0.0640  0.0848
12926W        W28543  12.558   7.008   1.479 -0.2236  0.0147 -0.0338
12927W        W28544  13.143   5.429   5.071  0.1095 -0.2637  0.0168
12928W        W28545   8.710   9.589  14.592  0.3783  0.0903  0.1785
12929W        W28546  16.079   1.138  15.293  0.1835 -0.0130  0.0333
12930W        W28547   1.529  10.078  16.456  0.1413  0.0103 -0.0703
12931W        W28548   6.379   8.566  14.009  0.0928 -0.2409 -0.2206
12932W        W28549  10.273   7.003  15.991 -0.1506  0.1235  0.0854
12933W        W28550   0.329  10.435  14.830 -0.1573  0.0745  0.1187
12934W        W28551  11.199   9.965  12.115 -0.3858  0.0760 -0.1055
12935W        W28552   1.884   5.391   2.637 -0.0990  0.1142  0.2525
12936W        W28553  13.625   8.181  13.186  0.0393 -0.3131 -0.0527
12937W        W28554  14.872   6.144   0.544  0.2552 -0.2503  0.1576
12938W        W28555   3.184  13.070   2.187 -0.1384  0.2242 -0.0940
12939W        W28556  16.383   8.555  12.843  0.1924 -0.1054  0.0316
12940W        W28557   5.197   8.460   1.285 -0.0579  0.0575  0.1387
12941W        W28558   3.070   5.527   4.391  0.0700  0.0728  0.1836
12942W        W28559   0.729  16.868   3.613 -0.2394 -0.0671 -0.4949
12943W        W28560   6.545  14.674   1.720  0.0296  0.2238  0.1649
12944W        W28561   6.790   3.911  16.308  0.1723  0.1730 -0.3239
12945W        W28562   6.573   9.882   4.566 -0.1795 -0.0347  0.1885
12946W        W28563   4.268   2.370   0.266 -0.1184 -0.2966  0.0681
12947W        W28564   7.020  10.835   2.729 -0.1672 -0.0408  0.2853
12948W        W28565  15.478  11.443  13.550 -0.2474 -0.1006  0.0462
12949W        W28566   0.136   6.793  12.853  0.1517  0.0553  0.0909
12950W        W28567   1.714  10.386   2.307 -0.1763  0.0006  0.0264
12951W        W28568   0.021   0.281   2.021  0.0739  0.0055  0.0809
12952W        W28569   9.484   4.986   0.031 -0.1701 -0.1598  0.0352
12953W        W28570  17.557  11.399  12.963 -0.0542 -0.1861 -0.0692
12954W        W28571   0.588   8.214  12.058  0.2640 -0.2174 -0.1357
12955W        W28572  10.712   1.289   3.263  0.2416  0.1983 -0.0693
12956W        W28573   7.791  13.743  13.017 -0.3902  0.0194  0.2089
12957W        W28574   8.626   7.479   0.327  0.2606 -0.0066  0.0620
12958W        W28575   5.977  15.173  14.378 -0.0813  0.0294 -0.0368
12959W        W28576  12.815  13.288  14.983  0.0298  0.1940  0.0459
12960W        W28577  15.287  15.407   2.544  0.2031 -0.2305 -0.1301
12961W        W28578   9.249   6.764  16.322  0.1074 -0.2388 -0.1655
12962W        W28579   1.959   1.351  14.154 -0.0861  0.0510 -0.1231
12963W        W28580  12.448   5.270  14.591  0.0140  0.1422  0.3935
12964W        W28581  13.270   8.976  14.184  0.3757  0.0693 -0.1709
12965W        W28582   8.476   6.206  16.540  0.1878  0.1651  0.2391
12966W        W28583  10.961   6.305  12.146 -0.1319 -0.0642 -0.0233
12967W        W28584   8.636   2.562   2.381 -0.0027  0.2505  0.0531
12968W        W28585   1.272  11.719   5.895 -0.1604 -0.0878  0.0465
12969W        W28586  12.131  14.730  16.821 -0.0430 -0.4116 -0.2253
12970W        W28587   0.455  11.310   2.539  0.0912  0.0693 -0.2719
12971W        W28588   3.087   7.879  16.301  0.0190 -0.0588  0.0122
12972W        W28589   3.625   7.423  15.471 -0.2284 -0.2519  0.1512
12973W        W28590   0.386  13.133   4.660  0.0739 -0.0609  0.2065
12974W        W28591  12.014   4.446   1.929  0.2104 -0.3123 -0.0502
12975W        W28592   6.572  10.742   2.464 -0.1291 -0.0861 -0.4945
12976W        W28593  11.181   8.674   2.489  0.0632 -0.4509 -0.1596
12977W        W28594   0.384  10.242  13.333  0.0117 -0.2679 -0.0433
12978W        W28595  10.877   3.417  16.151  0.0890  0.0522  0.0091
12979W        W28596  11.494   2.016   5.616  0.0054  0.0085 -0.0840
12980W        W28597   3.109  14.299   0.699  0.3231 -0.1421 -0.3399
12981W        W28598  14.581   5.299   0.785 -0.1660 -0.3382  0.0451
12982W        W28599   9.854  11.010  17.193 -0.1930 -0.1917  0.1647
12983W        W28600  13.447   0.198   3.265  0.0868  0.1872 -0.1628
12984W        W28601   9.463  16.180  13.501 -0.0436  0.0311  0.0200
12985W        W28602  11.068  11.011   0.291  0.0129 -0.0154  0.2364
12986W        W28603  10.642   6.096   1.170  0.2685 -0.0897 -0.1108
12987W        W28604   8.273  17.178  17.217 -0.0952  0.2076 -0.2650
12988W        W28605  16.461   3.114  12.284  0.0509  0.1290  0.0864
12989W        W28606   7.099   0.749   4.503  0.0755 -0.1053  0.2737
12990W        W28607  14.959   1.278  16.476 -0.1330  0.0286  0.0602
12991W        W28608   2.935   1.326  16.541  0.1437 -0.0946 -0.1390
12992W        W28609  15.811   3.494   4.712 -0.0096  0.0379 -0.1351
12993W        W28610   8.251  12.109  12.219  0.0108 -0.0160 -0.0069
12994W        W28611   9.778   5.660   5.680 -0.1608 -0.3721  0.3866
12995W        W28612  15.060   0.149   0.094  0.3371 -0.0514  0.1992
12996W        W28613  17.522   9.326   4.379  0.3642  0.1175  0.1389
12997W        W28614  14.725   6.695   6.123  0.0631  0.0886  0.0162
12998W        W28615   3.065   7.444  14.200  0.1801 -0.0297  0.1767
12999W        W28616   7.206   9.268   4.848 -0.2715 -0.1692  0.3631
13000W        W28617  14.765  14.144  15.289  0.0425 -0.2587  0.0962
13001W        W28618   2.005   3.763  12.734 -0.1731 -0.1484  0.0103
13002W        W28619   0.021   9.832   0.086  0.2868 -0.0733  0.0887
13003W        W28620  13.521   0.951  14.609 -0.1664 -0.1898  0.1651
13004W        W28621   1.513  16.238  12.422 -0.3257 -0.1421 -0.1240
13005W        W28622  15.243   4.400  15.248  0.0689  0.1150 -0.1180
13006W        W28623   2.626   3.273  12.375  0.1908 -0.1261 -0.0039
13007W        W28624  10.583   4.533  14.910  0.2720  0.3209 -0.1049
13008W        W28625  11.514   1.206   0.885  0.1939  0.1624 -0.0293
13009W        W28626  12.648   9.709   1.745  0.1779  0.1134  0.0699
13010W        W28627   8.944  13.946  13.868 -0.0361 -0.2629 -0.0906
13011W        W28628   6.132   2.565   2.982  0.2070  0.2694 -0.2501
13012W        W28629  12.795  10.144  16.725 -0.3300 -0.1474  0.1399
13013W        W28630  12.506   9.239  16.540  0.0899  0.0923 -0.1609
13014W        W28631   5.915   2.303  11.929 -0.0522  0.0459  0.1494
13015W        W28632  10.168   7.566   0.593  0.1886  0.0366  0.2039
13016W        W28633   5.429   3.155  12.787 -0.0309 -0.1320 -0.1919
13017W        W28634   1.938   4.441  14.767  0.1124  0.0990 -0.1462
13018W        W28635  15.571   3.457  13.625 -0.2413 -0.3323  0.0993
13019W        W28636   4.057  12.564   4.313  0.1375 -0.2037 -0.0393
13020W        W28637   1.013   9.823  15.063 -0.1073 -0.2562 -0.1925
13021W        W28638   0.527   8.178   1.287 -0.0261  0.2525 -0.0378
13022W        W28639  15.714  15.553  13.721  0.1724 -0.0477  0.3225
13023W        W28640  15.618   2.269   2.004  0.2332  0.1285 -0.1102
13024W        W28641  15.540   0.798   3.346 -0.2333  0.0420  0.0844
13025W        W28642  17.194  12.827  16.843 -0.1690 -0.0905 -0.0188
13026W        W28643   2.754  12.275   6.431 -0.1839  0.0079 -0.3794
13027W        W28644   1.756   2.015  15.713 -0.1511 -0.1037 -0.0220
13028W        W28645   9.773  14.049  11.650 -0.0984 -0.0866 -0.0576
13029W        W28646   2.097  11.214  15.794 -0.1044 -0.0081 -0.2936
13030W        W28647  14.711  15.554  13.944 -0.0500 -0.3111 -0.1185
13031W        W28648   1.679  10.771  14.206  0.4128 -0.1192  0.2068
13032W        W28649   4.404  10.922   2.492  0.0275  0.1847  0.2339
13033W        W28650  13.317   1.406  16.197 -0.0947  0.0062  0.1406
13034W        W28651   9.667  11.280   2.392  0.1388  0.1213 -0.2566
13035W        W28652   8.177  14.948  13.052  0.2340 -0.0776 -0.0445
13036W        W28653  14.239   9.320   4.811  0.2608 -0.1193 -0.0060
13037W        W28654  12.707   7.789   2.922  0.1244 -0.5778  0.1462
13038W        W28655  13.101   0.652   3.299 -0.2371  0.1605  0.1439
13039W        W28656   7.024   8.872  15.420 -0.1332  0.2114 -0.3587
13040W        W28657  12.876  15.062   3.670  0.2739 -0.0504  0.1520
13041W        W28658   6.683  13.626  16.221  0.0583  0.1291 -0.1589
13042W        W28659  13.467  13.845  11.953 -0.2810  0.1707 -0.3766
13043W        W28660  15.723  10.665   0.476  0.1409 -0.0943 -0.1069
13044W        W28661  12.326   6.500  15.502 -0.2577  0.2349  0.2863
13045W        W28662   3.674   5.359   5.188 -0.1137  0.2075  0.0457
13046W        W28663  10.870   2.645  15.795 -0.1222  0.0890  0.6070
13047W        W28664  12.084   5.787  14.766 -0.1383  0.0897  0.0140
13048W        W28665  11.769   7.134  12.021  0.3012  0.1115  0.0731
13049W        W28666  13.817  12.817  11.525 -0.4372 -0.0731  0.0973
13050W        W28667   7.425  14.172  13.064 -0.1452  0.2553 -0.1960
13051W        W28668  14.572  17.431  15.082  0.2430  0.1467  0.0858
13052W        W28669  14.771   9.160  12.861  0.0892  0.0395 -0.0887
13053W        W28670  13.312  14.337  11.965  0.1302 -0.0891  0.1521
13054W        W28671  15.589  13.772   3.498 -0.0594  0.0769  0.1118
13055W        W28672  16.916   3.363  12.374  0.2038 -0.1246 -0.1371
13056W        W28673   0.081   0.576  16.920  0.1394 -0.0918  0.0972
13057W        W28674   2.592  16.306   1.077  0.2293 -0.4569 -0.0716
13058W        W28675   9.684   5.158  15.694 -0.1083 -0.1749  0.0132
13059W        W28676   9.686   6.572  16.148  0.1208  0.0394 -0.1054
13060W        W28677   1.296   2.196   6.615  0.2009 -0.0189 -0.2248
13061W        W28678   0.106   9.056  14.432  0.0081 -0.1530 -0.3029
13062W        W28679   1.000   5.070   3.123  0.2979 -0.0166  0.1209
13063W        W28680  10.366  11.550   1.411  0.1554 -0.3279 -0.0533
13064W        W28681   1.123   9.529   2.111 -0.2365  0.1301  0.0955
13065W        W28682   1.365   5.587   1.398 -0.0868 -0.2017 -0.1439
13066W        W28683  11.167   3.766   4.831 -0.1914 -0.0351 -0.0318
13067W        W28684   1.633   1.305  12.594  0.1964 -0.0819 -0.0840
13068W        W28685  14.204   6.343  17.294  0.0969  0.4092 -0.3050
13069W        W28686   7.344  11.136   5.267  0.0245 -0.0812 -0.3380
13070W        W28687  10.526   4.205  15.348  0.0585  0.0824  0.1012
13071W        W28688  17.255   5.053  12.301  0.1914 -0.1232  0.1757
13072W        W28689  12.741   6.832   2.668  0.1466  0.1332  0.1572
13073W        W28690   4.476   1.647   1.291 -0.1986  0.3330 -0.1351
13074W        W28691   1.613  10.518  16.263  0.0825  0.0936 -0.2126
13075W        W28692  14.513   2.028  15.988  0.0250  0.3436  0.4561
13076W        W28693   1.513  14.157   3.542 -0.4382 -0.1154 -0.1421
13077W        W28694  10.074   9.345   5.836 -0.0871  0.1051  0.1052
13078W        W28695  14.413  17.518  12.922 -0.1216  0.0906  0.0229
13079W        W28696  14.382   8.923   2.120 -0.1648 -0.0895  0.1018
13080W        W28697   7.455  10.384   4.112  0.2861  0.1197  0.0133
13081W        W28698  17.216   0.439   3.382 -0.3704 -0.2102 -0.3132
13082W        W28699   2.508   1.416  12.844  0.3057  0.1386 -0.0525
13083W        W28700   8.800   1.320  13.150  0.2175 -0.0278 -0.1225
13084W        W28701   5.811  17.577   3.386  0.1388  0.1191 -0.1491
13085W        W28702  11.303  10.519  12.548 -0.1479  0.0991  0.0823
13086W        W28703   0.750   4.678   2.177  0.1413  0.3493 -0.1362
13087W        W28704  17.330   7.415   0.311 -0.0780 -0.1946  0.1251
13088W        W28705   1.989  16.189  12.546  0.0559 -0.0074  0.0038
13089W        W28706   9.560   5.870  12.758  0.1442  0.2037  0.1969
13090W        W28707  11.189  16.688  12.171  0.1377 -0.0858  0.1350
13091W        W28708   7.329   8.225   4.065  0.0617 -0.0698  0.1544
13092W        W28709  13.013   9.675  15.230  0.1634 -0.2282 -0.0265
13093W        W28710   6.755   5.896   3.298 -0.3630 -0.0253  0.2085
13094W        W28711  16.021   1.453  16.907  0.3608  0.0852  0.0675
13095W        W28712   7.700  16.594   3.693 -0.2416  0.0305  0.2773
13096W        W28713  16.478   1.293   0.474  0.1750  0.2355  0.1441
13097W        W28714  15.037   9.650  13.661  0.0842  0.0150  0.0128
13098W        W28715  17.601  16.183  16.089  0.0545 -0.3478 -0.0575
13099W        W28716  15.009   6.553   0.099 -0.2727  0.0002  0.2638
13100W        W28717  16.717  14.860  16.356  0.1788  0.1779  0.0509
13101W        W28718  12.178  14.827   3.219  0.1249  0.0675 -0.2499
13102W        W28719   5.674   1.742   0.352  0.0846  0.2130  0.0778
13103W        W28720   1.812   1.300   5.029  0.0878  0.4802 -0.3685
13104W        W28721   0.018   8.605  15.297  0.0081  0.2201  0.0681
13105W        W28722   1.171   6.285  16.262 -0.0909 -0.0105 -0.0422
13106W        W28723  12.896   8.384   3.077  0.0257  0.0147  0.2665
13107W        W28724   5.114   6.992  16.036 -0.1751  0.0238  0.0059
13108W        W28725   3.429  10.900   4.705  0.2589 -0.1181  0.2898
13109W        W28726   8.415  12.453   0.449 -0.0835  0.0411 -0.1069
13110W        W28727   3.829   2.492   0.546 -0.0413  0.1098 -0.1738
13111W        W28728   1.422  12.895   5.064 -0.0935 -0.0062  0.1746
13112W        W28729  10.586  12.468  14.259 -0.0509 -0.1967  0.0327
13113W        W28730  13.303  14.629  15.353 -0.1675 -0.0109  0.3350
13114W        W28731  10.390   1.091  16.109  0.1561  0.0662  0.2788
13115W        W28732   8.210   3.837  15.450 -0.1093  0.0723  0.0966
13116W        W28733   9.058  16.628  17.209  0.0302  0.2153  0.0178
13117W        W28734  10.189   0.432   4.695  0.2496  0.0944  0.0078
13118W        W28735   9.616   2.539   2.161 -0.2157  0.0172  0.1400
13119W        W28736   3.139  13.125  17.174  0.1627  0.0615 -0.0599
13120W        W28737   1.767   3.041   5.211  0.0801  0.1022  0.0583
13121W        W28738   8.588   3.796   3.400 -0.1489 -0.0850  0.1721
13122W        W28739  11.462   5.059   3.522 -0.1137  0.0362 -0.1844
13123W        W28740   0.598  16.727   1.306  0.2141 -0.0711 -0.2495
13124W        W28741   1.846  12.585   3.717 -0.0424 -0.1396  0.0434
13125W        W28742  16.735   4.500   0.662  0.0686 -0.1666  0.0717
13126W        W28743  12.543   9.570  15.849 -0.4010  0.0346 -0.2669
13127W        W28744  11.671   9.098  16.028  0.0527  0.3145  0.3500
13128W        W28745  16.209   8.091   1.627 -0.2911  0.3440  0.0650
13129W        W28746   3.641   1.492   5.873 -0.0365  0.1520  0.1788
13130W        W28747   8.805   4.374   4.761  0.0210 -0.2945  0.0910
13131W        W28748  12.748   8.662   1.452 -0.0860  0.1812  0.0882
13132W        W28749  12.053   3.227   5.648 -0.1298  0.1904  0.1511
13133W        W28750  17.536  11.833   2.419  0.1226 -0.0254 -0.0096
13134W        W28751   7.049   1.202  11.815 -0.2018 -0.0501 -0.2115
13135W        W28752   6.577   0.364  15.886 -0.0691  0.0494  0.4355
13136W        W28753   0.631   1.478   4.090 -0.0229 -0.1050 -0.0603
13137W        W28754   4.157   2.165  15.568 -0.4672 -0.2719  0.1520
13138W        W28755  13.414   1.866   0.205  0.1656  0.1079  0.0738
13139W        W28756  14.971   5.043   2.770 -0.0612 -0.3150  0.3622
13140W        W28757   6.634  10.544   1.933  0.1684  0.1409  0.0506
13141W        W28758   2.525   6.171   6.532  0.3085 -0.2453  0.0281
13142W        W28759   6.586  13.405   1.801 -0.0114  0.0030 -0.0243
13143W        W28760   3.613   4.763  12.566  0.1008 -0.1383 -0.2374
13144W        W28761   3.581  10.926  13.891 -0.1326  0.1526 -0.0348
13145W        W28762  17.218   4.550  15.485  0.0996  0.0297  0.0791
13146W        W28763  17.523  15.953  15.211 -0.1131  0.0696  0.3198
13147W        W28764  10.572  12.181   1.978 -0.1879  0.1168  0.0097
13148W        W28765  10.233   8.483   4.121  0.1034 -0.0009  0.2652
13149W        W28766   2.577  15.364  16.155  0.2034  0.0595  0.1923
13150W        W28767   9.851   3.832  16.650  0.2174  0.0127  0.2299
13151W        W28768  11.877   8.447   6.710  0.2442 -0.1908 -0.3450
13152W        W28769  15.373   6.632  12.470 -0.3126 -0.1398 -0.1419
13153W        W28770  10.291  10.588   3.861  0.3420  0.1113 -0.2290
13154W        W28771  12.925  17.078   2.201 -0.1213 -0.2740 -0.0944
13155W        W28772  13.239   9.952  16.649  0.1575 -0.1068 -0.1270
13156W        W28773   0.775   9.791   3.958  0.0238 -0.0209  0.1348
13157W        W28774   4.826   8.167  11.877 -0.3701 -0.0612  0.3234
13158W        W28775   0.708   4.914   1.021 -0.4459 -0.0098 -0.2034
13159W        W28776   0.390  17.049   2.319  0.0583 -0.1537 -0.1080
13160W        W28777   4.462  15.063  14.463 -0.0025 -0.2796 -0.0471
13161W        W28778   6.585   3.939   5.169  0.0392  0.1926 -0.2189
13162W        W28779   0.670   7.115   3.637  0.2656  0.3707 -0.0973
13163W        W28780   1.891   3.323  13.562  0.0724 -0.2922  0.1740
13164W        W28781   6.476   9.840  14.406  0.4036  0.2054  0.0902
13165W        W28782   8.505   1.408   4.910  0.0410 -0.0249 -0.3116
13166W        W28783   4.161  15.121  16.716  0.2204  0.2887  0.2004
13167W        W28784   0.947   8.156   2.412 -0.0002  0.1643 -0.1637
13168W        W28785  11.728  11.147  12.344 -0.0753 -0.2415  0.0207
13169W        W28786   9.488  15.846  15.151  0.0047  0.1278 -0.1278
13170W        W28787   6.924   4.976   0.172  0.2575 -0.0564  0.0313
13171W        W28788  10.138   2.394   2.839 -0.0659  0.1459  0.1173
13172W        W28789   5.511   0.140   5.266  0.1667 -0.0770 -0.0236
13173W        W28790  15.400   3.330   2.551  0.3516  0.1394 -0.2619
13174W        W28791  16.518  13.739   0.509 -0.1237 -0.0572 -0.0532
13175W        W28792   5.039  17.486   4.255  0.0691  0.0816  0.2888
13176W        W28793  13.708   8.845  16.293  0.1629  0.2186 -0.2147
13177W        W28794   9.913  10.794   3.008  0.0475 -0.1107 -0.1434
13178W        W28795  10.360   4.055  15.809  0.0555 -0.1517 -0.0634
13179W        W28796   1.069   1.537   2.412 -0.1865 -0.0907  0.2603
13180W        W28797   8.804  13.620   2.847 -0.1901  0.1856 -0.0574
13181W        W28798   7.637  10.352   3.431 -0.2754 -0.2943  0.0685
13182W        W28799  11.044  13.723  12.061 -0.1949  0.1869 -0.1740
13183W        W28800   5.176   0.501   5.093 -0.1727 -0.2188  0.1942
13184W        W28801   1.713   6.758  15.094 -0.4309 -0.1551  0.1984
13185W        W28802   6.390  13.912  13.431 -0.0874  0.1025 -0.0081
13186W        W28803  12.303  16.092  15.260 -0.0920 -0.0199  0.0816
13187W        W28804  17.255   9.499   2.172  0.2874 -0.1448 -0.0778
13188W        W28805   0.105  15.711  12.029  0.3700  0.4135 -0.2517
13189W        W28806  15.252  17.313  12.110 -0.2041 -0.0950 -0.1133
13190W        W28807   3.106  13.083   0.583  0.1392  0.0194 -0.0610
13191W        W28808   9.943   7.256  13.414  0.0514 -0.1166  0.0334
13192W        W28809   3.302   2.803   3.190 -0.2776  0.2441  0.3699
13193W        W28810  17.450   0.024  12.292 -0.2581  0.1279  0.2536
13194W        W28811   0.804  15.706  15.140 -0.2635  0.1192 -0.2508
13195W        W28812   4.790   9.639   2.432 -0.1430 -0.1607  0.0576
13196W        W28813   5.719  11.640  14.762  0.0211  0.2027  0.0767
13197W        W28814   8.676   6.764  13.462 -0.1836 -0.1164  0.1397
13198W        W28815  14.618   6.774  14.441  0.1944  0.0828  0.2764
13199W        W28816   5.932   5.046  16.307 -0.1161 -0.1232  0.0730
13200W        W28817  14.190  16.554   0.181  0.1370 -0.0783 -0.0525
13201W        W28818  16.081   6.581   0.210  0.3614 -0.0858  0.0329
13202W        W28819   0.895  11.387  14.946 -0.1684  0.3031 -0.0757
13203W        W28820   1.804   8.552   2.139 -0.3881 -0.0963 -0.1322
13204W        W28821   4.407   8.513   0.810  0.0360  0.1835 -0.2844
13205W        W28822   7.084   4.382   3.929  0.1145 -0.0504 -0.1636
13206W        W28823  10.219   4.059   5.335 -0.0294 -0.2333 -0.1260
13207W        W28824   3.357   0.401   4.745  0.0990  0.2085  0.1039
13208W        W28825  16.527   1.681  15.918 -0.0254 -0.4811  0.2913
13209W        W28826   9.913   0.822   5.861  0.0025  0.1332  0.1024
13210W        W28827  15.497   2.761   1.022  0.1269  0.0808  0.0786
13211W        W28828  13.766   1.270  17.134 -0.0729  0.1360 -0.1078
13212W        W28829  16.275  17.500   4.371  0.0778 -0.2828  0.1220
13213W        W28830   8.714   7.928   2.941  0.0151  0.1360  0.0652
13214W        W28831   8.014  10.271   3.001  0.4312  0.2526 -0.0522
13215W        W28832   6.807   9.111   5.066 -0.1252 -0.0310 -0.1199
13216W        W28833  10.113   6.857   5.455 -0.0854 -0.1037 -0.1039
13217W        W28834   7.665   4.858   1.423 -0.0319 -0.2131 -0.1283
13218W        W28835  11.148   3.452   0.897  0.0368 -0.0817 -0.0661
13219W        W28836  14.043  17.551  11.913 -0.0574 -0.1825  0.0803
13220W        W28837  11.045   5.509   1.575 -0.1307  0.1286  0.0467
13221W        W28838  10.925   9.543  16.402 -0.0185  0.2245 -0.0394
13222W        W28839   7.788  15.995  13.778 -0.2798  0.1331  0.0203
13223W        W28840  17.000   0.340   2.584 -0.2396 -0.3828  0.0243
13224W        W28841  10.366   6.306   2.966 -0.2793 -0.0387 -0.0248
13225W        W28842   1.307   4.269  12.852 -0.0176 -0.2761 -0.1508
13226W        W28843   7.725   8.327   2.813  0.0919 -0.0041  0.0612
13227W        W28844   8.010   2.232  14.146  0.1827 -0.2072 -0.2586
13228W        W28845   1.502   3.295   0.765 -0.1694  0.1984 -0.3263
13229W        W28846  13.087   2.028  12.928  0.1393 -0.0235  0.0371
13230W        W28847   6.614  13.833   6.052  0.1977  0.1393 -0.1392
13231W        W28848  13.215   7.754   4.025  0.2003  0.2213 -0.0607
13232W        W28849   3.142  17.308   2.103  0.1419  0.1067  0.1293
13233W        W28850   3.891   8.839   6.922  0.1043  0.1747  0.1289
13234W        W28851   4.124  13.224  14.753 -0.2876 -0.1458  0.0474
13235W        W28852   8.727  16.331   1.117 -0.0301  0.0797  0.0629
13236W        W28853  17.283   0.836   0.704  0.2999  0.1680 -0.0811
13237W        W28854   0.933   6.917   5.122  0.0746 -0.2750  0.0102
13238W        W28855  11.411  10.216   6.661  0.1736  0.0137  0.0459
13239W        W28856  15.598   8.361   0.322 -0.0990  0.1071 -0.0557
13240W        W28857  10.014  16.494  10.511  0.1067 -0.0094  0.0358
13241W        W28858   9.567   9.183   3.915 -0.1029 -0.0627 -0.1221
13242W        W28859   0.207  14.644  12.719 -0.0472  0.1473 -0.2918
13243W        W28860   1.181  17.088   2.409  0.0821 -0.1155  0.1861
13244W        W28861   4.729   9.354  16.035  0.1053 -0.2886  0.1331
13245W        W28862   5.830   9.649  16.668 -0.0007  0.0012 -0.1814
13246W        W28863  10.870   0.682   3.848  0.2201  0.0458  0.1251
13247W        W28864   6.034   8.031   0.472 -0.0015 -0.0956  0.0180
13248W        W28865   1.191  17.434   2.842  0.0642 -0.0033  0.0274
13249W        W28866  14.488  16.094  11.916 -0.1054  0.1731 -0.0578
13250W        W28867   8.078   1.190   4.213  0.0692 -0.1663 -0.1332
13251W        W28868  13.643   1.754   0.647 -0.0424  0.0168  0.1758
13252W        W28869  12.050  10.791  12.956  0.0193  0.1705  0.1546
13253W        W28870  12.313  12.104  12.986 -0.0255  0.1949 -0.0239
13254W        W28871  13.348  13.463  14.744  0.1913  0.2787 -0.0485
13255W        W28872   2.844   0.263   5.637  0.1219  0.0535 -0.2169
13256W        W28873   6.108   5.917   2.488  0.1010 -0.0871  0.1053
13257W        W28874  14.431  13.741   5.400 -0.0071 -0.0680  0.0398
13258W        W28875   9.007  16.998   4.961  0.0726  0.0273  0.1534
13259W        W28876  10.756   1.434  11.023  0.2195 -0.2381  0.1586
13260W        W28877   7.732  12.616  15.198 -0.0012 -0.2881  0.0018
13261W        W28878   0.420   9.659   6.564 -0.1001 -0.0162  0.2086
13262W        W28879   3.468   4.068  11.962 -0.2861  0.1421 -0.2280
13263W        W28880  14.922  10.892  14.896  0.0519 -0.0142 -0.0368
13264W        W28881   3.776   4.495   4.876  0.2029 -0.1749  0.0346
13265W        W28882   9.491  16.731   3.980  0.1411 -0.1612  0.1491
13266W        W28883  14.264   4.061   4.908 -0.0537 -0.1249 -0.1853
13267W        W28884  12.931  12.668  12.639 -0.2335  0.0311 -0.2377
13268W        W28885  11.103   7.638   3.028  0.0397 -0.0131  0.0726
13269W        W28886   2.368  15.071  16.477  0.0089  0.1558 -0.0071
13270W        W28887   1.909   5.094  15.163  0.0185  0.0231 -0.2726
13271W        W28888  11.616   6.846  17.254  0.1823  0.1192  0.5423
13272W        W28889   9.227  11.382  14.254  0.2357  0.0335  0.1181
13273W        W28890  17.119   1.185   1.106 -0.1021 -0.2042 -0.0424
13274W        W28891   1.770  10.290  14.346  0.1399  0.0872 -0.1741
13275W        W28892  10.821   1.784  15.998  0.1968  0.1058  0.2577
13276W        W28893  12.746   5.745   1.179  0.1412 -0.0633  0.0579
13277W        W28894  11.411   6.831   3.230 -0.0477 -0.1910 -0.3453
13278W        W28895   0.889  14.312   2.592 -0.0912 -0.1013  0.3406
13279W        W28896  14.867  12.812  15.219  0.2658 -0.1093  0.3528
13280W        W28897   2.726  11.597   0.830  0.1728 -0.0928  0.0488
13281W        W28898  11.296  10.512   0.117  0.1326  0.1133  0.2886
13282W        W28899  15.001   5.339  15.812  0.1788  0.1320 -0.0278
13283W        W28900   9.630   8.554  15.796  0.0692  0.0089 -0.1154
13284W        W28901   4.996   0.598  13.648 -0.1184  0.3551  0.0099
13285W        W28902   6.784  15.342  16.587  0.3349  0.1364  0.3189
13286W        W28903   5.828   5.774   3.786  0.0604 -0.1026  0.2064
13287W        W28904   1.200   5.777   5.430  0.1503 -0.0360 -0.2943
13288W        W28905   7.966  13.748   0.803  0.1669 -0.2249 -0.0798
13289W        W28906   3.107   3.961   1.642  0.1173 -0.0853  0.0479
13290W        W28907   6.831  15.643  16.125 -0.4693 -0.1890 -0.0387
13291W        W28908   3.315   4.515   4.612  0.0144 -0.1810 -0.1108
13292W        W28909  13.054  14.843  13.579  0.0217 -0.0435 -0.1380
13293W        W28910  16.274   2.534  14.463 -0.0313  0.1638  0.1774
13294W        W28911   4.216  14.314   2.610 -0.3304  0.2069  0.0709
13295W        W28912   4.380   5.848  15.573 -0.1762 -0.2338 -0.2814
13296W        W28913   0.397  13.842   5.519 -0.1554 -0.1016  0.1368
13297W        W28914  17.043   7.199  15.005  0.0295  0.0276 -0.0355
13298W        W28915   2.824  16.418   6.343  0.0900 -0.2374  0.0484
13299W        W28916   6.685   2.611  11.500  0.0383  0.2517  0.2290
13300W        W28917  11.157  16.872  16.869  0.0542  0.2100 -0.0297
13301W        W28918   1.391   2.482  14.006  0.1066 -0.0754 -0.0751
13302W        W28919   6.040  12.208  14.176  0.1983 -0.0163  0.0138
13303W        W28920   6.864  16.399   2.741 -0.0345  0.1947  0.2532
13304W        W28921  14.536  14.584  13.719  0.1918 -0.2122 -0.1028
13305W        W28922   6.266   3.883  16.992  0.0899  0.0067 -0.1086
13306W        W28923  14.846   4.759  16.949  0.0210  0.3022  0.0724
13307W        W28924   5.997  12.329   4.703  0.0072 -0.1032  0.3295
13308W        W28925   9.491  15.594  10.677 -0.2730  0.2346 -0.0531
13309W        W28926   4.043   0.601  11.773  0.1104  0.2001  0.0438
13310W        W28927  10.895   7.185  16.676 -0.0177 -0.0716 -0.2041
13311W        W28928   3.436   0.400  16.128  0.0716 -0.3567 -0.1809
13312W        W28929   4.346   7.204   6.435  0.0828  0.0249 -0.2294
13313W        W28930   0.118   3.382  16.270  0.2207 -0.2260 -0.0398
13314W        W28931   0.583   2.190  15.090 -0.2568  0.1283 -0.0020
13315W        W28932   5.741   5.503  12.201  0.1467 -0.1031 -0.0194
13316W        W28933  11.572  15.817  15.220 -0.2200  0.0157 -0.1241
13317W        W28934  12.835   7.424  16.397 -0.1263 -0.3370  0.1154
13318W        W28935   2.571   0.894  17.044 -0.2389  0.0822  0.0595
13319W        W28936  12.969   3.122   5.810  0.0936 -0.0981  0.0124
13320W        W28937   5.887  12.262   3.677  0.0668 -0.1169  0.2541
13321W        W28938   0.250   3.107  17.229  0.3019  0.0332 -0.0057
13322W        W28939  11.283   0.443   0.539  0.0304  0.2003 -0.0280
13323W        W28940   9.685   7.325  12.963  0.0578  0.0989 -0.1497
13324W        W28941  12.392   7.330  15.950  0.2334 -0.4225  0.0878
13325W        W28942  11.596   1.930   1.286 -0.1440  0.0156  0.2257
13326W        W28943  13.064  15.614   0.165  0.2617 -0.2604  0.2859
13327W        W28944   6.240  16.875   4.495 -0.3173 -0.1536  0.0289
13328W        W28945  13.785  11.226  15.020  0.1143 -0.0492  0.0202
13329W        W28946   7.497  10.305   2.625 -0.3609  0.1256 -0.1071
13330W        W28947  14.210   8.393  14.466 -0.0758 -0.1807 -0.2510
13331W        W28948   9.257  17.510   0.622  0.0229 -0.3429  0.0564
13332W        W28949  10.789  16.614  16.667 -0.0306 -0.1390  0.1730
13333W        W28950   3.489   2.983  11.398  0.0860 -0.1999 -0.1595
13334W        W28951  17.051  17.329  14.751 -0.1422 -0.2535 -0.2006
13335W        W28952   5.974   4.743   4.705  0.1389  0.0144  0.2746
13336W        W28953  16.664   9.163   2.719  0.1020 -0.2732 -0.1527
13337W        W28954  11.605   4.290  17.163  0.1622  0.0825 -0.0257
13338W        W28955  13.787  12.470   2.253 -0.1096  0.1879  0.3147
13339W        W28956   6.656  15.219   4.254 -0.2856  0.2721  0.2972
13340W        W28957   9.577   9.672  14.177 -0.3635 -0.0861  0.2297
13341W        W28958   7.301  15.362   2.000 -0.2573  0.2302  0.0843
13342W        W28959  11.099   8.316   3.806 -0.0853 -0.2208 -0.0114
13343W        W28960  14.693  13.193  13.862  0.2690 -0.1086 -0.1724
13344W        W28961  13.955   7.706   3.351 -0.2091  0.0539  0.2529
13345W        W28962  15.388   6.546  17.047  0.2833 -0.0999  0.0430
13346W        W28963  15.431  14.417  13.439  0.1116 -0.2096 -0.1021
13347W        W28964   7.936   8.688   5.314 -0.1450 -0.4882 -0.0268
13348W        W28965  13.126   9.314  13.169 -0.0841 -0.0675 -0.2539
13349W        W28966   0.929   0.989   0.734  0.0049  0.0290 -0.1009
13350W        W28967   6.775  10.492   5.426 -0.1136  0.0750 -0.1394
13351W        W28968  10.904  14.174  12.345  0.2576  0.1042 -0.0166
13352W        W28969  16.101  16.307  11.773  0.2348 -0.1228 -0.1493
13353W        W28970  12.355   1.796  13.181 -0.1303  0.2208 -0.0545
13354W        W28971  16.119  10.888   2.758  0.1127 -0.1002  0.0250
13355W        W28972   6.559  11.467  14.649 -0.0210  0.0331  0.3300
13356W        W28973  14.544   9.055   0.185 -0.1378  0.1287  0.0051
13357W        W28974   2.821  12.282   5.935  0.4221  0.3371  0.0600
13358W        W28975  17.297   5.342  17.113  0.1123  0.0644 -0.0635
13359W        W28976   5.819  16.159  16.665 -0.0549  0.1080  0.5909
13360W        W28977  17.415   1.084  13.083  0.1891 -0.1603 -0.0803
13361W        W28978   0.131   3.315  11.993 -0.4065 -0.0876  0.0075
13362W        W28979   7.824   2.978  12.934 -0.1597 -0.0592  0.0329
13363W        W28980  10.886   5.690  15.414  0.0319 -0.2242 -0.0293
13364W        W28981  13.054  11.929  12.265  0.0030  0.0949  0.2440
13365W        W28982   9.733   6.668  14.490  0.1763 -0.1145 -0.1740
13366W        W28983   0.252   3.781   0.624 -0.1104 -0.2588  0.2322
13367W        W28984   8.055   8.172  14.252  0.1096  0.2098 -0.2615
13368W        W28985   1.526   3.212   2.613  0.0611  0.0364  0.0658
13369W        W28986  14.163   2.463  12.456 -0.2156 -0.4239 -0.1012
13370W        W28987  14.459   6.997  12.752 -0.1801  0.1419 -0.0962
13371W        W28988   1.242   5.703  14.413 -0.1835  0.3643 -0.0673
13372W        W28989  14.839  13.804  13.965 -0.1420  0.1416 -0.0553
13373W        W28990   8.627  14.123   2.662 -0.1372 -0.2242  0.0785
13374W        W28991  12.721  13.211  15.670  0.1835  0.1599 -0.1280
13375W        W28992  13.531  15.744   2.573 -0.1005  0.1406 -0.2095
13376W        W28993  12.586   6.308   2.534 -0.0036  0.2205  0.0509
13377W        W28994   4.010   4.950  14.992  0.0523 -0.2415 -0.5054
13378W        W28995  14.481   7.819   0.942  0.2236 -0.2091  0.1788
13379W        W28996   8.232   0.970  15.839  0.1041  0.4024 -0.1483
13380W        W28997   3.458  14.537   0.962 -0.0014 -0.0078 -0.0912
13381W        W28998  11.099   5.554  16.413 -0.2055  0.0269  0.2013
13382W        W28999   7.297  10.195  16.544 -0.1841  0.2810  0.0352
13383W        W29000   6.586  16.744  17.266 -0.1600 -0.3168 -0.2702
13384W        W29001   0.265  14.152   3.051  0.3800 -0.1419  0.2595
13385W        W29002   9.413  15.419  12.990  0.1921  0.2573 -0.0780
13386W        W29003   3.304   8.015   0.105 -0.1844  0.2529 -0.1924
13387W        W29004   6.401  16.849   2.129  0.0225  0.1016  0.0225
13388W        W29005   1.265   8.080   4.279 -0.0940  0.1694  0.1855
13389W        W29006   1.941  14.492   5.237  0.2862  0.0324 -0.2042
13390W        W29007   7.748   9.800  12.504 -0.1986 -0.0815  0.1411
13391W        W29008   9.970  17.060  12.356  0.0453 -0.1832  0.0789
13392W        W29009  10.757  10.880   1.409  0.0685 -0.4769 -0.0259
13393W        W29010  14.926   9.996   4.111  0.2258 -0.0743  0.2365
13394W        W29011   9.993  17.064   2.559 -0.0475 -0.0795  0.1670
13395W        W29012   5.539   7.158   1.542 -0.0248  0.0448  0.5075
13396W        W29013   7.841   4.346   1.315  0.0398 -0.0195  0.1363
13397W        W29014  16.675   4.877   0.359  0.0015 -0.1213  0.0877
13398W        W29015   4.957  13.752  12.044  0.1693  0.0923 -0.0663
13399W        W29016   3.020  14.227  15.831  0.0447  0.1824 -0.0861
13400W        W29017   5.395  13.829   0.503 -0.1374 -0.1501 -0.1596
13401W        W29018  13.285   0.450   0.571  0.1992  0.1471 -0.5377
13402W        W29019   4.973  14.518  12.662  0.0921  0.0721 -0.0468
13403W        W29020   4.498   3.441  13.737  0.4048  0.1045 -0.2291
13404W        W29021  14.737   2.053   3.761 -0.0669  0.1254  0.2621
13405W        W29022   5.231   7.651   1.783  0.0590 -0.0408 -0.2129
13406W        W29023   4.075  10.400   6.080  0.4351  0.0417  0.0552
13407W        W29024   2.132   9.726  13.738 -0.1053  0.2243  0.5159
13408W        W29025   6.243   8.471  15.415  0.3513 -0.1336  0.0902
13409W        W29026   7.683   8.871  16.048 -0.0537 -0.2234  0.3084
13410W        W29027   5.827   4.566   5.639  0.0959 -0.2242 -0.1841
13411W        W29028  13.810   6.265   6.102  0.1826  0.0365 -0.1149
13412W        W29029   4.396  13.305  14.321  0.3846 -0.1423  0.0226
13413W        W29030  11.273  13.479  15.672 -0.3007  0.5452 -0.1499
13414W        W29031  14.302   7.792   1.460  0.3733  0.2747 -0.0141
13415W        W29032   0.405  17.144  13.306  0.1479 -0.1105  0.2567
13416W        W29033  15.170   3.383   3.051  0.2369  0.0468  0.0424
13417W        W29034   0.462  13.995   0.580  0.0324 -0.3601  0.0348
13418W        W29035   3.797  16.124  13.555 -0.0369 -0.4003  0.3386
13419W        W29036   6.845  13.029   4.453 -0.2571  0.0900  0.5062
13420W        W29037   6.233   1.909   4.712  0.1686  0.0591 -0.3705
13421W        W29038   8.340  14.764   0.031  0.2591  0.2485  0.2836
13422W        W29039   6.817  15.509   4.984 -0.1019  0.3019 -0.3636
13423W        W29040  11.747  10.719   2.006  0.1066 -0.2752  0.1977
13424W        W29041  17.299   3.244   4.777  0.0022  0.1504  0.1881
13425W        W29042   1.058  15.754  12.424 -0.1055 -0.2713  0.1121
13426W        W29043  10.261  12.057  12.523 -0.1487 -0.0015  0.2690
13427W        W29044  10.686  15.638   1.851 -0.3257  0.1102  0.1246
13428W        W29045   5.156   3.497   0.431  0.2831  0.0580  0.0274
13429W        W29046  15.078   0.412  15.440 -0.1980  0.1714 -0.0940
13430W        W29047   0.121  13.844  15.336  0.0753  0.3868 -0.2851
13431W        W29048   3.958   6.888  12.845  0.1389 -0.1941  0.1664
13432W        W29049  11.956   3.544   1.692  0.0541 -0.0540 -0.1352
13433W        W29050  10.087  14.389   2.354  0.1243  0.2024  0.1832
13434W        W29051  16.920  13.097  14.122  0.0679  0.0519 -0.1765
13435W        W29052  13.526   2.507  15.312 -0.3233  0.1351  0.1187
13436W        W29053   0.716   9.309   1.184  0.4204  0.1128  0.0553
13437W        W29054  10.230   2.635  11.659 -0.0189  0.0485 -0.0526
13438W        W29055   3.956  16.470  15.928  0.2378  0.1805 -0.0497
13439W        W29056   1.337  16.682  12.274 -0.2473 -0.2220  0.1803
13440W        W29057   7.495  12.968  12.433  0.1102 -0.1653 -0.0820
13441W        W29058   4.786   0.177   6.445 -0.2810 -0.0831 -0.2837
13442W        W29059   4.728  13.523   1.548  0.1160 -0.1938  0.3052
13443W        W29060   8.096  11.501   0.752  0.1177  0.1013  0.1186
13444W        W29061   9.745   0.950   5.293 -0.1809  0.1566 -0.3511
13445W        W29062  12.404   2.762  16.279  0.1572  0.2831 -0.1476
13446W        W29063   6.361  16.276  16.773  0.2950 -0.0496 -0.1552
13447W        W29064   4.321   1.940  17.214 -0.3009 -0.2231 -0.2803
13448W        W29065  10.600   6.592  15.883  0.0481  0.1098  0.1941
13449W        W29066   2.522   7.592   4.046  0.1521  0.2788 -0.0997
13450W        W29067   2.608  12.456  14.801  0.1389  0.0524  0.0058
13451W        W29068   6.189  15.806  16.842 -0.0976 -0.0128 -0.0245
13452W        W29069  10.743   8.160  13.004 -0.2802 -0.1538 -0.2292
13453W        W29070  11.986  14.345  14.817  0.2277  0.0526  0.0310
13454W        W29071   8.217   5.085  11.966  0.0383 -0.1440  0.0419
13455W        W29072  13.712   6.436   0.087  0.1962 -0.2384 -0.2559
13456W        W29073  10.959  11.038   3.547  0.3774  0.2435 -0.0212
13457W        W29074   0.508  15.261  16.159  0.2083  0.0744  0.3576
13458W        W29075   0.344   3.873   4.766 -0.1555  0.2928  0.1178
13459W        W29076  15.442   6.708  14.538 -0.1994  0.3532 -0.0820
13460W        W29077  16.991   5.824  14.810  0.2048 -0.3442  0.0489
13461W        W29078  13.426   6.782  16.927  0.1557 -0.0989 -0.1018
13462W        W29079   7.278  10.013  12.434 -0.0377  0.3943 -0.1260
13463W        W29080  14.122  16.561   1.388 -0.1140  0.0717  0.1538
13464W        W29081   8.228  12.481   2.179  0.3793 -0.2398  0.0639
13465W        W29082   3.095   8.915  13.859  0.1704 -0.1236  0.0409
13466W        W29083   7.491   3.178  13.304 -0.0501  0.0672 -0.0303
13467W        W29084   7.916   5.066   1.938 -0.0802 -0.2508 -0.1761
13468W        W29085  17.578  12.448   4.331  0.2158 -0.0494  0.2602
13469W        W29086  16.295  13.330   4.089 -0.0864  0.0620  0.2145
13470W        W29087   1.724  13.562  12.341 -0.0474 -0.2273  0.1466
13471W        W29088  10.998  13.551  14.726 -0.1572 -0.1825  0.1369
13472W        W29089  10.898   3.710   1.865 -0.0950 -0.0675  0.1114
13473W        W29090  16.824   5.565  16.242  0.1892  0.3681  0.1435
13474W        W29091   0.651  15.006   4.787  0.1850  0.0046  0.2007
13475W        W29092   8.840   2.100  15.282  0.2142 -0.4772  0.0661
13476W        W29093  10.405   7.878  12.821  0.0813  0.0699 -0.0864
13477W        W29094  17.199   6.692   4.437 -0.1684  0.1273 -0.1426
13478W        W29095  10.609  15.487   6.031 -0.0342  0.1103  0.4779
13479W        W29096  17.451   7.706   1.714  0.2020  0.0198 -0.0124
13480W        W29097   3.926  16.239  12.189 -0.1177  0.0298  0.0479
13481W        W29098  15.526  10.038   3.694  0.0592  0.2682 -0.0399
13482W        W29099  12.665   9.565  16.995  0.3439 -0.0466 -0.0728
13483W        W29100   9.039  12.772  12.185  0.1340  0.1402 -0.0650
13484W        W29101   4.034   4.892  17.019 -0.1063  0.0693  0.0459
13485W        W29102  15.173  11.784   5.947  0.2220  0.1920 -0.2833
13486W        W29103  10.890  16.671   5.787 -0.1222 -0.1533 -0.1553
13487W        W29104   7.400  11.297   1.097  0.2027 -0.2865  0.2711
13488W        W29105  15.054  12.974  11.821  0.2062 -0.1469  0.2601
13489W        W29106  14.217   0.741   2.345 -0.2306 -0.0718  0.0140
13490W        W29107  10.424   7.959   2.257 -0.2732  0.0981  0.4074
13491W        W29108   2.266   5.587  14.025 -0.1577 -0.3194  0.1970
13492W        W29109  11.704   5.189  14.513  0.0663 -0.1181  0.0537
13493W        W29110  11.348  12.815  16.063 -0.2075 -0.1598 -0.0734
13494W        W29111   6.414  15.529  12.591 -0.0103 -0.2405  0.0759
13495W        W29112   3.199   9.897  13.022  0.2272  0.2273 -0.0642
13496W        W29113   7.765   3.216   3.918 -0.2797  0.1864 -0.0047
13497W        W29114   4.053   7.142  13.266 -0.0046 -0.1449  0.1288
13498W        W29115   4.044   6.874  12.255 -0.0497 -0.0674 -0.2095
13499W        W29116   9.515  14.540  16.174 -0.1055 -0.0016  0.0544
13500W        W29117   5.755   3.486   3.372 -0.0400  0.1404 -0.0586
13501W        W29118   8.464   3.765   0.221  0.4337 -0.1065 -0.0021
13502W        W29119  13.200   4.987   2.992  0.0123  0.1249 -0.0308
13503W        W29120   8.999  14.251  11.277  0.3046  0.1372 -0.0713
13504W        W29121  16.703  11.181   4.961  0.1977  0.0220 -0.2614
13505W        W29122   7.585  16.945   1.746 -0.1236  0.0054  0.0237
13506W        W29123  16.932  10.233   3.088  0.0315  0.3262  0.1753
13507W        W29124   7.189   5.646   1.475  0.1408 -0.0727  0.0173
13508W        W29125  10.798  10.443  16.066  0.1462  0.0120  0.3162
13509W        W29126  12.988   1.243  12.838  0.0444 -0.1995  0.0099
13510W        W29127  12.846  16.655   2.714  0.0556  0.0826 -0.0608
13511W        W29128  16.710  11.508  13.755 -0.0649  0.0092 -0.0648
13512W        W29129  12.398  17.046   4.078  0.1915  0.0873  0.0192
13513W        W29130   7.990   0.016  12.458  0.1756 -0.0822 -0.0616
13514W        W29131   9.719   8.350   1.588  0.0364 -0.1923  0.1302
13515W        W29132  16.312  13.215  13.552 -0.1821 -0.2271 -0.1931
13516W        W29133  10.124  11.056  16.756 -0.2005 -0.3240  0.0169
13517W        W29134  12.501   4.211  12.356  0.0887  0.0099 -0.2388
13518W        W29135  17.094   9.759   4.990  0.1956  0.0211  0.1027
13519W        W29136   2.334   7.799   1.673  0.0375  0.3695 -0.1532
13520W        W29137   0.901   3.924   5.967 -0.0882  0.1112  0.0037
13521W        W29138  13.505  10.633  16.196 -0.0407 -0.1203  0.1074
13522W        W29139  14.068  17.543  14.916  0.0769  0.1517 -0.0452
13523W        W29140   8.443   9.611   2.213  0.1473 -0.0313 -0.2633
13524W        W29141  16.532   5.686   4.851 -0.2363 -0.0856 -0.1351
13525W        W29142   8.465   1.052   0.509  0.0710  0.1029  0.0360
13526W        W29143  13.567  17.213   5.243  0.2211  0.2813 -0.3257
13527W        W29144   0.009  11.267   2.263  0.1520  0.0176 -0.0269
13528W        W29145   5.223  14.884  14.466  0.1490  0.1266 -0.0738
13529W        W29146   9.858  15.690   5.183 -0.2056 -0.0495 -0.0054
13530W        W29147   4.079   1.978   5.205  0.0765 -0.0426 -0.1695
13531W        W29148  12.587  10.846  15.809 -0.0012  0.3140  0.2051
13532W        W29149  15.561   9.781  14.427 -0.2033 -0.0754  0.1238
13533W        W29150   1.849   2.991   6.282  0.0692 -0.3320  0.0804
13534W        W29151  11.466  10.452  13.448  0.0678  0.0728 -0.0548
13535W        W29152   1.393   7.405  17.232  0.1403  0.0494 -0.0026
13536W        W29153   4.888   1.492   1.530 -0.2264  0.2684  0.0409
13537W        W29154  13.880   0.762  15.022 -0.0790 -0.3339  0.1756
13538W        W29155  15.238   6.662   2.733 -0.0687  0.0817 -0.0558
13539W        W29156   9.082   8.904   1.423 -0.3017 -0.2727  0.1040
13540W        W29157   4.292  13.861   3.229 -0.1761 -0.0480  0.0830
13541W        W29158   0.692   7.177   3.054  0.1847  0.0190 -0.2008
13542W        W29159  12.594  13.027   3.965  0.0318  0.0362 -0.1901
13543W        W29160   7.497  12.535   0.408  0.0833  0.1660 -0.1777
13544W        W29161  13.487   1.487  14.386  0.4034 -0.5331 -0.0093
13545W        W29162   9.859  16.180   2.063  0.2482 -0.1297 -0.0391
13546W        W29163   7.869  13.407   5.624 -0.0233  0.2018  0.0995
13547W        W29164  14.691   9.802  15.388 -0.1155  0.1133  0.0262
13548W        W29165   4.246  16.508   2.114  0.1369  0.2391 -0.1959
13549W        W29166  16.906   1.609  11.515  0.1544 -0.0834  0.3484
13550W        W29167   6.431   8.457  14.563 -0.0776  0.1158 -0.0544
13551W        W29168   2.253   3.270   3.126  0.0181 -0.0432 -0.0119
13552W        W29169   1.010   5.597   0.501 -0.0483 -0.0431  0.1408
13553W        W29170   5.033   1.306   0.172 -0.2729  0.2687 -0.3192
13554W        W29171   1.809   0.481   6.261  0.1081  0.3635  0.1868
13555W        W29172   0.072  10.956   2.632  0.1039  0.1186 -0.1766
13556W        W29173  11.731   3.817   2.448  0.1239  0.3838  0.1068
13557W        W29174  15.003  10.982  13.172 -0.0581 -0.1395 -0.2533
13558W        W29175  14.784   8.521  12.883 -0.0085 -0.1803 -0.1939
13559W        W29176  10.920   5.945   4.828 -0.0603  0.0793 -0.0608
13560W        W29177   4.060   3.743  16.648  0.0292  0.1877 -0.0875
13561W        W29178  16.474  10.899   3.173 -0.1151  0.2691 -0.1146
13562W        W29179  17.609   2.674  16.772 -0.0719 -0.0762 -0.3040
13563W        W29180  11.129   5.058  16.501 -0.1536  0.0984 -0.0279
13564W        W29181   0.029  12.366  13.207  0.0857  0.1522  0.0446
13565W        W29182  14.051   6.413   3.246  0.3059  0.2502  0.1277
13566W        W29183  13.586   2.520   2.549 -0.3089  0.0383 -0.0738
13567W        W29184   5.569   6.685  15.947  0.2803 -0.0498 -0.2344
13568W        W29185  17.010   6.891  16.028  0.0798  0.4542 -0.0094
13569W        W29186  12.105   8.604   2.764  0.0919 -0.0163 -0.2416
13570W        W29187  10.313  13.219  12.935 -0.2741  0.3312  0.0253
13571W        W29188  14.373   2.832   4.077 -0.0648  0.3052 -0.0783
13572W        W29189   8.686  14.468  15.233  0.3113 -0.1496 -0.0726
13573W        W29190  16.875   1.155   3.825  0.1374 -0.2785  0.0519
13574W        W29191  14.019  15.418   0.678 -0.1389  0.0668 -0.1119
13575W        W29192   7.535  13.880  11.557  0.0797 -0.1050  0.0966
13576W        W29193   3.298  15.124  14.171 -0.0213 -0.3942 -0.2227
13577W        W29194  14.269   1.179   4.197 -0.0071 -0.2893  0.0124
13578W        W29195   5.311  12.708  12.164 -0.0572  0.3105  0.1644
13579W        W29196   7.164   4.895   3.908 -0.0298  0.0418  0.2119
13580W        W29197   3.019  12.887  12.717  0.2969  0.0237  0.3101
13581W        W29198   2.739  16.299  15.228 -0.0239  0.3702  0.1342
13582W        W29199  16.508   7.088  13.105 -0.0825 -0.2269 -0.0442
13583W        W29200   1.667   0.924  15.962  0.3409 -0.2923  0.1670
13584W        W29201   7.249  14.480   3.231 -0.0345  0.1830 -0.1860
13585W        W29202  10.666   8.489  14.333 -0.2720 -0.1675  0.3041
13586W        W29203   8.781  13.586  15.646 -0.2780 -0.0804  0.0969
13587W        W29204   2.790   9.796  16.584  0.0119  0.0649 -0.0935
13588W        W29205   3.402   6.991   2.381  0.0483  0.2172 -0.1609
13589W        W29206   4.372  16.071  14.336  0.0881  0.2165 -0.1095
13590W        W29207   0.305   4.060   2.680  0.0153 -0.2741 -0.2060
13591W        W29208   4.737  17.440   1.082  0.0672  0.0405 -0.0467
13592W        W29209   6.113  16.504   1.265 -0.2159  0.0311  0.0362
13593W        W29210  16.048   5.862   1.723  0.0462  0.1847 -0.1544
13594W        W29211   5.743   2.972  11.877 -0.1417  0.1394  0.1085
13595W        W29212  14.439   8.626  14.863 -0.0565  0.0390 -0.1270
13596W        W29213  12.237   6.585   2.911  0.0480 -0.0746 -0.1736
13597W        W29214  13.496   3.068   5.901  0.1184 -0.0172  0.1845
13598W        W29215  15.128  15.513  15.701  0.1501  0.1269 -0.0335
13599W        W29216  15.092  17.465  15.321 -0.3075 -0.2044 -0.0025
13600W        W29217   9.034   7.706   5.113 -0.0082 -0.2409  0.3063
13601W        W29218  13.116   0.962   5.950  0.1859  0.0658  0.1570
13602W        W29219  14.903   0.063   4.948 -0.1983  0.1809  0.2095
13603W        W29220   3.417   1.212  13.983 -0.1642  0.1816  0.2013
13604W        W29221  10.816  16.672  11.454 -0.2842  0.0053  0.1241
13605W        W29222   5.762   0.286  14.734 -0.0297  0.0647  0.2021
13606W        W29223   1.433  14.679  13.301  0.0833 -0.0212 -0.0071
13607W        W29224  13.491   4.478   4.584  0.2147  0.1606  0.0465
13608W        W29225  16.863  12.371  12.586  0.1028 -0.2011 -0.0628
13609W        W29226  11.682  10.656   5.581 -0.0695 -0.4870  0.0247
13610W        W29227   2.867  11.937   5.596 -0.2151 -0.0713 -0.2804
13611W        W29228   8.461  10.531  14.758 -0.1788 -0.1732 -0.0572
13612W        W29229  11.926   1.617   4.623  0.0962  0.2219 -0.1461
13613W        W29230   7.727   4.040   4.078 -0.1771 -0.2080  0.0687
13614W        W29231   3.300   1.891   1.689 -0.0597  0.1726 -0.4138
13615W        W29232   4.122  13.017  17.076 -0.2059  0.2042 -0.1027
13616W        W29233  16.896   9.773   5.818  0.0413 -0.1850 -0.1340
13617W        W29234  11.850   9.590  13.966 -0.2649 -0.0082  0.0873
13618W        W29235   5.401   2.563  13.650 -0.0097 -0.2045  0.1822
13619W        W29236  14.786  14.885   3.506 -0.2540 -0.0685 -0.0247
13620W        W29237   6.305   3.824   5.868  0.0656 -0.0619 -0.0593
13621W        W29238   7.993  16.823   5.242  0.1283  0.0517  0.1175
13622W        W29239   8.409   7.357   4.075  0.0475 -0.0311  0.0385
13623W        W29240   3.656   0.441   5.569  0.0499  0.1470  0.2437
13624W        W29241   7.006  11.503  11.794  0.0559  0.2318 -0.2339
13625W        W29242   1.253  17.549   0.694  0.1737 -0.0713 -0.1393
13626W        W29243   2.559  12.130   1.302 -0.1922 -0.0533 -0.1619
13627W        W29244   5.725   4.700  14.582  0.1816 -0.1042  0.0744
13628W        W29245  12.276   4.343   2.931 -0.1093  0.0071  0.1279
13629W        W29246  16.058   5.593  15.025  0.0240 -0.1017 -0.2423
13630W        W29247  12.018   2.051  12.854 -0.0978  0.2049 -0.3140
13631W        W29248  11.532   7.241  14.862  0.0288 -0.0042 -0.2090
13632W        W29249   9.983  12.474   3.881  0.1340 -0.1942 -0.2521
13633W        W29250   3.874  13.472  12.796  0.3096 -0.0690 -0.1381
13634W        W29251  13.172  11.562   6.758 -0.1513  0.1189  0.2127
13635W        W29252  14.993  15.130   3.015 -0.0649 -0.3227 -0.4160
13636W        W29253  15.404   7.956   4.960 -0.0038 -0.2052  0.1522
13637W        W29254   7.163  11.430   5.662  0.1298 -0.0300  0.0600
13638W        W29255   9.186  11.140  14.639  0.0172 -0.0794  0.0673
13639W        W29256   9.962  17.074  15.159  0.0588  0.1569  0.1310
13640W        W29257  15.510   1.223  16.848 -0.1073  0.3614 -0.3044
13641W        W29258  10.155  14.600  17.225  0.1729 -0.0906 -0.1882
13642W        W29259   0.047   2.819  13.388 -0.1104 -0.0758  0.3573
13643W        W29260   2.476  11.985  16.798  0.1138 -0.0639  0.1028
13644W        W29261  14.164   3.476  12.225  0.1119 -0.0137 -0.5327
13645W        W29262   0.714  11.819   3.035  0.0566 -0.1108  0.3563
13646W        W29263  10.391  14.017  12.409  0.3771  0.2075 -0.0102
13647W        W29264   1.907   2.859   0.675  0.1964 -0.1620 -0.2232
13648W        W29265   4.448   4.987  14.750 -0.0599 -0.1345  0.5056
13649W        W29266  10.355  17.599  14.559 -0.1116  0.0728 -0.2354
13650W        W29267   7.889   8.241  11.719  0.0204  0.0456  0.2374
13651W        W29268   0.864   4.945   1.685  0.2301 -0.0807  0.2356
13652W        W29269  15.539  13.484  15.390 -0.0878  0.0105  0.0737
13653W        W29270  14.428   5.028   2.550 -0.2764 -0.3115  0.2003
13654W        W29271   9.710  13.425  15.638 -0.0243 -0.2870 -0.2159
13655W        W29272   7.575   9.743   2.541  0.2931 -0.0665  0.2898
13656W        W29273   3.885   0.852   5.420 -0.2617 -0.4526  0.1682
13657W        W29274   8.858  10.589   1.999 -0.1487 -0.3297  0.2197
13658W        W29275   6.349  16.522  13.070  0.2061 -0.1270 -0.0678
13659W        W29276  15.098  17.129   3.554 -0.3848 -0.2780  0.3479
13660W        W29277   7.428   0.820  15.964  0.3204 -0.2263 -0.0503
13661W        W29278  15.477  11.700  15.715  0.0050  0.0243  0.2008
13662W        W29279  12.440   1.857   4.612 -0.1257 -0.0085  0.1051
13663W        W29280  15.369  12.745   0.881  0.0890 -0.1184  0.0190
13664W        W29281   2.130  10.156   1.441  0.0349 -0.0486  0.3629
13665W        W29282   3.224   4.150   0.249 -0.0722 -0.1856  0.0959
13666W        W29283   2.190  11.070   3.908  0.2349  0.2568 -0.1000
13667W        W29284   4.164   6.708   3.718  0.1440  0.0591 -0.1924
13668W        W29285   0.790   4.239   5.538 -0.1084 -0.0477 -0.0744
13669W        W29286   4.071   1.607  13.193  0.1843  0.0854 -0.0778
13670W        W29287   5.771   4.429   3.347  0.2089 -0.3212 -0.2664
13671W        W29288   1.079   0.481   4.559  0.1195 -0.0563  0.2357
13672W        W29289   1.610   2.281   1.476  0.0659  0.2546  0.0244
13673W        W29290   1.654  10.769   0.645 -0.2002 -0.0341  0.3478
13674W        W29291   3.873   4.381  16.794 -0.1261 -0.0035  0.0181
13675W        W29292   4.369   8.793  16.785 -0.3250  0.2010  0.1308
13676W        W29293   9.382   1.213   2.104 -0.2629 -0.1256  0.1527
13677W        W29294  13.980   4.400   3.529  0.1193 -0.0415 -0.3058
13678W        W29295   9.336   6.108   0.541 -0.1287  0.2310 -0.1773
13679W        W29296   2.723   3.309   0.934 -0.0768 -0.1716 -0.1587
13680W        W29297  10.815   7.233  14.026  0.1557 -0.3339  0.2465
13681W        W29298   0.856   4.264   0.060  0.0659  0.0473  0.2306
13682W        W29299  17.559   6.657   1.833 -0.1445 -0.1550  0.1703
13683W        W29300  13.905   4.306   2.182  0.1783  0.2075  0.0192
13684W        W29301   8.518  14.298  16.398  0.0826  0.2344  0.1603
13685W        W29302  16.054   0.919  13.867  0.0903  0.0169  0.2378
13686W        W29303   0.774   1.709  12.838  0.1700  0.1058 -0.0342
13687W        W29304  12.414  10.059   2.985 -0.2333 -0.0382  0.2484
13688W        W29305   3.825  16.722   2.446  0.4667  0.0888 -0.0909
13689W        W29306  17.097  16.763  17.267  0.4223  0.0682 -0.0713
13690W        W29307   5.670  13.745   5.994  0.2449  0.2569  0.1634
13691W        W29308   1.531   1.869   5.655 -0.0471  0.2183 -0.2995
13692W        W29309   6.520   6.458  13.388 -0.1393  0.1761  0.2112
13693W        W29310   1.603   2.918  17.004  0.1299  0.1364  0.3210
13694W        W29311  10.027  12.894  11.700 -0.1176  0.0488  0.0917
13695W        W29312   9.580  13.691  15.247 -0.1785 -0.0356 -0.0860
13696W        W29313   0.194  17.292  16.439  0.2098  0.2886 -0.1025
13697W        W29314   8.597   3.427  14.001 -0.1621  0.1335  0.0173
13698W        W29315  10.891   2.658  17.251 -0.1479  0.1334  0.1321
13699W        W29316   8.340   0.890  13.791 -0.3924 -0.1438 -0.4543
13700W        W29317  16.424   7.005   5.000  0.0531  0.0603 -0.2008
13701W        W29318  10.336  15.659   2.459  0.1584  0.3201 -0.0617
13702W        W29319  10.045  15.509  13.114 -0.0247  0.3837  0.4839
13703W        W29320   0.902  12.988  14.932  0.1100 -0.2944  0.1236
13704W        W29321   7.965   4.417   5.004 -0.1666 -0.1215 -0.0752
13705W        W29322   8.955  15.570  13.152  0.1892 -0.1796 -0.1410
13706W        W29323   1.320  12.492  15.012 -0.1413  0.1396 -0.0275
13707W        W29324   1.376  15.401   0.018  0.1235  0.1740  0.1673
13708W        W29325  10.360   9.649  15.575  0.1300 -0.4649 -0.1923
13709W        W29326   7.703  16.808  12.385  0.1748  0.1355  0.2033
13710W        W29327   2.161   7.589   3.608 -0.0483  0.1667 -0.0583
13711W        W29328  16.281   1.112  16.661 -0.1658 -0.0659  0.0258
13712W        W29329   4.360   4.300   2.551 -0.1057 -0.1425  0.0811
13713W        W29330  13.716  17.580  14.540 -0.0674  0.0724 -0.0471
13714W        W29331   7.971   0.843  14.248  0.0855  0.1939 -0.0304
13715W        W29332  17.334   1.479   1.460 -0.2205 -0.1702  0.0209
13716W        W29333   6.976   8.496  13.415  0.3306 -0.0183  0.2381
13717W        W29334  15.243  15.445   1.013  0.2975 -0.2838  0.2388
13718W        W29335  12.910   4.850   2.622 -0.2018 -0.1372  0.0073
13719W        W29336   7.021   5.177   1.533  0.0216  0.2707 -0.0602
13720W        W29337   0.647  13.334   2.488 -0.0518 -0.2010 -0.0728
13721W        W29338  10.685   9.249   0.640  0.2526 -0.0680  0.1255
13722W        W29339   6.589   6.827   0.265  0.0258 -0.0847 -0.1973
13723W        W29340  10.505  14.364  14.489 -0.1484 -0.1754  0.0556
13724W        W29341   2.719   3.830   0.218 -0.1702  0.1968 -0.3239
13725W        W29342  11.347   4.060  14.984 -0.0789  0.1163 -0.3577
13726W        W29343   3.506   8.699   5.668  0.3627  0.0859  0.1954
13727W        W29344  15.287   4.809   4.476 -0.3210  0.2811 -0.1379
13728W        W29345   5.501   9.606   1.376 -0.0300  0.0653  0.0935
13729W        W29346   9.850   1.776  16.707 -0.0688 -0.0106  0.1730
13730W        W29347  10.512  12.591   2.998 -0.1696 -0.0586  0.1398
13731W        W29348   7.833  11.527  15.073 -0.0485 -0.0145 -0.0458
13732W        W29349   5.512  11.375  12.660  0.0294 -0.2060 -0.2314
13733W        W29350  15.085  10.518  15.247 -0.1167  0.4358 -0.0339
13734W        W29351   4.206  14.426  16.443 -0.0300  0.0445  0.0750
13735W        W29352  16.423  16.709   2.562 -0.1755  0.3092 -0.2262
13736W        W29353   3.343  13.631   4.320 -0.1368  0.0611  0.1244
13737W        W29354  15.900   6.975   5.566  0.1701 -0.1219  0.1164
13738W        W29355  16.350  13.995   1.402  0.1391 -0.0490 -0.1103
13739W        W29356  12.498  12.188   0.803  0.0997 -0.0715  0.1977
13740W        W29357   9.423  17.535   1.184  0.1639  0.0928  0.1015
13741W        W29358  12.032   1.438  16.575  0.2178  0.0038  0.0960
13742W        W29359  10.601   1.644   0.034  0.0040 -0.3051  0.2311
13743W        W29360   7.524   7.885  12.048  0.0151  0.0611  0.1127
13744W        W29361   0.808  17.187  14.030 -0.0481  0.0825  0.1131
13745W        W29362   9.867   2.637  17.243  0.0855 -0.4318 -0.2790
13746W        W29363   5.276   6.463   0.350  0.2001  0.1173 -0.1652
13747W        W29364   8.819   2.753  14.522 -0.0301 -0.1455  0.2285
13748W        W29365   5.533   8.116   6.601 -0.2159  0.1706 -0.0899
13749W        W29366   3.322  17.608   5.629  0.0449  0.1012 -0.2666
13750W        W29367   8.654   6.867  13.993  0.0445  0.3835  0.0411
13751W        W29368   1.638   0.892   1.951  0.1048 -0.1322  0.1016
13752W        W29369   9.313   4.538   0.292  0.2652 -0.3261  0.0656
13753W        W29370   3.484  13.853   0.495 -0.1838 -0.0975 -0.0476
13754W        W29371   7.858  15.423   1.631  0.0097 -0.2874 -0.3366
13755W        W29372  10.699  14.390  15.875  0.2780  0.0978  0.1055
13756W        W29373  16.654  14.739   0.533  0.1439  0.1156  0.0292
13757W        W29374  10.483   1.991  14.946 -0.0593  0.0252 -0.3412
13758W        W29375   6.205  16.407  15.870 -0.1406  0.2025  0.0599
13759W        W29376  15.942  12.310   3.719  0.1189  0.3983  0.1245
13760W        W29377  14.304  10.488  14.234  0.0802  0.0869 -0.0330
13761W        W29378  10.304   7.890   2.811  0.1858 -0.0005 -0.0888
13762W        W29379   0.923   5.962  15.969  0.0292 -0.2128 -0.0942
13763W        W29380  13.575   1.991  15.975 -0.1680  0.3127  0.0086
13764W        W29381  15.973   9.339  15.500  0.1388 -0.2647  0.0669
13765W        W29382   7.143   7.615   2.472  0.4042  0.2732  0.2328
13766W        W29383  14.531  16.473   0.593  0.0593  0.1960  0.3531
13767W        W29384   2.056   8.135  15.911 -0.1960 -0.0133 -0.1744
13768W        W29385  14.642   9.317   5.395 -0.0652 -0.1802 -0.0991
13769W        W29386  11.786   0.122  12.833 -0.0737 -0.2890 -0.0052
13770W        W29387   0.662   7.134   2.361 -0.1698 -0.0849 -0.0836
13771W        W29388  15.088  14.410   0.825  0.1694 -0.1177 -0.2995
13772W        W29389  11.361  17.245   2.339 -0.0933  0.0389 -0.0857
13773W        W29390   4.246  16.303   1.548  0.0405 -0.4214 -0.1763
13774W        W29391   0.712  15.308  13.211 -0.0950  0.3123 -0.1115
13775W        W29392   0.597   6.668  16.800 -0.0298  0.0535  0.1816
13776W        W29393  16.130  11.786   1.848 -0.1273 -0.0472  0.2617
13777W        W29394   2.901  13.528   5.055 -0.3222 -0.3330 -0.0589
13778W        W29395  11.387  16.855  12.623  0.4385 -0.1481  0.1080
13779W        W29396   4.725  11.727   2.633 -0.0040 -0.0151  0.1190
13780W        W29397   4.836   5.110   5.276  0.3460 -0.0172  0.2030
13781W        W29398  16.144   1.532  13.120 -0.1393  0.3015  0.0615
13782W        W29399   1.233  14.931  14.729  0.3354  0.0427 -0.0240
13783W        W29400   9.774   3.133   0.993  0.0710  0.0156  0.1236
13784W        W29401  15.763  10.149  15.697 -0.1731  0.0540 -0.0831
13785W        W29402  11.580  10.947  12.774 -0.1307 -0.1570  0.2345
13786W        W29403  16.655   8.045   3.078  0.1383 -0.0883  0.2614
13787W        W29404   8.434   8.113  15.555  0.0924  0.2668  0.0647
13788W        W29405  12.292   7.774   6.214 -0.1512  0.0759  0.0103
13789W        W29406   6.036   4.160  12.314 -0.0345 -0.2363 -0.0268
13790W        W29407   5.158   6.601  14.636 -0.0221 -0.1189 -0.2540
13791W        W29408  13.763   0.684   2.520  0.1247  0.0847 -0.1998
13792W        W29409  11.785  10.409   5.103  0.2510  0.1942  0.0458
13793W        W29410  16.171   0.540  15.871  0.4751 -0.0351  0.2654
13794W        W29411   1.817   8.143   4.386 -0.1072  0.0710  0.3427
13795W        W29412   9.425  16.070   0.639  0.1825  0.0563 -0.0721
13796W        W29413  15.323   6.827   1.791 -0.0114 -0.1500 -0.0939
13797W        W29414   3.576  16.345   0.943 -0.0530 -0.3885  0.2944
13798W        W29415   7.634  11.002   3.677  0.1547  0.1557 -0.0764
13799W        W29416   3.059  10.136  15.793 -0.1141  0.1787  0.0087
13800W        W29417  10.065  14.424  13.969 -0.0406 -0.1679  0.1046
13801W        W29418   9.691   1.637   2.394  0.0424  0.0082  0.1548
13802W        W29419   4.979   3.387   5.851 -0.1557 -0.1037  0.1816
13803W        W29420  16.713   8.958   0.682 -0.0877 -0.0154 -0.0563
13804W        W29421   0.072   1.537   5.455 -0.2507  0.0560 -0.0257
13805W        W29422   9.102   8.953   2.541 -0.2216  0.1633 -0.1420
13806W        W29423   0.679  12.322   2.750  0.0085 -0.1430  0.2987
13807W        W29424  17.372  15.969  13.279 -0.0027 -0.0803  0.2330
13808W        W29425  11.309   4.673  12.417 -0.0265  0.2376  0.0442
13809W        W29426  13.099  13.103  16.797 -0.2492  0.2138  0.0252
13810W        W29427  16.083   1.594   1.919 -0.0306 -0.0760 -0.0138
13811W        W29428  14.433   8.876   2.597  0.1781 -0.2558 -0.0408
13812W        W29429   4.462   0.778  11.644  0.3359  0.2257  0.0848
13813W        W29430   9.099   8.521   2.270 -0.0026  0.1877  0.2318
13814W        W29431   4.218   0.007  13.490 -0.0007  0.0967 -0.1729
13815W        W29432   0.111   2.646  15.808 -0.1001 -0.0127 -0.3092
13816W        W29433   2.381  14.993   5.127  0.0784 -0.0720  0.1158
13817W        W29434  10.537   1.285  13.411  0.3641 -0.0572 -0.0259
13818W        W29435   2.256   3.260   6.469  0.1737 -0.0533 -0.1860
13819W        W29436   8.759   6.372   5.425  0.1505  0.1279  0.0504
13820W        W29437   6.628   2.251  10.965 -0.0434  0.1515 -0.0369
13821W        W29438   9.001  13.599   1.855 -0.0926  0.0882  0.0097
13822W        W29439  16.365   7.245  16.574 -0.1085  0.0220 -0.3234
13823W        W29440   2.354   9.766  16.907 -0.0586  0.1451 -0.1699
13824W        W29441  13.276   1.329  14.889  0.0060 -0.0876 -0.0168
13825W        W29442   5.534   9.172   0.284  0.0397  0.2118 -0.2508
13826W        W29443   8.733   1.650   4.415  0.1823  0.1752 -0.1659
13827W        W29444  12.639  16.896   6.415 -0.2840 -0.0917 -0.0463
13828W        W29445  16.022  16.880  11.903 -0.0031  0.0213 -0.2631
13829W        W29446   3.744  14.464   5.608 -0.1091 -0.1688  0.0418
13830W        W29447  10.850   9.849   2.476 -0.3235 -0.2383  0.2514
13831W        W29448  11.528  12.224  13.513  0.2495  0.0745 -0.0224
13832W        W29449  14.833  12.359  13.993 -0.2835  0.1182 -0.1067
13833W        W29450   9.422  14.779   3.694 -0.0489  0.2911 -0.2473
13834W        W29451   1.068   5.673  16.477  0.2143  0.2366  0.0354
13835W        W29452   8.808   8.985  12.536 -0.5938 -0.3129 -0.0611
13836W        W29453  13.443  17.061   2.106 -0.2293  0.0966 -0.1593
13837W        W29454   6.580   5.529  15.514  0.0265 -0.2618  0.2516
13838W        W29455   4.385  16.110  12.831 -0.0032  0.1753 -0.3217
13839W        W29456  13.055   9.874   5.810  0.0440 -0.0575 -0.0904
13840W        W29457  14.590  13.666  15.246 -0.0189 -0.2156  0.1926
13841W        W29458   0.960  15.712  14.604  0.0237 -0.1883  0.2814
13842W        W29459   4.368   9.539  15.806  0.0389 -0.1851  0.1143
13843W        W29460  10.403  13.962   2.198  0.0989  0.2881 -0.1319
13844W        W29461   8.875   4.940   1.936 -0.1167  0.2117 -0.0294
13845W        W29462   7.565   9.147  15.613  0.2442 -0.0767 -0.0878
13846W        W29463   1.572  14.272  13.009 -0.0211 -0.0112  0.2357
13847W        W29464  12.807   6.994   2.191  0.1153 -0.0323  0.2520
13848W        W29465  13.578   0.500  11.245 -0.0029  0.0209  0.1673
13849W        W29466   5.548   8.911   2.526 -0.0906  0.1222  0.0468
13850W        W29467  17.095  10.211  12.978  0.1417  0.1283 -0.0990
13851W        W29468   9.927   1.832   3.009  0.0274 -0.4360  0.0841
13852W        W29469  10.777   2.568  15.001  0.0932  0.1487  0.0004
13853W        W29470   1.914  14.356  15.108 -0.1254 -0.1653  0.2060
13854W        W29471   7.928  12.953  14.024 -0.0704  0.0422  0.3287
13855W        W29472   3.980   1.341  12.569  0.2775 -0.0024  0.1525
13856W        W29473   3.028   9.706   2.991  0.0424  0.1154  0.0548
13857W        W29474  15.264   9.373   0.822 -0.0111  0.1562  0.2012
13858W        W29475   5.183   2.415   3.815  0.1216 -0.1208  0.0474
13859W        W29476  17.307  11.008   1.350  0.1989  0.0199 -0.1512
13860W        W29477   8.412  16.685  13.559  0.2208  0.1928 -0.0378
13861W        W29478   9.547   7.751  14.571  0.1042  0.3742  0.1296
13862W        W29479  17.138   5.470   1.667 -0.0579 -0.1387  0.1040
13863W        W29480  14.620   9.287   4.440 -0.1279  0.0147  0.1492
13864W        W29481   6.403   9.111   0.791  0.0297  0.1943 -0.0324
13865W        W29482  11.990   2.913   2.143 -0.1246 -0.1080  0.2592
13866W        W29483  17.604   4.923   2.724  0.0948 -0.0352  0.0016
13867W        W29484   3.566   7.788  17.078 -0.1095  0.2220 -0.0379
13868W        W29485   7.394  17.462  16.043  0.2213  0.3815 -0.1919
13869W        W29486  12.592  11.390   1.030  0.2227  0.3385  0.0782
13870W        W29487   0.360  12.851   0.661 -0.2876 -0.1677  0.5637
13871W        W29488   3.741  14.172  16.519 -0.0227 -0.1054 -0.1345
13872W        W29489   4.365   5.378   0.026 -0.1380  0.0568  0.1540
13873W        W29490   7.479   8.516  16.382 -0.2121  0.3613 -0.1091
13874W        W29491   7.119  13.314  12.675 -0.0412 -0.0500  0.0899
13875W        W29492  14.110   6.432  16.034  0.0495 -0.2020 -0.2570
13876W        W29493  15.147   9.335   5.557 -0.0492  0.0524 -0.0151
13877W        W29494   6.707  15.120   5.255 -0.1865  0.3956 -0.0993
13878W        W29495  15.072  10.661  12.457 -0.4328 -0.0405  0.1058
13879W        W29496   1.969  11.936   5.547  0.2292  0.0696 -0.1875
13880W        W29497  15.884   4.813  15.527 -0.3934 -0.1878 -0.1368
13881W        W29498  10.119  13.818  16.127  0.1535 -0.2570  0.0184
13882W        W29499   7.394   3.404   5.076  0.1656 -0.0277 -0.0353
13883W        W29500   9.702   7.847  14.138  0.0582 -0.1242 -0.4310
13884W        W29501  16.396   0.173  15.393 -0.0508 -0.1030  0.1507
13885W        W29502  17.404  11.584   1.962 -0.0989  0.0786 -0.0712
13886W        W29503   2.186  10.179   5.043 -0.1233 -0.1119  0.0002
13887W        W29504   6.506   2.689   0.217 -0.1711 -0.1218 -0.3615
13888W        W29505   4.411   1.040   2.535  0.2365  0.0837 -0.0152
13889W        W29506  11.407   5.826  12.704  0.0481  0.1005 -0.2389
13890W        W29507   7.106  10.234   1.907 -0.2228  0.0460 -0.0600
13891W        W29508  15.889   5.681   6.168  0.5001 -0.2661 -0.0056
13892W        W29509   9.023   2.359  16.435 -0.1134 -0.1635 -0.3187
13893W        W29510  13.900   3.002  15.183 -0.0520  0.1103  0.0522
13894W        W29511  17.596  11.870  11.973 -0.1905  0.1472  0.1428
13895W        W29512   3.372  16.308  12.256 -0.0452  0.4391  0.0891
13896W        W29513  10.741   3.552   2.429  0.2542  0.0951 -0.4158
13897W        W29514   0.890  17.284  15.264 -0.0520 -0.2163  0.4286
13898W        W29515   8.714   8.629   1.343 -0.0086 -0.1641 -0.1436
13899W        W29516   6.364   4.562  15.361 -0.2137  0.2482  0.1664
13900W        W29517  16.078  14.000  15.024 -0.3034 -0.5325 -0.0580
13901W        W29518   0.104  11.889  14.408 -0.1010 -0.2319 -0.0073
13902W        W29519   0.256   8.092  13.469 -0.0560  0.1615 -0.0280
13903W        W29520  14.824   1.594   6.514 -0.0593  0.1152 -0.0023
13904W        W29521  14.352   7.892  13.587 -0.0409 -0.1199 -0.1215
13905W        W29522  16.276   3.775  13.238 -0.2335  0.0304 -0.2777
13906W        W29523  12.408   3.418   2.679  0.3850  0.0554  0.3772
13907W        W29524  15.070   8.154   5.447 -0.0182  0.1447  0.0425
13908W        W29525  13.186  12.225  17.226 -0.1135 -0.1847 -0.0395
13909W        W29526   2.652   7.791   2.044 -0.0608 -0.3476  0.1183
13910W        W29527  13.618  17.140  12.360 -0.1289  0.0321 -0.0811
13911W        W29528   5.596  15.257  11.678 -0.1605 -0.0705 -0.1913
13912W        W29529  14.658   8.778   6.410  0.0056  0.1910 -0.2985
13913W        W29530   8.235   9.066  14.614  0.1236  0.0323  0.1635
13914W        W29531  16.055   3.176   3.054  0.1149 -0.3471  0.1575
13915W        W29532   4.012  13.284   1.860 -0.1132  0.3964  0.3015
13916W        W29533  17.113  13.381  14.492 -0.0423 -0.0098  0.3642
13917W        W29534   3.178   5.344  15.567 -0.0100 -0.2167 -0.1836
13918W        W29535  14.587   0.234   0.249  0.3563 -0.0078 -0.1602
13919W        W29536   3.100  12.307   1.132 -0.1229  0.0622 -0.0437
13920W        W29537  12.543  13.526   0.189 -0.0864 -0.0534  0.0171
13921W        W29538   0.126  17.417  15.423 -0.0166 -0.0305  0.0409
13922W        W29539   4.249  13.439  15.734  0.0076  0.2810  0.1180
13923W        W29540  13.584  15.277   2.268  0.2045  0.0863  0.0550
13924W        W29541   1.915  13.012   0.324  0.3010  0.0161 -0.1341
13925W        W29542   2.075  12.356  14.090 -0.0600 -0.1695 -0.2044
13926W        W29543   3.753   9.895   1.441 -0.1499 -0.1737 -0.0789
13927W        W29544  11.505   4.416   4.151  0.1469  0.4403 -0.1442
13928W        W29545   0.453   4.966  12.690  0.1573  0.0478  0.3438
13929W        W29546   9.335  13.450   0.696 -0.0901 -0.3188  0.0817
13930W        W29547  12.679   5.057   0.003  0.1816 -0.2423  0.0083
13931W        W29548   5.901   9.108   6.172  0.2332  0.0237  0.0562
13932W        W29549  13.193  13.379   5.873 -0.0346 -0.0362 -0.2038
13933W        W29550  13.100   3.979  12.586 -0.1780 -0.0565  0.0871
13934W        W29551  14.430  11.500   5.911  0.3527  0.1746 -0.0164
13935W        W29552  16.028   4.911  16.416  0.2171  0.1858  0.1128
13936W        W29553   2.823   3.882  14.463  0.0116  0.0038  0.2427
13937W        W29554   6.441   6.839  12.554 -0.1699  0.0669 -0.4366
13938W        W29555   1.813   4.682   1.843  0.1032  0.1928  0.0455
13939W        W29556  17.103  12.008  12.310  0.2116 -0.0563  0.0357
13940W        W29557   4.360  16.775  17.212 -0.2519  0.2029 -0.1282
13941W        W29558  12.067  16.710  11.672  0.2100  0.0274  0.0776
13942W        W29559   4.072  14.328   2.109  0.4008 -0.2326  0.0911
13943W        W29560   6.278   0.314  13.712  0.2001  0.3280 -0.0498
13944W        W29561  16.515  13.244   4.917  0.2032 -0.1772  0.3171
13945W        W29562  14.839  14.506   4.174 -0.1326  0.0697 -0.1831
13946W        W29563   6.330  11.013  12.106  0.1469  0.0216 -0.0127
13947W        W29564  10.016  12.681   2.435  0.0926 -0.1876 -0.0582
13948W        W29565   4.619   2.029  15.458 -0.3582 -0.1112 -0.1503
13949W        W29566   8.163   2.307   4.143  0.1011 -0.1346 -0.3494
13950W        W29567  16.316  11.755   4.019  0.0350  0.1772  0.2370
13951W        W29568   3.393  16.459  16.872 -0.1696  0.0829 -0.1300
13952W        W29569   8.373   5.994  11.878  0.0912  0.1218  0.2772
13953W        W29570   4.069  16.848   0.329  0.1397 -0.1797  0.2007
13954W        W29571  11.309  10.651  14.344  0.1478  0.2188  0.0257
13955W        W29572  11.422  15.533  11.661 -0.0552  0.1207  0.3786
13956W        W29573   5.325  13.339  16.387 -0.0279 -0.1105  0.2043
13957W        W29574  10.327  13.770   0.608  0.1256 -0.1166  0.3027
13958W        W29575  12.154   8.901  16.517  0.0503  0.2101 -0.1600
13959W        W29576   7.202  10.371   0.267 -0.1172 -0.0207  0.0426
13960W        W29577   7.223  10.993  15.966  0.0821  0.2815  0.0452
13961W        W29578  15.096   9.214  15.909 -0.1146  0.1223  0.1321
13962W        W29579   3.455  14.358   1.384  0.1259 -0.0677 -0.0334
13963W        W29580   9.889  10.418   4.737 -0.1341 -0.0693 -0.2223
13964W        W29581   9.652   9.422  13.647  0.0133 -0.0061  0.2174
13965W        W29582   5.140   8.343   5.846  0.1850 -0.3071  0.2696
13966W        W29583   7.583  11.583   0.582 -0.2806  0.1615 -0.3140
13967W        W29584   1.108   8.680   4.868  0.0093  0.3036 -0.2408
13968W        W29585   4.889  17.287  13.869  0.0852  0.0579 -0.1342
13969W        W29586  15.008   6.208  12.206  0.0663  0.2652  0.1073
13970W        W29587   4.858   7.261   0.410  0.5120  0.0429 -0.2140
13971W        W29588  16.782   7.226  15.763  0.1342  0.3064  0.0718
13972W        W29589   3.573   8.280   0.394 -0.3021  0.0110 -0.1026
13973W        W29590   9.052   5.507  17.010  0.0390 -0.0891 -0.1388
13974W        W29591  14.493   9.354   0.914  0.1113 -0.0099 -0.1257
13975W        W29592   2.818   8.786   3.941 -0.0105 -0.0300 -0.1494
13976W        W29593   5.483   6.254  14.324 -0.0440 -0.0166  0.0247
13977W        W29594   5.282   8.456   2.261 -0.0882 -0.0254  0.1393
13978W        W29595   4.807   9.164  14.620  0.1439 -0.1436 -0.1881
13979W        W29596  16.871  16.340   1.994 -0.1060  0.2071 -0.1321
13980W        W29597   2.399   4.201   3.576  0.1630  0.0877 -0.0403
13981W        W29598  14.361   8.006   1.917  0.1407 -0.0632  0.1851
13982W        W29599  13.680  13.441   5.804 -0.0919 -0.1885 -0.1032
13983W        W29600   3.052   5.140  13.863  0.1405 -0.1170  0.1511
13984W        W29601   3.761   7.103   3.616  0.0898 -0.1052 -0.1010
13985W        W29602   4.438   5.626   3.960  0.2311  0.0844  0.0742
13986W        W29603   9.756   2.498   0.944 -0.0625 -0.3393  0.0081
13987W        W29604   1.938   6.295   2.979  0.1123  0.0582  0.3511
13988W        W29605   8.521   2.831  12.321  0.1264 -0.2817 -0.1966
13989W        W29606   7.677  12.406   5.619  0.0292 -0.1944  0.0190
13990W        W29607   1.360   5.452   4.339  0.0401 -0.0247 -0.0030
13991W        W29608  17.160  14.707   3.435 -0.1067 -0.0802  0.0218
13992W        W29609   2.904   7.898   1.632  0.0563  0.2443 -0.2206
13993W        W29610   9.472  16.310  17.022  0.1548  0.0634 -0.1054
13994W        W29611  12.903  12.774  15.949  0.0016  0.1995 -0.0692
13995W        W29612   3.117   6.382   5.502  0.0588  0.0863  0.0731
13996W        W29613  15.990  11.113   4.554 -0.2220  0.1223  0.3079
13997W        W29614   9.170  10.194  15.217  0.0853 -0.0227 -0.0049
13998W        W29615   1.523  16.375   1.785  0.1351  0.1889  0.2030
13999W        W29616  15.413   4.870   2.337  0.0304  0.2132  0.1658
14000W        W29617  15.935   6.187   0.519  0.3453 -0.2226  0.0846
14001W        W29618  16.331   3.549  16.443 -0.1198 -0.0080 -0.1532
14002W        W29619   5.209   0.060   1.552  0.2349  0.0572 -0.3959
14003W        W29620   3.688  12.475  12.112 -0.2116  0.0186  0.0099
14004W        W29621  16.973  14.311   3.063 -0.0888  0.0056 -0.1653
14005W        W29622  13.549   2.776  10.612  0.0431  0.1139  0.0041
14006W        W29623   7.417   1.183   4.517 -0.0895 -0.1477  0.1947
14007W        W29624  14.945   7.217   1.904 -0.2529 -0.3802 -0.0351
14008W        W29625  10.885   0.919  17.004 -0.2617 -0.1403  0.1604
14009W        W29626   0.594   3.594   5.068  0.0825 -0.0435  0.0414
14010W        W29627   3.845   9.544  16.687  0.1444 -0.0715 -0.1233
14011W        W29628   6.974   3.736   2.234  0.3389 -0.0002  0.1209
14012W        W29629  15.772   4.926   4.617 -0.2805 -0.0916  0.1849
14013W        W29630   5.466  14.277  13.435  0.2464 -0.0201 -0.1181
14014W        W29631   8.667   5.722  16.685 -0.3005 -0.2273 -0.1085
14015W        W29632  13.553  12.077  12.186 -0.0976 -0.1432 -0.1376
14016W        W29633  15.273   7.256  13.192  0.2977  0.2007 -0.3019
14017W        W29634  11.905   9.871   5.768  0.1846  0.2852 -0.3367
14018W        W29635   8.447   4.227  12.482 -0.0845  0.1005 -0.3211
14019W        W29636   7.759   1.117   2.133 -0.4629  0.0140  0.2425
14020W        W29637  13.988   6.028   0.404  0.3611 -0.1504 -0.0438
14021W        W29638  17.153   5.478  14.517 -0.0820  0.1920 -0.0141
14022W        W29639  16.546   1.721   2.201 -0.0839 -0.0908 -0.0261
14023W        W29640  14.776  11.100   2.760  0.0058 -0.1229  0.0070
14024W        W29641   9.136   2.548   4.968  0.1136  0.1339 -0.0130
14025W        W29642  17.430   5.124  14.263 -0.0203 -0.1369 -0.1285
14026W        W29643   3.360  13.832   3.779 -0.1169  0.0192 -0.0188
14027W        W29644   5.003   8.895   5.679  0.3070  0.0566 -0.0111
14028W        W29645  11.868   6.604   3.778 -0.0540  0.1190 -0.0672
14029W        W29646  11.100   0.153  13.099  0.0009 -0.1426  0.0583
14030W        W29647   3.574   9.823   1.901  0.1946  0.1114  0.0616
14031W        W29648  15.084   0.386   3.992 -0.1315  0.2186 -0.1334
14032W        W29649  15.302   3.784  13.258  0.1791 -0.1275  0.1619
14033W        W29650   1.356   8.371   5.738 -0.3460  0.0411  0.4254
14034W        W29651  16.877  12.316  14.842 -0.0968  0.0319 -0.1559
14035W        W29652   9.592   6.051   6.421  0.1025  0.0496 -0.0809
14036W        W29653  15.239  14.660  13.000 -0.2413  0.0704 -0.2431
14037W        W29654   0.221   0.644  13.987  0.2486  0.1697  0.0409
14038W        W29655  13.404   9.292   4.569 -0.1196 -0.0398 -0.0478
14039W        W29656  11.586   9.608   3.515 -0.2534 -0.0948  0.1988
14040W        W29657   7.330   5.508  16.370 -0.0856 -0.0001  0.1318
14041W        W29658   3.870   9.108  11.468 -0.1187  0.1164 -0.0525
14042W        W29659   1.921   7.880   1.436 -0.1757 -0.1937 -0.1275
14043W        W29660  14.779   4.227  16.130  0.2495 -0.1146  0.0948
14044W        W29661   8.643   3.768  12.242  0.0452  0.0193 -0.0288
14045W        W29662   4.791  14.350   2.212 -0.5548  0.2449  0.1161
14046W        W29663  16.047  11.746   3.591 -0.1852 -0.1388 -0.2262
14047W        W29664   5.500   0.330  13.802  0.0577 -0.1842 -0.1656
14048W        W29665   3.124   8.670   1.273  0.2058  0.1818 -0.3206
14049W        W29666   6.723   5.373   0.397 -0.0259 -0.2929  0.1851
14050W        W29667   1.762  12.282   3.296 -0.2939 -0.0325  0.1093
14051W        W29668   9.110   8.376  15.922  0.2214 -0.0931  0.0503
14052W        W29669   7.432   3.865  14.854 -0.0752 -0.1998 -0.2420
14053W        W29670  10.450   9.762   4.428 -0.1697  0.0947  0.1651
14054W        W29671   5.772   3.214   4.046  0.0090  0.1070  0.2190
14055W        W29672   2.053   9.403  14.989  0.0600  0.2064  0.2050
14056W        W29673   6.842   6.067  14.045  0.0331 -0.0725  0.0896
14057W        W29674   5.824   3.890  15.759  0.1819 -0.2069 -0.2526
14058W        W29675  16.497   4.111  15.265 -0.1860  0.4825 -0.0781
14059W        W29676   6.262   5.927  14.040  0.1319 -0.1134  0.2054
14060W        W29677   2.999  16.726  16.930 -0.0518 -0.1343 -0.1947
14061W        W29678  12.122   3.864   2.788  0.1282  0.0757  0.2807
14062W        W29679  14.834   9.207  15.496  0.2452  0.3283 -0.1238
14063W        W29680   8.879  10.297   5.205 -0.3576  0.0879  0.2710
14064W        W29681  12.464  16.349  13.751  0.1419 -0.1353  0.2477
14065W        W29682  17.453   5.295   2.424 -0.0271  0.1520  0.3336
14066W        W29683  16.278  11.242  12.938  0.2092  0.0050 -0.0964
14067W        W29684   5.711   9.278  12.496  0.2718 -0.0955 -0.1281
14068W        W29685   3.986  17.164  17.235 -0.1118  0.3458 -0.1493
14069W        W29686   7.417   9.418   2.985 -0.0392 -0.1084 -0.1206
14070W        W29687   6.116   3.357  17.062 -0.0398 -0.0183 -0.1056
14071W        W29688   8.710   4.523   1.121  0.2969  0.0122  0.1077
14072W        W29689  10.250   5.257  16.035  0.0655 -0.0987  0.1211
14073W        W29690   3.337   4.270   2.012 -0.1579 -0.0341  0.3391
14074W        W29691  12.140   4.147   5.858  0.2820 -0.1303 -0.1177
14075W        W29692   2.592  11.093   0.868  0.0695 -0.0775  0.0223
14076W        W29693   8.963   3.571   0.340 -0.4983 -0.0791  0.0491
14077W        W29694  14.831  11.935   3.722  0.0687  0.0903 -0.3527
14078W        W29695  14.355   4.591   6.130  0.1457  0.0780  0.0205
14079W        W29696  11.187   4.793   2.267 -0.1285  0.1296 -0.0264
14080W        W29697  16.627   8.434  14.525 -0.0642 -0.2037 -0.4249
14081W        W29698  13.480  17.216   3.806  0.1970  0.0323  0.1529
14082W        W29699  12.858   3.770  15.513  0.4108 -0.1211 -0.1656
14083W        W29700   7.444   8.644  15.679  0.1520  0.3201 -0.0501
14084W        W29701   2.713  16.298  16.740 -0.1295 -0.2113 -0.2054
14085W        W29702   1.630  15.157   4.482  0.1216  0.0246 -0.2627
14086W        W29703   7.227   6.198   0.156  0.1549 -0.1521  0.2590
14087W        W29704   4.098   3.186  14.046  0.1356  0.1480 -0.0614
14088W        W29705   3.014   0.062   2.384  0.1620  0.1073  0.2715
14089W        W29706   9.147  17.514   2.430 -0.3510  0.0112 -0.3927
14090W        W29707   5.968  11.256  12.389  0.1230 -0.0759 -0.4231
14091W        W29708  10.483  12.738  13.775 -0.0787 -0.4259  0.0526
14092W        W29709  10.737   3.357  13.373 -0.1453 -0.0384 -0.0269
14093W        W29710   2.781   5.422   4.011 -0.1301  0.0379 -0.1118
14094W        W29711   8.282   1.375  13.966 -0.2690 -0.0634 -0.1073
14095W        W29712   8.855  13.565  14.661  0.2360  0.0579 -0.2162
14096W        W29713  14.874   4.696   1.340  0.2790 -0.1564 -0.0159
14097W        W29714   8.527  12.987   4.347  0.2907  0.0858 -0.1943
14098W        W29715  12.499   9.709  16.494 -0.1179 -0.0252 -0.2694
14099W        W29716   0.837   9.971  17.261  0.0631 -0.0579 -0.1702
14100W        W29717  13.669   9.590   2.406 -0.3138 -0.0622 -0.0982
14101W        W29718   4.857   0.392   1.831  0.0648 -0.0837 -0.1509
14102W        W29719  15.502  12.853   5.156  0.0080  0.1003  0.2883
14103W        W29720  12.717  10.178  15.207 -0.1003  0.2333  0.1947
14104W        W29721  12.117  13.334  12.806  0.0153  0.3868  0.0373
14105W        W29722  10.859  11.705  16.009  0.3955 -0.2574 -0.3543
14106W        W29723  14.479   9.412   1.859  0.0819  0.2188  0.3037
14107W        W29724  10.404   9.521   4.955 -0.0872  0.0779 -0.0029
14108W        W29725   4.619  14.805   4.134  0.0784 -0.1709  0.0870
14109W        W29726   4.317   2.170   1.091 -0.2523 -0.1551  0.0242
14110W        W29727   7.412  12.103  13.575  0.1087 -0.1721 -0.3436
14111W        W29728  14.698  14.388   3.652  0.2797  0.1176  0.0215
14112W        W29729  14.361  16.675   3.003  0.3341  0.0767 -0.1403
14113W        W29730   1.419   2.641  12.205  0.1968  0.0369  0.3587
14114W        W29731  12.534   7.144   4.305  0.3439  0.1000  0.2676
14115W        W29732  13.286   1.245   1.246 -0.4881 -0.1123 -0.0827
14116W        W29733   9.654  10.054  15.152  0.1060  0.3832  0.0422
14117W        W29734   1.067  11.592   2.114 -0.1439 -0.0195  0.0240
14118W        W29735  13.492   7.583   3.294 -0.0015 -0.0296  0.1932
14119W        W29736  12.362   0.233  11.835  0.0913  0.0605  0.2275
14120W        W29737   6.166   3.816  11.996 -0.1763  0.2099 -0.0546
14121W        W29738  16.469   0.604   5.674  0.0899 -0.3431  0.2874
14122W        W29739   5.395   4.498  14.200  0.1099 -0.0604 -0.0850
14123W        W29740   6.389  12.819   5.195  0.3431 -0.0952  0.1705
14124W        W29741   6.746  17.275  12.733 -0.0347 -0.3569  0.2667
14125W        W29742   4.049  16.205  16.386 -0.2734 -0.0137 -0.0611
14126W        W29743  10.727   6.579   3.674  0.2820  0.1286 -0.0840
14127W        W29744  13.240   2.479   3.416  0.0873  0.1998  0.1263
14128W        W29745   7.695  15.941   4.609  0.1436  0.0325 -0.0508
14129W        W29746   5.727  15.291   2.604  0.0708 -0.2554 -0.1889
14130W        W29747   4.668   5.452  15.350 -0.2419 -0.2310 -0.0338
14131W        W29748  13.843   0.307   2.151 -0.0618 -0.0528 -0.0095
14132W        W29749   4.736  11.958   1.093 -0.3905 -0.0840 -0.0759
14133W        W29750   2.302   2.890   2.214 -0.1362  0.0130  0.2099
14134W        W29751  12.383  11.172  16.848 -0.3386  0.2948 -0.4112
14135W        W29752  12.432   7.435  13.356 -0.0288 -0.2307 -0.0805
14136W        W29753   2.792   0.120   3.834  0.1080 -0.1321  0.1219
14137W        W29754   0.970  10.739   1.604  0.1565 -0.1067 -0.2440
14138W        W29755   1.420   2.196   4.157 -0.1166 -0.1863  0.1717
14139W        W29756   7.009  14.146  11.573 -0.0658 -0.1585 -0.1325
14140W        W29757  14.834   9.902  14.075 -0.1123 -0.1252 -0.1122
14141W        W29758  11.066   2.139  15.669 -0.0757  0.1385 -0.0406
14142W        W29759   4.599  13.617   3.532  0.1657  0.0737  0.1915
14143W        W29760  16.449  15.351   5.990 -0.1459  0.0543 -0.0599
14144W        W29761   5.982  10.595   5.311  0.2309 -0.3020 -0.1137
14145W        W29762  15.727   4.305   1.505 -0.0638  0.1023  0.1792
14146W        W29763   7.826   8.488  15.189  0.0175 -0.0107 -0.0377
14147W        W29764  15.379   9.705   3.343  0.0634 -0.1025 -0.0561
14148W        W29765  13.200  15.816  13.587 -0.2513  0.0932  0.2081
14149W        W29766  16.993   6.464   0.339 -0.0658  0.0935  0.2321
14150W        W29767   3.099   4.262  17.106 -0.3333 -0.1283 -0.2569
14151W        W29768  16.182  10.347   5.090  0.2300 -0.0885 -0.0398
14152W        W29769   2.599   0.212   4.782 -0.1886 -0.2200  0.2466
14153W        W29770  15.347  16.998   1.040 -0.1003  0.2747  0.0086
14154W        W29771  15.596   0.914   0.047  0.0829  0.2512 -0.0195
14155W        W29772   5.232  13.101   6.323 -0.0454 -0.0748 -0.1440
14156W        W29773   5.015   7.410   2.520 -0.0266  0.0580 -0.1870
14157W        W29774  11.868   9.223   1.540 -0.1525  0.3101  0.0301
14158W        W29775   3.469   8.149  16.769 -0.1255 -0.1184 -0.0097
14159W        W29776  12.668   0.568  15.759 -0.3855  0.1041 -0.1747
14160W        W29777   8.169  15.794  13.469  0.4339  0.0144 -0.0244
14161W        W29778   1.069   4.475   0.501 -0.0026 -0.0651  0.0389
14162W        W29779   1.094   0.509  13.749  0.2175 -0.2104 -0.3128
14163W        W29780   6.264   6.793  13.627  0.1306 -0.0349  0.2261
14164W        W29781   5.340  17.594   0.429  0.1740  0.0511  0.3729
14165W        W29782   2.147  13.043  15.673  0.1607 -0.2597  0.0690
14166W        W29783  15.076   9.700  12.896  0.0467 -0.2539  0.2867
14167W        W29784   3.052   6.922  17.076  0.0584  0.4094  0.0004
14168W        W29785   0.642  16.923  15.046 -0.0630 -0.1476  0.1733
14169W        W29786   7.089   5.435   0.991 -0.1296 -0.0119  0.0554
14170W        W29787   7.450   7.251  14.609 -0.0580 -0.0051 -0.2268
14171W        W29788   4.185   2.624   0.922  0.1335 -0.2229 -0.3278
14172W        W29789   9.996   8.744  16.141 -0.2105  0.0595  0.3094
14173W        W29790  16.119   7.270  14.337 -0.2574  0.1576 -0.0070
14174W        W29791   9.251   8.504  11.928  0.1760 -0.0038  0.2226
14175W        W29792  10.031  12.531   2.965  0.1306 -0.2947  0.3224
14176W        W29793   0.717  12.489   0.664 -0.1205 -0.0692 -0.1517
14177W        W29794   5.956   2.110   3.389  0.0096  0.0552 -0.3254
14178W        W29795   0.560   4.625  16.408  0.0947 -0.0504  0.1604
14179W        W29796  11.753   6.773  13.969 -0.0062 -0.0039  0.0749
14180W        W29797  16.244  14.974  11.924  0.0986 -0.1579  0.3451
14181W        W29798   6.286   8.474   2.043  0.4447  0.1986  0.1139
14182W        W29799   6.124  10.967   1.061 -0.0336  0.0634  0.1763
14183W        W29800  11.311  15.000  16.498 -0.1437  0.0674  0.0405
14184W        W29801   9.024  10.208   1.685  0.1913  0.0466  0.1212
14185W        W29802  10.994   3.731   4.355 -0.0607 -0.2536  0.3662
14186W        W29803  12.300  12.313  11.927  0.1768 -0.1050 -0.0229
14187W        W29804   4.925  13.611   0.738 -0.0344 -0.3929 -0.2020
14188W        W29805  10.130  13.408   0.825 -0.0858  0.3653  0.0085
14189W        W29806   2.471  14.729   1.179 -0.1303 -0.1643 -0.1733
14190W        W29807   7.628   8.010   4.901 -0.0486  0.0560 -0.0713
14191W        W29808   8.549   5.492   5.885  0.1959  0.0185  0.3582
14192W        W29809   0.068   3.559  11.154  0.0076 -0.1810 -0.0529
14193W        W29810   6.978   2.663   4.102  0.0330  0.2767 -0.0957
14194W        W29811  15.478  11.128  12.802  0.1552 -0.2285  0.0522
14195W        W29812   4.574   1.520  13.492 -0.1134  0.0315 -0.0497
14196W        W29813   7.580   3.122  11.367 -0.3575 -0.2102 -0.1142
14197W        W29814   5.016  11.313   0.400 -0.1181  0.0616 -0.0606
14198W        W29815  17.572   3.160   2.410 -0.1496 -0.0068  0.0794
14199W        W29816  12.689   4.456  14.790 -0.1054  0.1185  0.1528
14200W        W29817   3.256  11.697   4.316  0.1181  0.2171 -0.1965
14201W        W29818  15.254  14.535   5.170 -0.1048 -0.0153  0.0720
14202W        W29819   7.380   9.493  12.376 -0.0212  0.0953 -0.1700
14203W        W29820  11.781  14.328   1.219 -0.0335  0.1334  0.0458
14204W        W29821   1.562   0.959   2.934  0.1236 -0.0994  0.0060
14205W        W29822   8.053   9.417  15.492  0.5198 -0.4743  0.2386
14206W        W29823  16.602   7.627  15.041 -0.0431  0.1608  0.3808
14207W        W29824  14.870   9.609   3.233  0.1689  0.0647 -0.0555
14208W        W29825  14.728   8.957   4.019  0.2511  0.2949 -0.0072
14209W        W29826  13.342   9.527   5.068  0.1028  0.0798  0.2104
14210W        W29827  13.822  13.829   0.414  0.1285  0.0019  0.2716
14211W        W29828  15.632   6.636  13.408  0.0530  0.0057  0.0618
14212W        W29829  11.815   7.435   2.577 -0.1116 -0.0892 -0.1252
14213W        W29830   5.629   5.188  14.427 -0.2085  0.0716 -0.0042
14214W        W29831   4.070  15.188   1.532  0.0040  0.0243 -0.2397
14215W        W29832  12.260  14.394   1.360 -0.2649  0.0062  0.0324
14216W        W29833  10.845   3.062   0.218 -0.2471 -0.3492  0.0086
14217W        W29834  12.470  15.561   2.790  0.2065  0.1478 -0.0110
14218W        W29835   8.831  10.413  16.690  0.0885  0.2466  0.1858
14219W        W29836   1.621  14.166  13.815 -0.4214 -0.1967 -0.0744
14220W        W29837   8.080  12.957  14.617  0.0170  0.1577 -0.1634
14221W        W29838   8.738   6.988   1.289  0.1569  0.0693  0.5298
14222W        W29839   0.687   8.488   0.631  0.0469  0.1689  0.0512
14223W        W29840  13.214   5.155   2.238 -0.3141 -0.0387 -0.1686
14224W        W29841   9.969  12.108   0.424 -0.1140  0.1321 -0.0207
14225W        W29842   9.554  14.482  13.518  0.0512 -0.0723 -0.0021
14226W        W29843   9.743   0.908  15.254 -0.0854 -0.3888 -0.1818
14227W        W29844  17.525   9.624  11.745  0.2469  0.2164  0.1629
14228W        W29845   6.252   4.671  13.069  0.2250  0.2072 -0.1900
14229W        W29846   2.214   7.890  16.930  0.0597  0.1731  0.0896
14230W        W29847  15.177   4.394   0.630 -0.1096 -0.0934 -0.0290
14231W        W29848   7.607   7.532   4.770  0.0877 -0.0580  0.4094
14232W        W29849   7.626   1.565  13.725 -0.1156 -0.1942 -0.0800
14233W        W29850   6.158   7.526   0.346 -0.0998 -0.0155  0.1449
14234W        W29851   1.478   0.312  14.590 -0.0797  0.0986 -0.3906
14235W        W29852   3.632  13.210  16.994 -0.0941  0.0173 -0.0238
14236W        W29853   1.894   1.633   1.973  0.0583 -0.0037 -0.1267
14237W        W29854  17.349  17.084   0.319  0.0792 -0.0707  0.1442
14238W        W29855   3.385   7.466   3.656 -0.2517  0.0699  0.1176
14239W        W29856   6.196   1.868  15.973 -0.0706  0.1996 -0.0778
14240W        W29857  13.374   8.303   4.860 -0.0114  0.4557  0.1673
14241W        W29858  10.059   9.425  15.950 -0.1895 -0.2121  0.1333
14242W        W29859   4.069  10.744  13.572  0.2320  0.0695  0.0961
14243W        W29860   5.943   0.290  15.968  0.0653 -0.0518  0.0760
14244W        W29861   1.016   4.301   3.853 -0.1044 -0.3775  0.4668
14245W        W29862   4.705  11.073  16.410  0.2189 -0.1264 -0.1143
14246W        W29863  17.289   8.231   6.197  0.0893 -0.2280 -0.2472
14247W        W29864   2.702  14.497  14.500 -0.1632  0.0353 -0.0716
14248W        W29865  17.021   9.190  15.756  0.1480 -0.1161  0.0511
14249W        W29866  11.328  10.524  16.110  0.0010  0.1306 -0.0190
14250W        W29867   5.319   1.720  17.258  0.0953 -0.0815  0.2541
14251W        W29868   4.643   3.708  11.096 -0.0534  0.1151  0.1975
14252W        W29869  16.009   1.351   0.654 -0.0605 -0.2820 -0.0573
14253W        W29870  10.490  16.341  17.152  0.2572  0.1240  0.1836
14254W        W29871   9.743  12.468  11.847 -0.0500  0.2319  0.2808
14255W        W29872  11.402   9.766   5.858 -0.0441 -0.0228 -0.4358
14256W        W29873  13.420  11.499   3.317 -0.2206 -0.1370 -0.0270
14257W        W29874   0.532   3.049  13.215 -0.0029 -0.1300 -0.2818
14258W        W29875   0.521  17.617  11.747  0.1618  0.2209  0.0866
14259W        W29876  16.612  16.283   4.357  0.3186  0.1695  0.1127
14260W        W29877   7.600   9.086   0.638 -0.2495 -0.0104 -0.0038
14261W        W29878   5.773   8.639   4.378  0.2854 -0.0712  0.2397
14262W        W29879   1.066   6.201   1.119  0.1170  0.0264 -0.1057
14263W        W29880   4.010   7.839  13.696  0.0206  0.0253  0.1044
14264W        W29881   5.097  12.714  13.844 -0.2141  0.0780 -0.2334
14265W        W29882   0.887  17.148  15.859  0.1869 -0.0042  0.0197
14266W        W29883   7.807   5.760  13.276  0.1192 -0.0362 -0.1493
14267W        W29884   3.669   9.339   1.385  0.0403  0.4259 -0.1072
14268W        W29885   0.991  12.449  13.675  0.0729  0.0218 -0.3908
14269W        W29886   4.214   9.121   2.863 -0.1373  0.0901  0.1878
14270W        W29887  11.135   4.879   5.164 -0.2034 -0.1423 -0.1131
14271W        W29888   0.618  11.643  14.303 -0.1064  0.0974  0.0280
14272W        W29889   4.366   9.671  16.306  0.2322 -0.1043 -0.1322
14273W        W29890  13.336   9.686  15.948 -0.1008  0.1014  0.0752
14274W        W29891   5.084  11.484   3.955 -0.0751 -0.1326  0.1224
14275W        W29892  12.729   1.017   5.248  0.2260 -0.0060  0.0879
14276W        W29893   1.408  16.541  14.866 -0.0674 -0.1175  0.4239
14277W        W29894   3.225  16.946   3.801 -0.2320  0.0160  0.1039
14278W        W29895  11.597  15.920   3.732 -0.0517 -0.1032 -0.0364
14279W        W29896   0.889  14.693  16.843  0.0411  0.2139  0.2206
14280W        W29897  12.809   2.251   5.563  0.1658  0.2857 -0.3080
14281W        W29898  12.890  16.796  14.579  0.0361  0.3610 -0.0403
14282W        W29899   6.802   4.692  12.925 -0.2657  0.4538 -0.2624
14283W        W29900   2.684   5.409   5.308 -0.0642  0.0128 -0.1109
14284W        W29901  17.618  16.205  10.624 -0.0143 -0.0870 -0.2730
14285W        W29902  14.499  13.136   0.153  0.2277 -0.0925 -0.2786
14286W        W29903   3.749   2.748   1.244 -0.1137 -0.2699 -0.1533
14287W        W29904   5.229  15.658  13.240 -0.4467 -0.2444 -0.1159
14288W        W29905  13.255   2.714  13.952  0.1105  0.0718  0.0699
14289W        W29906  13.546   6.284   2.072 -0.0002 -0.2299  0.3253
14290W        W29907   0.616   4.745   3.212  0.0850  0.0555 -0.0213
14291W        W29908  11.129  16.254   5.706 -0.1620 -0.0159 -0.1849
14292W        W29909   7.950   5.934  12.769  0.1492  0.0607 -0.0619
14293W        W29910  17.373   6.875  14.823  0.0448  0.4279 -0.2403
14294W        W29911   3.713   0.291   1.707 -0.1857 -0.0477 -0.0223
14295W        W29912  13.194   0.441   2.820 -0.2264  0.1370  0.2696
14296W        W29913   9.748   3.452   3.052 -0.0282  0.0010  0.0402
14297W        W29914  17.080   7.917  15.767 -0.1658 -0.0217  0.2012
14298W        W29915  16.960   6.436  11.267 -0.1148  0.2233 -0.1926
14299W        W29916  11.816  15.629  17.174  0.0049 -0.0253 -0.2842
14300W        W29917  11.418   9.233   6.285  0.2401 -0.0459  0.2108
14301W        W29918  14.205  11.553  12.965  0.0709  0.1378 -0.0788
14302W        W29919   6.664  15.599   5.436  0.0902  0.0441 -0.1598
14303W        W29920   2.085   9.885   3.081 -0.3057 -0.0533  0.0542
14304W        W29921  15.815  16.950   5.544 -0.0996 -0.0638  0.2727
14305W        W29922  10.479  16.938  16.409 -0.1831 -0.1353 -0.2447
14306W        W29923  11.465  13.867  15.986 -0.4452  0.1681 -0.1737
14307W        W29924   8.192   6.194  14.573  0.2304  0.0348  0.1172
14308W        W29925  14.990  15.071   0.019  0.0880  0.1648  0.1058
14309W        W29926  13.396   3.435   3.585 -0.2338  0.0846  0.0252
14310W        W29927   0.008  13.480   5.471 -0.1605  0.1706  0.0307
14311W        W29928   1.117   0.418   1.190 -0.2667 -0.2371  0.1170
14312W        W29929  15.993  16.885  12.480 -0.1325  0.1070  0.0531
14313W        W29930   7.123   5.824  13.342  0.1278  0.1717 -0.0136
14314W        W29931  13.359   0.976  13.502 -0.0383 -0.1673  0.0496
14315W        W29932   0.330   7.286  12.587 -0.1299  0.0836 -0.0341
14316W        W29933  16.992   6.948   5.139 -0.0167  0.1995  0.0744
14317W        W29934  13.472   4.294   5.450 -0.3097 -0.0752  0.0284
14318W        W29935  16.506  10.514   0.809  0.1199  0.0519 -0.0576
14319W        W29936  11.087   3.077  13.633 -0.1164  0.0178  0.0455
14320W        W29937   0.288  14.267  12.267  0.0051  0.0626 -0.2077
14321W        W29938   0.269   7.250  14.094 -0.2158 -0.1395 -0.0528
14322W        W29939  10.088  12.346  14.761  0.1943 -0.0423  0.2520
14323W        W29940  12.325   5.190  13.718  0.2943  0.1730 -0.1009
14324W        W29941   7.266   7.778  15.750 -0.1277  0.1559 -0.2368
14325W        W29942  14.831   6.970  16.662 -0.2309  0.0572 -0.2497
14326W        W29943   0.229   1.825  16.837  0.2058 -0.1514 -0.1175
14327W        W29944   7.826   2.704   2.026  0.2715  0.1784  0.0945
14328W        W29945   4.118  13.535   4.113  0.3691  0.0961 -0.4464
14329W        W29946   0.608  10.523   3.314 -0.0140 -0.3171 -0.0304
14330W        W29947   6.611   0.419   1.888  0.0420  0.1081 -0.0325
14331W        W29948   5.234  10.281   5.351  0.0468 -0.0085 -0.0929
14332W        W29949   9.883  11.716   4.149  0.3732  0.1115  0.0556
14333W        W29950   5.884  16.803  13.183  0.0512 -0.2452 -0.1995
14334W        W29951  15.286   4.513   3.214 -0.2577 -0.0588 -0.4349
14335W        W29952   5.931  15.243  13.177  0.1080 -0.1094 -0.1150
14336W        W29953  15.300   5.130  17.220  0.2740 -0.2520 -0.2078
14337W        W29954  14.072   6.211  12.140  0.3030 -0.1555  0.1074
14338W        W29955  15.333   2.686  16.793  0.0507 -0.1012  0.0573
14339W        W29956   5.620   5.950  16.282  0.1473 -0.1481 -0.0605
14340W        W29957   5.848   1.608  16.257 -0.1204  0.0261 -0.1580
14341W        W29958   6.611   8.472  16.771 -0.0562 -0.1621 -0.1822
14342W        W29959  14.669   9.829  12.484  0.0141 -0.1937 -0.2486
14343W        W29960   8.938   7.869  13.738  0.2840 -0.0442 -0.1654
14344W        W29961  16.088   4.413   2.827  0.2257  0.0648  0.4971
14345W        W29962  10.120   5.554   4.148 -0.2345  0.2203  0.1319
14346W        W29963  12.490   4.944   5.566  0.2203 -0.0890 -0.2726
14347W        W29964  15.169  12.836   2.396 -0.0161 -0.0616 -0.3382
14348W        W29965  12.138   9.803  16.058 -0.0540  0.1359 -0.0859
14349W        W29966   9.000   3.922   5.998 -0.3738 -0.0259  0.1504
14350W        W29967   8.386   5.319  12.371  0.0336  0.2617  0.0876
14351W        W29968   8.375  14.680   2.560 -0.2612  0.0511  0.0747
14352W        W29969   5.677  17.073  16.385 -0.3985  0.0841  0.1169
14353W        W29970  12.954  10.919   5.835 -0.1398  0.0752 -0.0153
14354W        W29971  14.768   4.030  13.417 -0.0597  0.2769 -0.2408
14355W        W29972   3.841   3.914  12.223 -0.1029 -0.0947  0.0504
14356W        W29973  13.327   5.294  12.652  0.3150  0.2775 -0.0257
14357W        W29974  16.510   4.586  15.949  0.0441  0.0329  0.0283
14358W        W29975  13.981   1.521  14.521 -0.0881 -0.0592  0.0075
14359W        W29976  15.043  13.548   6.071  0.0897 -0.3947 -0.0693
14360W        W29977   3.634  11.026   0.453  0.0159  0.0083  0.1608
14361W        W29978   3.507   4.345   3.391 -0.0695  0.1316  0.2136
14362W        W29979  17.246   8.573   4.860 -0.4086 -0.2288  0.3159
14363W        W29980   2.788   5.435  15.218  0.2034 -0.0204  0.1268
14364W        W29981   5.869  11.923  13.842  0.1062  0.4329 -0.0651
14365W        W29982   7.418   8.426   1.675 -0.3066  0.0187 -0.0711
14366W        W29983  10.911  10.641  14.642 -0.0445 -0.0119  0.3460
14367W        W29984  11.669  16.034   5.087 -0.0025 -0.0137  0.1034
14368W        W29985  15.401   9.894   0.871  0.1870  0.0963  0.1844
14369W        W29986  11.826   4.712   3.865  0.1643 -0.0251  0.0695
14370W        W29987  13.974  11.108   5.203  0.0289 -0.0160 -0.1860
14371W        W29988   7.603   5.849  16.714  0.0620  0.0069 -0.0619
14372W        W29989  11.753  10.067   6.362 -0.1174 -0.1482  0.1781
14373W        W29990  11.942   9.544   1.179 -0.1864  0.3023  0.0381
14374W        W29991   9.502   3.527   0.167  0.1779  0.0338  0.0445
14375W        W29992  11.108   1.100  11.310  0.3026 -0.1163  0.4534
14376W        W29993  13.729   7.937   2.936  0.0793  0.2027 -0.3982
14377W        W29994   3.319  16.484   5.333  0.2155 -0.1606 -0.2963
14378W        W29995   8.137   5.644  16.773 -0.3148 -0.1463  0.0520
14379W        W29996  16.241  10.266   4.216  0.3343  0.2948 -0.2346
14380W        W29997   8.927   1.980  12.217 -0.0629  0.1153 -0.1373
14381W        W29998  14.725  13.682   5.017 -0.1801 -0.0932  0.1065
14382W        W29999   0.396  12.177   3.158  0.2246 -0.0558  0.0482
14383W        W30000  15.877   5.479  13.057 -0.0334 -0.3823 -0.1514
14384W        W30001   3.300  14.526  15.422 -0.1087  0.2379  0.1081
14385W        W30002   4.760   5.076  13.718  0.0312  0.1746 -0.1567
14386W        W30003   7.121   4.613   2.647  0.0853 -0.2773 -0.1925
14387W        W30004  13.511  10.290   4.408 -0.2407 -0.2757  0.0140
14388W        W30005   4.200  11.777  16.877  0.0215  0.1453  0.0299
14389W        W30006   6.193  11.243   0.283  0.0851 -0.1386  0.2699
14390W        W30007   2.663  10.665  13.536 -0.0429  0.0375 -0.0970
14391W        W30008   1.023  12.770  16.568 -0.0814  0.1662  0.1257
14392W        W30009  17.446   3.375   0.700 -0.1760  0.0469 -0.0344
14393W        W30010   7.969   3.941  14.745 -0.2904  0.0738  0.0521
14394W        W30011  11.325  17.131  13.495 -0.2580  0.2365 -0.2146
14395W        W30012   4.285   0.747   1.745 -0.0769  0.2363 -0.0987
14396W        W30013  13.632   9.351  17.185 -0.0165  0.0419  0.4473
14397W        W30014   2.024   4.744  13.147 -0.3420 -0.1350  0.2351
14398W        W30015   4.628   8.736   5.113  0.1386  0.1453 -0.0761
14399W        W30016   4.665   0.199   2.719  0.0027  0.3145  0.0854
14400W        W30017  14.244   0.575  16.929 -0.0176 -0.1763 -0.1217
14401W        W30018  15.669   0.036  12.412 -0.0040  0.1604 -0.2984
14402W        W30019  15.548  15.525  11.626 -0.1083  0.1357 -0.0963
14403W        W30020   9.317   7.020  13.248  0.2276 -0.2194  0.1603
14404W        W30021   3.947   1.939  12.169  0.0123 -0.2857 -0.0519
14405W        W30022   0.045   1.527   4.870 -0.3682  0.2051 -0.2357
14406W        W30023  11.729  11.740   4.401  0.2794 -0.0708  0.1452
14407W        W30024   0.088  10.822   2.097  0.0132 -0.0173  0.0579
14408W        W30025  10.015   0.021   0.029 -0.2269 -0.1569 -0.1042
14409W        W30026  13.299   3.806  16.888  0.3793  0.0784 -0.0741
14410W        W30027   1.614   4.543   1.111  0.3102 -0.0292 -0.1504
14411W        W30028   1.918  13.887  14.109  0.3282 -0.2882 -0.4159
14412W        W30029   0.869   4.584  13.782  0.3223  0.0451 -0.1781
14413W        W30030  11.987   4.892   4.986  0.1573  0.2159  0.2571
14414W        W30031   8.567   7.871   1.086 -0.0519 -0.1779 -0.1883
14415W        W30032   4.094   4.403   2.040  0.0752 -0.0966  0.2381
14416W        W30033  13.294  15.502   3.548 -0.1092 -0.0946  0.2591
14417W        W30034   3.514   8.830  14.307  0.1463 -0.1289  0.0400
14418W        W30035   6.673   1.708   2.718  0.0416  0.1494 -0.3701
14419W        W30036   5.459   2.500   5.768  0.0195  0.0319  0.1736
14420W        W30037  13.398  10.391  14.377 -0.3890 -0.3536  0.1241
14421W        W30038   7.714  13.673  14.868 -0.0786 -0.0820  0.1112
14422W        W30039  15.723   5.460   3.977  0.1798  0.0854  0.0390
14423W        W30040   2.256   6.237   0.956  0.2886  0.1024  0.1803
14424W        W30041  15.297   0.756  12.024 -0.1227 -0.0820  0.2661
14425W        W30042  10.033   1.219   5.673 -0.2807 -0.0811 -0.1252
14426W        W30043  12.350   0.815  13.280  0.0509 -0.0088  0.2634
14427W        W30044   7.602   1.761   2.706  0.0313  0.0719  0.0094
14428W        W30045  13.319  12.910   4.396  0.1122  0.0928  0.2386
14429W        W30046   5.833   0.616   3.377  0.1950 -0.3623  0.1542
14430W        W30047   1.832  14.695  15.565 -0.1174 -0.4166 -0.0139
14431W        W30048   3.611   7.577  15.017 -0.2948  0.1302  0.1928
14432W        W30049   9.977  11.429   1.039  0.0316 -0.0075 -0.0182
14433W        W30050  13.132  11.151  15.673 -0.0998  0.1352  0.0687
14434W        W30051   3.029   8.799  13.282 -0.0152 -0.1463  0.1305
14435W        W30052   4.518  10.003   1.643  0.0490  0.0314  0.2555
14436W        W30053  13.349   1.863   5.925 -0.0312 -0.0759 -0.1596
14437W        W30054   2.498  12.606  13.821  0.1043 -0.1073  0.0918
14438W        W30055  14.894   5.498  13.089  0.1498  0.2824 -0.2573
14439W        W30056   5.098  16.453   2.770  0.1820  0.1840 -0.1109
14440W        W30057  10.860  14.031  12.839 -0.1381  0.0288  0.3400
14441W        W30058   7.407   6.898   3.910  0.1517 -0.3451  0.2739
14442W        W30059   6.904   7.316   5.067 -0.0184  0.0301  0.0898
14443W        W30060   9.689   1.036  16.553  0.0051  0.2047 -0.0113
14444W        W30061  14.329  13.925   0.559 -0.1070 -0.2936 -0.4845
14445W        W30062  12.756  15.635   4.366  0.1666 -0.1846 -0.0672
14446W        W30063  10.334  14.823  14.196  0.1858  0.3862 -0.0251
14447W        W30064   3.160   9.894  16.922 -0.2220  0.1320 -0.3304
14448W        W30065   1.060   7.670  14.317 -0.3335 -0.0854  0.1909
14449W        W30066  14.459  16.004  15.578  0.4604  0.1311  0.0036
14450W        W30067   3.149   3.809   2.961 -0.1223 -0.1351 -0.2345
14451W        W30068   4.159   1.377   3.759  0.0647 -0.3191 -0.2659
14452W        W30069   9.486   2.977   2.348  0.2209  0.1717  0.0078
14453W        W30070  14.334  16.503  13.892 -0.1749 -0.1211  0.0546
14454W        W30071  12.587   2.701  16.871  0.0629 -0.1428  0.1020
14455W        W30072  15.163   6.968   5.956 -0.0311 -0.1465 -0.0921
14456W        W30073  16.536   6.848   2.269  0.1305  0.1037 -0.1458
14457W        W30074   5.714   2.917  14.420 -0.4031  0.0181 -0.2291
14458W        W30075   8.014  11.041  13.322  0.2945  0.0971 -0.1933
14459W        W30076   4.808   6.915   7.031 -0.0777  0.0348  0.1506
14460W        W30077   2.164   7.260   2.228 -0.1113  0.0820 -0.0347
14461W        W30078   7.155  12.820   0.897  0.1493 -0.1516  0.3033
14462W        W30079   3.455   5.192  13.552 -0.0864 -0.3850 -0.0633
14463W        W30080   8.079   3.012   0.265  0.1001  0.1317 -0.1671
14464W        W30081  16.651  16.783   3.277  0.2560  0.3154 -0.1898
14465W        W30082   6.190   3.665   3.521  0.0245  0.0046  0.0076
14466W        W30083   7.548   9.991   3.008  0.0903 -0.0467  0.0489
14467W        W30084   5.025  13.864  16.935  0.0293  0.2572  0.0317
14468W        W30085  11.534   8.372   6.119  0.0810 -0.1330  0.0600
14469W        W30086   7.855  12.284  13.818  0.1150  0.4094 -0.0481
14470W        W30087   9.643   0.154   5.533 -0.2218 -0.0496 -0.2758
14471W        W30088   3.244  16.789   2.809 -0.0896  0.1256 -0.2404
14472W        W30089  15.589   6.995   2.920  0.0323  0.0527  0.2010
14473W        W30090   1.543   7.369  14.878  0.2987 -0.0132 -0.1962
14474W        W30091   2.324   8.259   1.993  0.0378  0.0679 -0.0615
14475W        W30092   5.100   0.282   4.643  0.2073  0.1595  0.1739
14476W        W30093   1.347  15.827   5.562 -0.1801 -0.0654  0.0656
14477W        W30094  11.537   8.586  12.412 -0.2408 -0.1688  0.2056
14478W        W30095  10.264   1.665  15.350  0.1403  0.1455  0.2776
14479W        W30096   0.680  16.696   3.048 -0.3149  0.0991  0.2145
14480W        W30097   9.099   4.875   2.409  0.2014 -0.3549  0.0103
14481W        W30098   6.185   4.989  14.714  0.4321 -0.1959  0.1143
14482W        W30099  10.653  13.260  10.744 -0.0394 -0.0254 -0.0331
14483W        W30100  16.044  17.603   0.869  0.0802  0.2028 -0.2070
14484W        W30101  15.499   0.470  15.721 -0.2343  0.1309  0.1180
14485W        W30102   0.757   9.166  16.164 -0.0641 -0.1265  0.1078
14486W        W30103   0.266  10.350   2.046 -0.0489  0.3198 -0.3644
14487W        W30104   8.274   3.874   2.638  0.0231 -0.0311 -0.0358
14488W        W30105   0.890   9.351  13.044 -0.0252  0.2464  0.1413
14489W        W30106  13.592  16.822   6.228  0.0262 -0.0297 -0.2182
14490W        W30107   5.763   0.107   4.756  0.0192 -0.0856  0.1094
14491W        W30108  12.713  13.073  13.837  0.0042  0.0662 -0.2723
14492W        W30109  16.292  11.310   3.649  0.1475  0.0701 -0.0176
14493W        W30110  16.440   8.026  16.782  0.2456 -0.1209  0.0230
14494W        W30111   9.128   8.190   3.215 -0.1948  0.0520  0.0058
14495W        W30112  10.358   6.271   3.876 -0.2867 -0.0749 -0.1117
14496W        W30113  17.207   9.746   0.242 -0.2102 -0.0009 -0.0009
14497W        W30114  15.874   0.662  14.257  0.1186  0.1493  0.2383
14498W        W30115   9.169   0.622   3.122  0.2680 -0.0678 -0.0493
14499W        W30116   6.089  11.306  14.719 -0.2506  0.1719 -0.0191
14500W        W30117   6.106   6.271  13.638 -0.0891 -0.3273 -0.1305
14501W        W30118  15.799  12.439  13.510  0.1367 -0.3023  0.0121
14502W        W30119   2.352  16.139   3.329 -0.5177  0.0564 -0.0882
14503W        W30120   8.608  15.915   0.936 -0.3051 -0.1676 -0.1190
14504W        W30121  11.742  11.103   1.482  0.0378 -0.2833 -0.0443
14505W        W30122  12.612   2.776  15.322 -0.2499  0.2234 -0.1081
14506W        W30123   8.274  13.342   3.035  0.0815  0.4276 -0.0290
14507W        W30124   3.387  12.931   5.590 -0.0414  0.1316  0.0368
14508W        W30125   3.207   5.305  14.407  0.1750 -0.1146 -0.1364
14509W        W30126  17.178  11.202   2.408  0.2707 -0.0046 -0.0172
14510W        W30127   3.174   6.901   2.806  0.1246  0.0424 -0.1954
14511W        W30128   2.408   5.497   0.119 -0.1289 -0.0194  0.2712
14512W        W30129  11.595  16.920  13.076 -0.0100  0.0657 -0.2404
14513W        W30130   4.053   6.516  16.053 -0.1917  0.0155 -0.0225
14514W        W30131   1.322  17.039  15.191 -0.0194 -0.0173  0.0553
14515W        W30132   9.313   8.785  16.162  0.2542 -0.1512  0.0896
14516W        W30133   6.377   7.407  13.302  0.3462  0.1356  0.0034
14517W        W30134   5.517   2.524  14.204 -0.0039 -0.0624 -0.0773
14518W        W30135  13.337   2.961   5.448  0.4463  0.0628  0.2027
14519W        W30136  13.882   3.780  11.960  0.0546 -0.2170  0.2123
14520W        W30137   1.370  11.207   0.225 -0.0907  0.0464  0.0999
14521W        W30138   0.755  17.077   2.689  0.0840 -0.1333  0.3477
14522W        W30139   9.146  11.152   3.894 -0.0808 -0.2066  0.1542
14523W        W30140   8.597   7.446  13.916 -0.3190 -0.0595 -0.2386
14524W        W30141   3.350  12.940   1.129 -0.0934 -0.1850  0.0785
14525W        W30142   7.379   1.928   6.252  0.1019 -0.1304  0.2394
14526W        W30143   4.314   4.614   4.853  0.0014  0.1651  0.1028
14527W        W30144   0.673   1.909  11.965  0.1382 -0.1565  0.1928
14528W        W30145   3.058   6.269  14.461 -0.1399  0.2129  0.0373
14529W        W30146   4.366  15.553   5.170  0.0017  0.1135  0.3551
14530W        W30147   0.077  12.779  16.465 -0.0546 -0.0185  0.1943
14531W        W30148  11.581   1.307  16.460 -0.0170  0.0637  0.0770
14532W        W30149  13.672   5.157   5.173  0.2632  0.1368 -0.0398
14533W        W30150   1.905  14.059  13.410 -0.1951 -0.0627  0.3409
14534W        W30151  16.674  16.964  15.419  0.0707  0.0166  0.2760
14535W        W30152  15.743   9.627   3.844 -0.0089 -0.0324  0.0498
14536W        W30153   6.274   7.800   3.310  0.1335 -0.1807 -0.2324
14537W        W30154   4.219  13.786   1.079  0.2534 -0.3596 -0.2007
14538W        W30155   0.722   3.726   5.517 -0.0446 -0.1140 -0.2082
14539W        W30156   4.858   2.903  12.243 -0.1327 -0.0362 -0.1313
14540W        W30157   2.564   2.691  15.663 -0.1264  0.1393 -0.1485
14541W        W30158   5.992   5.565   6.351  0.1578  0.0999 -0.3391
14542W        W30159   6.107  11.606  16.731  0.0114  0.0427  0.2022
14543W        W30160   7.390   6.106   6.015 -0.0420  0.2892 -0.0963
14544W        W30161   6.894  15.464   3.287  0.2249 -0.0033  0.1067
14545W        W30162  10.771   1.945  11.022 -0.0545  0.1435 -0.1803
14546W        W30163  11.720  13.847   3.711 -0.0019 -0.0814  0.2290
14547W        W30164   0.835  12.932   4.482 -0.0929 -0.0314  0.2539
14548W        W30165  11.035   6.797  15.777  0.2252 -0.1130  0.3892
14549W        W30166   1.110   7.465  16.549  0.0023  0.0093 -0.2085
14550W        W30167  16.339   0.990   6.727 -0.0290 -0.0552  0.2483
14551W        W30168  16.787  14.326   4.939 -0.1161 -0.0414 -0.0121
14552W        W30169   7.530   5.421   4.171 -0.0284 -0.2852  0.1075
14553W        W30170   9.130   9.443  14.368 -0.0074 -0.2038 -0.5455
14554W        W30171  13.532  15.463   0.880 -0.3148 -0.0857 -0.0347
14555W        W30172  15.773  15.409   5.459 -0.0169  0.3730 -0.0927
14556W        W30173  13.037  11.174   5.352  0.2596 -0.1598 -0.1738
14557W        W30174  11.035   1.938   4.467  0.1006  0.2347 -0.1071
14558W        W30175  10.859   4.856  12.273  0.4610  0.2437 -0.2902
14559W        W30176  16.604  10.005  16.452 -0.0454  0.4197 -0.1565
14560W        W30177  14.579  12.728  13.711  0.2614  0.0368 -0.1794
14561W        W30178  13.555   8.840  11.758  0.1657  0.0320  0.1383
14562W        W30179  17.432   4.572   5.986 -0.0410 -0.0167  0.0146
14563W        W30180  17.450   8.596   1.587  0.1379  0.3372 -0.0361
14564W        W30181   8.716  12.365  14.252 -0.2645 -0.1265 -0.3974
14565W        W30182  11.853  10.828  14.441  0.2046  0.1657 -0.3138
14566W        W30183   6.150   2.859  15.476 -0.0852 -0.2060 -0.0666
14567W        W30184   6.313  11.234  17.088 -0.0244 -0.1775  0.1711
14568W        W30185  11.533   5.606   1.795  0.1955  0.0023  0.2632
14569W        W30186   9.546   6.842   3.281 -0.0953  0.1183  0.1676
14570W        W30187  10.777  16.144  12.924 -0.1598  0.0190 -0.0832
14571W        W30188   0.063   5.030   6.036  0.0110 -0.1059  0.0077
14572W        W30189   1.303  17.317   1.920  0.0807 -0.3313 -0.1040
14573W        W30190   6.867   1.691   6.210 -0.0430 -0.1122 -0.4011
14574W        W30191  13.159  10.712   4.575 -0.2233  0.0062 -0.1178
14575W        W30192  10.707  14.405   4.038  0.0777 -0.0150  0.0352
14576W        W30193   8.991  15.964  12.827  0.1514 -0.2887 -0.1985
14577W        W30194  11.122   7.345   1.380 -0.3173  0.0311 -0.3534
14578W        W30195   6.231   9.782  12.280 -0.0875 -0.1215  0.1760
14579W        W30196   7.786   6.928   2.492 -0.0128 -0.0015  0.1053
14580W        W30197  11.378   4.740   1.343 -0.0049  0.0607 -0.0491
14581W        W30198   6.335  11.490  15.830  0.2110 -0.1487  0.5094
14582W        W30199  13.493   1.750  13.134 -0.1053  0.0105  0.1936
14583W        W30200  15.147  12.065  12.932 -0.0924 -0.0629  0.0147
14584W        W30201  17.361   1.506  11.679 -0.4071  0.0771 -0.0033
14585W        W30202  10.583   2.027  12.890 -0.1349  0.1078  0.0352
14586W        W30203   0.157  10.937  13.072  0.1087  0.3395  0.1906
14587W        W30204   7.889  11.562  15.829  0.0553 -0.0445  0.0594
14588W        W30205  15.088   0.625   5.693  0.1704  0.1837 -0.0546
14589W        W30206   1.502   6.026  15.350  0.3148 -0.0489 -0.0307
14590W        W30207  10.888  16.471   3.165 -0.0588  0.0341 -0.1833
14591W        W30208   0.982   4.948  16.257 -0.2006  0.0028  0.2587
14592W        W30209  16.963  12.654   2.444  0.2190 -0.2450 -0.0052
14593W        W30210   4.198   6.455   1.910 -0.0076 -0.1753  0.1846
14594W        W30211   6.499  16.404  16.334  0.1425 -0.0388 -0.1469
14595W        W30212   1.846   2.670   1.908 -0.0141  0.1550 -0.1034
14596W        W30213  11.671   1.570   0.001  0.2055 -0.1208 -0.4112
14597W        W30214   0.690   6.627  16.228  0.0830 -0.0131 -0.1115
14598W        W30215  16.958  15.209  14.851  0.0088 -0.0821 -0.0364
14599W        W30216  12.304   2.251   3.375 -0.2336  0.0873 -0.0360
14600W        W30217  15.462   3.171  16.005  0.1275 -0.2647 -0.0215
14601W        W30218  13.444  10.459   4.999  0.2586 -0.1478  0.0506
14602W        W30219   4.793  17.570  11.749 -0.0205 -0.0546 -0.0375
14603W        W30220  15.622  13.291  14.031  0.0041  0.4472 -0.0326
14604W        W30221   4.160   0.250   1.552 -0.2130  0.2321 -0.1057
14605W        W30222   7.211   1.540   5.396 -0.3378  0.1807 -0.1231
14606W        W30223  14.953   5.671  14.815  0.0072  0.2543 -0.0435
14607W        W30224   3.402  13.273   5.253 -0.1546  0.0039  0.2479
14608W        W30225  13.270   0.876   2.427  0.0269 -0.0996  0.1629
14609W        W30226  11.018  15.022   4.043 -0.3116 -0.4571  0.1587
14610W        W30227   0.180  12.847  14.152 -0.2542 -0.0187 -0.0163
14611W        W30228  11.556   1.372   4.964  0.0909 -0.1823  0.2714
14612W        W30229   3.308   3.103  13.375 -0.0672 -0.2004  0.0971
14613W        W30230   9.953   1.878  15.777 -0.3411 -0.3316 -0.2444
14614W        W30231  13.684   1.176   2.371 -0.1070  0.0451  0.2942
14615W        W30232   9.348   0.652  14.888 -0.5812  0.0182 -0.1237
14616W        W30233   1.104   0.494  17.180  0.1596  0.3688 -0.0009
14617W        W30234   8.789  12.803  13.020  0.3808  0.1499  0.0563
14618W        W30235   7.520  17.208   3.014 -0.1916 -0.0736  0.3735
14619W        W30236   1.605   2.296  16.490 -0.0928 -0.0180 -0.3168
14620W        W30237   0.037  16.840  13.462  0.1169 -0.0947 -0.2448
14621W        W30238   0.296   1.114  13.704  0.0317 -0.0606 -0.1096
14622W        W30239   1.980   4.899   4.590  0.2058 -0.2200 -0.0546
14623W        W30240  14.881   1.138   1.399  0.2930  0.2060  0.0251
14624W        W30241   2.212   3.421   1.850  0.0086  0.0108 -0.2748
14625W        W30242   9.109  16.373  16.400 -0.1010  0.0111 -0.0435
14626W        W30243   6.392  15.391  13.852  0.1113 -0.1881 -0.0507
14627W        W30244   9.620  11.731   3.393 -0.3983  0.0984 -0.1062
14628W        W30245  10.057   3.835   2.392  0.0758 -0.0456  0.1004
14629W        W30246  11.455   1.815   6.165  0.2619  0.0146  0.0782
14630W        W30247   3.325   4.397  13.441  0.1942 -0.0429 -0.0643
14631W        W30248  11.415   3.317   1.317 -0.1031  0.1605 -0.0601
14632W        W30249  17.385   6.337   1.234 -0.1688 -0.0438  0.0489
14633W        W30250  12.346  13.131  15.071  0.3199 -0.2694  0.5594
14634W        W30251  14.182  10.955   2.757  0.0567 -0.2814  0.2551
14635W        W30252   9.875   3.771   4.307 -0.1434  0.0123 -0.0516
14636W        W30253   0.752  10.152  16.090 -0.1671 -0.3579  0.2047
14637W        W30254  10.684   1.232   1.126 -0.0693 -0.0579 -0.2244
14638W        W30255   6.159   2.240   2.018 -0.3958  0.0060 -0.1477
14639W        W30256   6.317  14.997   5.006 -0.1417  0.5254  0.1711
14640W        W30257  13.041  13.885  11.568 -0.0262 -0.0759  0.0049
14641W        W30258  12.147  10.404   0.702 -0.2433 -0.0112 -0.0488
14642W        W30259   9.087  16.868   3.284  0.0684 -0.1960 -0.0251
14643W        W30260  13.205   7.571  12.746  0.0314 -0.0479 -0.0867
14644W        W30261   6.063  17.459  17.146  0.0917 -0.0210  0.1347
14645W        W30262   8.581  16.239  13.676 -0.1944  0.2193  0.0298
14646W        W30263  16.658   5.029   3.562 -0.0107 -0.2717 -0.0709
14647W        W30264  16.248   7.573   0.247 -0.0043  0.1675  0.3473
14648W        W30265   3.904  10.823  13.032 -0.0757  0.1990  0.2313
14649W        W30266  10.417   0.184   0.415  0.4460 -0.0545 -0.0244
14650W        W30267   3.252  13.520  16.830  0.1475  0.1222  0.0334
14651W        W30268  14.919  15.519   0.028  0.1896 -0.2687 -0.1579
14652W        W30269   7.725   9.280  16.730 -0.4067 -0.0348 -0.1406
14653W        W30270  15.468  17.226  12.581 -0.3112 -0.3909 -0.1163
14654W        W30271  12.583   3.583  13.078  0.0472  0.2828  0.0795
14655W        W30272   4.227   1.043  12.019 -0.0800 -0.0807 -0.1875
14656W        W30273   4.350   2.499  16.364  0.2194 -0.1045  0.1264
14657W        W30274  16.202   0.198   0.413  0.2211 -0.0206 -0.0460
14658W        W30275  15.399  11.552  15.204 -0.3709 -0.2694 -0.0704
14659W        W30276  10.043   0.786   3.687  0.0668 -0.0167 -0.0588
14660W        W30277   1.683   3.435   5.611 -0.0041 -0.0319  0.0051
14661W        W30278   6.379   6.175   6.324  0.2325  0.1702  0.2454
14662W        W30279   3.100   9.540  13.990 -0.0384  0.1554  0.0019
14663W        W30280  10.756   7.710  13.227  0.2149  0.0793 -0.0226
14664W        W30281  16.982  17.352   1.002 -0.3096 -0.1231  0.0233
14665W        W30282   4.393  13.975   2.197 -0.0698 -0.2199 -0.2232
14666W        W30283   8.168   4.822   5.180 -0.1676  0.1442  0.0888
14667W        W30284   4.365  12.964   5.495  0.1158  0.0928 -0.0483
14668W        W30285  16.408  10.483   2.834 -0.1411  0.0019  0.0277
14669W        W30286  16.955   4.125   0.419 -0.2245  0.1308  0.0183
14670W        W30287  15.193  11.866  14.017  0.1403 -0.1850  0.2063
14671W        W30288   1.719  12.049   2.120  0.1339  0.2202 -0.0692
14672W        W30289   1.134  14.969   1.422 -0.2005 -0.5078 -0.0287
14673W        W30290   4.865   1.844  13.229 -0.1746  0.2817  0.2935
14674W        W30291   3.797  15.405  14.562 -0.1517 -0.1342 -0.2107
14675W        W30292   2.317  13.006   1.149  0.1068 -0.1619  0.0312
14676W        W30293  12.409  14.701   0.845  0.3143  0.2348 -0.4816
14677W        W30294   2.021  11.815  14.835 -0.1870  0.1109  0.2194
14678W        W30295  10.080  10.087  14.173 -0.0964  0.0528  0.1610
14679W        W30296  17.296  17.111   2.810 -0.2360 -0.0867  0.1295
14680W        W30297  16.740   1.458   5.145  0.4495 -0.1807  0.0324
14681W        W30298  12.806   1.643  15.611  0.0202  0.2955  0.1838
14682W        W30299  17.130  10.647   4.409 -0.1963 -0.0329 -0.0084
14683W        W30300  17.157  12.679  13.943  0.1903  0.2790 -0.3616
14684W        W30301   0.694   0.759  14.534 -0.0982  0.2148 -0.0581
14685W        W30302   8.169   9.593  16.858 -0.0375 -0.2582 -0.0638
14686W        W30303   6.448   4.402   2.022  0.0290 -0.0575 -0.0331
14687W        W30304  16.247   4.938  13.876 -0.0969  0.0567  0.0710
14688W        W30305  11.584  15.311   0.787  0.4468  0.1351 -0.1560
14689W        W30306   0.823  13.425  16.348  0.1044  0.0759 -0.1206
14690W        W30307  15.516   6.000  12.489  0.3989 -0.4725  0.1298
14691W        W30308   4.269  16.790   5.183  0.4051 -0.3179 -0.0619
14692W        W30309   2.020  11.729   0.531  0.3141 -0.2932 -0.2178
14693W        W30310   8.335  14.464   2.966  0.1657  0.2681  0.0013
14694W        W30311   5.110  12.196   4.692 -0.1773 -0.1665  0.0497
14695W        W30312   0.407   8.944   0.146  0.2045 -0.1787  0.1812
14696W        W30313  10.447   5.509  17.149 -0.5656  0.0343  0.2220
14697W        W30314  17.181  11.446  12.206  0.1178 -0.1662  0.3113
14698W        W30315  13.126  10.068   4.899  0.1996  0.0078 -0.0018
14699W        W30316  13.862   3.878  13.615 -0.0536 -0.2617 -0.2030
14700W        W30317  10.859  11.672  15.143  0.1028  0.2761 -0.1161
14701W        W30318  16.811   0.890   0.442  0.0142  0.0619 -0.0375
14702W        W30319   9.156  12.917  12.677 -0.0785  0.1204  0.1141
14703W        W30320  14.638   8.715   4.463 -0.0095 -0.1753  0.2730
14704W        W30321  14.348  15.007   2.532  0.1798 -0.0449 -0.0617
14705W        W30322  11.522   0.394   4.483  0.1191 -0.0790 -0.0119
14706W        W30323  14.452  11.082   2.307  0.0720 -0.2750  0.1094
14707W        W30324   9.775  15.869   5.641  0.3099 -0.1732 -0.1382
14708W        W30325   0.791   6.582   4.656 -0.0212 -0.1329 -0.1127
14709W        W30326  14.986  13.099   2.843  0.4124 -0.2452 -0.1828
14710W        W30327   0.129  10.407  12.850  0.0895 -0.2667  0.3008
14711W        W30328  12.717  15.287  11.763  0.3065  0.1554 -0.2408
14712W        W30329   6.220   3.750  13.390  0.2555 -0.1702 -0.0799
14713W        W30330   2.744  14.995  13.227  0.1103 -0.0135 -0.0025
14714W        W30331   6.665   1.329   5.455  0.2129 -0.0865  0.0493
14715W        W30332   0.887   5.434   5.129 -0.3703  0.0545 -0.1393
14716W        W30333   2.680   6.758   1.001 -0.0149 -0.0488  0.0431
14717W        W30334  17.552   2.771  14.593  0.4769  0.2155  0.0700
14718W        W30335   3.864  16.225  16.883 -0.0924 -0.2189 -0.0054
14719W        W30336  13.327  13.794   2.770  0.0975 -0.1908 -0.0921
14720W        W30337  13.658  15.770  14.812 -0.1517  0.0769  0.0252
14721W        W30338  12.741  16.903  12.939 -0.2255  0.1607 -0.0197
14722W        W30339   7.428  12.563  17.191  0.1548  0.2563  0.2019
14723W        W30340   9.750  15.139   1.822 -0.2791  0.1378 -0.0332
14724W        W30341   1.036   5.399  14.727  0.2117  0.0314  0.3450
14725W        W30342  17.111   9.116   4.750 -0.0902  0.1182  0.1658
14726W        W30343   9.194   0.236  14.095 -0.0479  0.0376  0.0660
14727W        W30344   2.760  16.729   4.666  0.1081 -0.1025 -0.1850
14728W        W30345  17.367   2.295   3.809 -0.0008 -0.0763  0.4236
14729W        W30346  12.268   6.484   0.802  0.1763 -0.0904 -0.1738
14730W        W30347   9.312  13.551   3.922 -0.1623 -0.3230  0.3422
14731W        W30348  17.548   0.163   4.536  0.1926  0.1342 -0.3809
14732W        W30349   9.720   0.814  14.237  0.0664  0.1677 -0.2713
14733W        W30350  11.086  15.179  12.886  0.0605  0.1774  0.0304
14734W        W30351   6.414  16.178   5.574  0.0056 -0.0432  0.2948
14735W        W30352  14.820  11.560   4.975  0.0984 -0.1074  0.1356
14736W        W30353  13.174   3.924   5.802  0.0336 -0.1803 -0.1302
14737W        W30354  12.245   9.596   2.376 -0.2388 -0.1645 -0.1086
14738W        W30355   4.255   5.306  13.977  0.0134  0.1110  0.0864
14739W        W30356  10.880   4.048   0.953 -0.1049  0.0094 -0.1409
14740W        W30357   5.711  16.441   0.848 -0.1302  0.0069  0.1981
14741W        W30358  17.462   6.853   4.884  0.0472  0.3164 -0.1040
14742W        W30359   6.545   6.673  14.535 -0.1688 -0.0395  0.1432
14743W        W30360  10.329  12.991   2.163  0.0725  0.0951  0.0670
14744W        W30361  11.094   9.450  12.142  0.0462 -0.2002 -0.1936
14745W        W30362   5.470  17.219   1.762 -0.0520 -0.0761 -0.2452
14746W        W30363  12.713   2.702   2.707 -0.3925 -0.4862 -0.1219
14747W        W30364   0.036   7.553  17.192 -0.3611 -0.1101  0.1583
14748W        W30365  15.086   8.055  14.873 -0.0709  0.1830  0.0364
14749W        W30366  12.520  10.866   5.151 -0.2203 -0.0541 -0.3790
14750W        W30367   6.586   6.022  13.637  0.0358  0.2774 -0.1650
14751W        W30368   4.373   4.491  16.983 -0.0325 -0.2910  0.0841
14752W        W30369   9.552  13.071  14.424  0.0336  0.0354  0.0737
14753W        W30370  14.465   9.945   0.648  0.0520 -0.0945 -0.2872
14754W        W30371   2.553   4.383  17.039  0.0200 -0.1099 -0.2298
14755W        W30372   2.752   6.715   5.699  0.1466  0.0211 -0.3367
14756W        W30373  16.319  16.968   2.961  0.1488  0.3284 -0.0364
14757W        W30374   8.006   6.283   4.091  0.0651 -0.0305  0.0367
14758W        W30375   2.307  11.622  12.714  0.3581 -0.1564 -0.0196
14759W        W30376  13.242  14.435   1.004  0.2159  0.3673  0.0369
14760W        W30377  15.849   6.408  14.668  0.1017 -0.1815  0.0593
14761W        W30378   5.962  12.418   1.107  0.1007  0.1511  0.1251
14762W        W30379   9.955   5.232  17.063  0.2366  0.0682 -0.3827
14763W        W30380   3.906  10.110  12.259 -0.0099  0.1269 -0.1445
14764W        W30381   2.587   4.318   6.351  0.2044  0.0391 -0.0484
14765W        W30382  14.092  16.095  17.245  0.2767 -0.1652  0.2825
14766W        W30383  11.892   8.363   2.036 -0.1416 -0.1185  0.0918
14767W        W30384   2.479   2.423   2.608  0.1102 -0.0355  0.1003
14768W        W30385  12.758   5.032   1.989  0.2399 -0.3182 -0.1442
14769W        W30386   4.530   4.611  16.528 -0.3120  0.1175 -0.3880
14770W        W30387   6.998   4.057  13.496  0.0291  0.3127  0.2104
14771W        W30388  15.342   2.087  11.561 -0.0701 -0.2720 -0.0048
14772W        W30389   9.385   4.617   6.516 -0.3527  0.1749 -0.1770
14773W        W30390   7.055   7.835  16.588 -0.2061  0.0253  0.0518
14774W        W30391   6.077   2.327   4.959  0.1159 -0.2834 -0.2121
14775W        W30392   4.591  11.749  13.036  0.6422 -0.1218  0.0176
14776W        W30393  10.239   4.746  13.773 -0.0722  0.1141  0.0287
14777W        W30394  15.647  10.523   3.695 -0.1909 -0.1152  0.5387
14778W        W30395   5.403   6.761   3.320  0.0563  0.2120 -0.1718
14779W        W30396   5.818   9.670   2.978  0.2703 -0.0744 -0.0506
14780W        W30397   7.203   2.235  16.374  0.3113 -0.1614  0.2559
14781W        W30398   1.748   2.276   2.671 -0.0832  0.0185 -0.1714
14782W        W30399   5.732  12.232  12.816 -0.0507  0.0482  0.0376
14783W        W30400  17.100  16.107  14.998 -0.1993 -0.0781  0.2076
14784W        W30401   5.731  15.751  11.665  0.1169 -0.2392  0.2535
14785W        W30402  16.287  14.882   2.383 -0.3044  0.0573  0.1257
14786W        W30403  10.234   7.591  13.221 -0.1098 -0.0354 -0.0475
14787W        W30404   6.583  11.632   2.628  0.0434  0.0603  0.0103
14788W        W30405   0.171   0.658   4.714  0.1498 -0.3317  0.1445
14789W        W30406  12.161  16.514   4.007 -0.1081  0.1609  0.3207
14790W        W30407   9.443  12.079  13.139 -0.0473 -0.0254 -0.1859
14791W        W30408   1.968   8.528  17.114 -0.1942  0.0240 -0.3073
14792W        W30409   1.982   3.323  13.008 -0.1256  0.0178 -0.3553
14793W        W30410  15.982  15.527   2.941  0.2500  0.1416  0.4177
14794W        W30411   4.535  12.113   2.286  0.1912 -0.3578 -0.2418
14795W        W30412   7.510   4.352  17.255 -0.3952 -0.1941 -0.0087
14796W        W30413   3.131  15.203   5.443  0.2497 -0.1176  0.0091
14797W        W30414   2.641   0.101   6.250 -0.2976 -0.2268 -0.1266
14798W        W30415   7.492   7.594  12.517  0.0096 -0.4643 -0.0093
14799W        W30416  12.764   7.791   5.242 -0.1504  0.0129 -0.1595
14800W        W30417   2.745  12.224   2.602  0.1021 -0.1766  0.0885
14801W        W30418   2.564   3.717  16.511 -0.3524 -0.0535 -0.4060
14802W        W30419   9.490  15.052   4.868 -0.5294  0.0180 -0.3027
14803W        W30420  13.261   8.210  16.642 -0.0658  0.1586  0.1777
14804W        W30421  16.393   4.633   5.825  0.1984  0.0670 -0.2965
14805W        W30422   7.045  14.989   3.289  0.0369 -0.1376  0.2106
14806W        W30423  14.824   7.095   0.411 -0.1328 -0.0451 -0.2265
14807W        W30424   4.966   1.444   3.116  0.0224  0.0724 -0.1156
14808W        W30425   1.196  14.742  16.445 -0.0254 -0.1508  0.4038
14809W        W30426  14.822   4.931   4.659  0.2156 -0.4191  0.0882
14810W        W30427   9.836   3.362  11.657 -0.1030 -0.0120 -0.1531
14811W        W30428   6.740   7.435   0.361  0.0764  0.0835 -0.5361
14812W        W30429  12.837   3.828  12.111 -0.0377 -0.0849 -0.2072
14813W        W30430   9.438   8.768   1.760 -0.1158  0.0455  0.1438
14814W        W30431   2.916  16.507   3.796 -0.2014 -0.2359  0.0575
14815W        W30432   1.604  11.326   0.627 -0.2189  0.1033  0.0059
14816W        W30433  17.416   3.244  14.355  0.3124 -0.0261 -0.0760
14817W        W30434  14.020  12.462   2.767 -0.1864  0.1983 -0.0418
14818W        W30435   3.596   2.361  16.411  0.2342  0.0376 -0.0539
14819W        W30436   1.684   8.426  11.442  0.0997 -0.1300 -0.0220
14820W        W30437   7.368   5.397  16.830  0.3384 -0.0654  0.1909
14821W        W30438  15.360   9.183  12.798 -0.2872  0.2423  0.1170
14822W        W30439   6.666   8.933   3.244  0.2258 -0.1661  0.0420
14823W        W30440  14.900   7.661  13.551 -0.0738  0.0431  0.1388
14824W        W30441  10.611  16.724  15.947 -0.1956 -0.1681 -0.1261
14825W        W30442   1.728   2.349   5.745  0.5176  0.1835  0.0342
14826W        W30443  10.151  17.560  11.444 -0.2774  0.1692  0.2766
14827W        W30444   2.504  14.299  14.989 -0.1338 -0.1461 -0.0539
14828W        W30445   7.454   4.201  12.184 -0.0084 -0.0244 -0.3553
14829W        W30446  15.102  14.621  12.490 -0.2657 -0.1488 -0.3391
14830W        W30447   8.546   2.983   2.641 -0.2395 -0.4688 -0.0152
14831W        W30448  14.241  10.628  12.734 -0.4168 -0.0073  0.0547
14832W        W30449   2.984  10.219   3.151  0.2554 -0.1265 -0.4265
14833W        W30450   3.603  15.000   5.447 -0.0596 -0.2197 -0.2360
14834W        W30451  16.462   6.451   5.991 -0.2838 -0.0650  0.0702
14835W        W30452   8.460   0.558   1.866  0.0695  0.2702  0.0728
14836W        W30453   6.975  13.825  15.489 -0.2000  0.0082 -0.0629
14837W        W30454   2.559   3.248   4.813 -0.0753 -0.1096  0.0788
14838W        W30455   1.000   7.358  14.824  0.0952  0.1975 -0.1108
14839W        W30456   0.238   0.953  14.385 -0.2699  0.1406  0.2913
14840W        W30457  16.225   2.421   1.357  0.1678 -0.0307 -0.2849
14841W        W30458   9.641   1.394  13.435  0.1848 -0.4484 -0.0254
14842W        W30459   2.972  11.712  14.709  0.2047  0.0495 -0.0140
14843W        W30460  13.207  12.452  12.042  0.2277 -0.1182 -0.4351
14844W        W30461  11.674  15.277  13.843  0.1012 -0.1062 -0.0394
14845W        W30462   1.626   0.783  14.725  0.0339  0.1712 -0.0840
14846W        W30463   1.794   0.841  14.204  0.1940 -0.0882 -0.0721
14847W        W30464   8.480   9.920  12.919  0.0808 -0.0657 -0.1447
14848W        W30465  11.930   0.040  11.659  0.1041 -0.3493  0.1950
14849W        W30466   6.764   8.171  14.266 -0.1112 -0.0905 -0.2406
14850W        W30467   9.119   7.681  14.180  0.0199  0.3052 -0.0671
14851W        W30468   6.657   3.839  13.168 -0.1180  0.0350 -0.1180
14852W        W30469   4.969   1.620   4.101  0.1128  0.3490 -0.0724
14853W        W30470   8.190  12.105   5.005  0.1404 -0.2520 -0.2445
14854W        W30471   5.452  16.833   2.551  0.1153  0.0312 -0.1244
14855W        W30472  15.778  12.933   3.106 -0.2557  0.0277 -0.6596
14856W        W30473   5.986  17.079  12.331  0.1195 -0.0226  0.2337
14857W        W30474  14.197   1.993  14.316 -0.3483 -0.3900 -0.0257
14858W        W30475   6.870  14.806  11.488 -0.1626  0.1493 -0.1447
14859W        W30476   4.256   2.248   3.125 -0.1650 -0.0127  0.0500
14860W        W30477   5.492   2.394   4.264 -0.3407  0.3375 -0.0479
14861W        W30478  13.316  10.031  14.073  0.2243 -0.0779  0.1396
14862W        W30479   1.123   2.901   2.457 -0.2430 -0.1541 -0.2703
14863W        W30480   1.505  15.079   2.354  0.0006 -0.0619 -0.2133
14864W        W30481   4.635  14.847   4.680  0.0578  0.1036 -0.1320
14865W        W30482   5.394   7.383   2.141 -0.0736  0.2026 -0.1575
14866W        W30483   8.785   7.121   1.804  0.0354 -0.0359 -0.1161
14867W        W30484  16.598   1.708  15.076  0.1772 -0.0623 -0.0003
14868W        W30485   3.777  15.242   4.647 -0.0060 -0.0161  0.0730
14869W        W30486   0.935  12.129  15.083  0.1703  0.0336  0.1285
14870W        W30487  15.517  12.586  11.628 -0.2373  0.0430 -0.1518
14871W        W30488  10.755  13.808   1.834  0.0022 -0.0304 -0.4976
14872W        W30489  15.206   8.503   5.100  0.1839 -0.0033 -0.4390
14873W        W30490  13.862   2.926   5.520  0.3202  0.1741 -0.1372
14874W        W30491   3.954  14.880  13.483 -0.1126  0.1607 -0.2034
14875W        W30492   8.912  13.840   4.216  0.5424 -0.2184  0.3474
14876W        W30493   6.947   1.361  12.876  0.2812 -0.1071 -0.0924
14877W        W30494   3.020   3.704   3.497 -0.1118 -0.1784 -0.1380
14878W        W30495  17.222   6.079  13.142 -0.0128  0.0368  0.2969
14879W        W30496   6.233  12.747   3.764  0.2135 -0.0545 -0.1209
14880W        W30497   7.786  15.031   1.910  0.1313  0.0163 -0.1280
14881W        W30498  11.257  16.641  15.018 -0.0513  0.1866  0.3928
14882W        W30499   5.548   5.036   5.593 -0.0193  0.1319 -0.0353
14883W        W30500  17.544   8.585  14.358 -0.0009  0.1027  0.0950
14884W        W30501  15.726   7.775   2.742  0.1853 -0.1327  0.0155
14885W        W30502  12.092  12.270   1.061  0.4969 -0.1327 -0.1922
14886W        W30503   9.935  14.372   5.567 -0.0430 -0.2263  0.3494
14887W        W30504   9.460  11.596  13.020  0.0777 -0.0029 -0.1157
14888W        W30505  12.422  14.827   3.820 -0.0214 -0.2501 -0.0361
14889W        W30506   2.143  11.039  16.770 -0.0578  0.3891  0.1269
14890W        W30507   3.977   2.704  13.947  0.0264  0.2741 -0.0101
14891W        W30508  13.215   6.635  14.444 -0.1564  0.1688 -0.0183
14892W        W30509  12.847   6.608  14.931 -0.3079  0.2672  0.1721
14893W        W30510   5.329  17.032  14.359  0.0351 -0.1673  0.0104
14894W        W30511   5.376  10.045  13.167 -0.0266  0.0457 -0.1472
14895W        W30512  11.998  14.599  13.613 -0.0555 -0.0942 -0.1261
14896W        W30513  13.868   9.578   4.592 -0.1085  0.2968 -0.2018
14897W        W30514   1.916   6.458   1.260  0.1140 -0.2465 -0.2404
14898W        W30515  12.006   0.512  11.397  0.0219  0.0243 -0.2460
14899W        W30516   1.672   7.450  12.190  0.1758  0.2112  0.0099
14900W        W30517  16.231   5.930  13.842  0.4213 -0.0846 -0.1512
14901W        W30518  12.999   3.064   0.197  0.2148  0.1122  0.3239
14902W        W30519  10.352  15.208   4.559  0.2309  0.1090  0.3346
14903W        W30520  16.846  13.514   5.139 -0.1154  0.2114  0.1301
14904W        W30521   5.859  11.077  16.974  0.2316 -0.1745 -0.0708
14905W        W30522  16.012   7.253   5.183  0.1080 -0.0830 -0.1574
14906W        W30523   2.732   9.955  14.863 -0.2902 -0.0952 -0.2240
14907W        W30524   4.340   8.380   0.315  0.0075  0.3051  0.1236
14908W        W30525   8.257  12.947   1.582 -0.1857  0.0276  0.2952
14909W        W30526   1.175  13.863   4.855  0.1015 -0.0528  0.1357
14910W        W30527  14.092  12.972   5.026 -0.0623 -0.1035  0.2881
14911W        W30528  15.478  10.969   3.966  0.0786 -0.2305 -0.3814
14912W        W30529   4.365   6.501   3.294 -0.1557  0.0252 -0.0298
14913W        W30530  14.020  13.821   1.762 -0.2190 -0.0955 -0.1525
14914W        W30531   7.260   4.844  11.671 -0.0599 -0.0411 -0.1832
14915W        W30532   7.760   5.577   2.818 -0.2842  0.0047  0.3246
14916W        W30533   0.066   3.107   5.199  0.0247  0.2118 -0.0312
14917W        W30534   0.815  10.473  14.682  0.1458 -0.1446 -0.2332
14918W        W30535   9.992  15.716  16.623 -0.0994 -0.1920 -0.0639
14919W        W30536  14.359  14.646   3.351 -0.3010 -0.2830  0.2169
14920W        W30537  17.148   0.160   0.213  0.2039  0.0293 -0.0628
14921W        W30538   0.492  13.945   1.999  0.1138  0.1479  0.1318
14922W        W30539   5.594   1.198   3.513  0.0443  0.2207 -0.0612
14923W        W30540   3.907   5.453   1.060  0.1936 -0.2281  0.0022
14924W        W30541  10.229   2.809   2.552  0.0386 -0.3256 -0.0133
14925W        W30542  15.582  13.268   4.455  0.0637  0.1169 -0.2775
14926W        W30543   0.983   4.864  15.440 -0.1336  0.0439 -0.4733
14927W        W30544   4.725   6.303  15.364 -0.0338 -0.2454  0.1800
14928W        W30545  14.869   1.907   2.912 -0.1909 -0.0963  0.0708
14929W        W30546   7.910  13.320   1.401 -0.2707 -0.1320 -0.0668
14930W        W30547   8.887   7.831  13.207 -0.1651  0.0717 -0.4809
14931W        W30548  17.365   6.206   3.150 -0.1574 -0.5049 -0.2774
14932W        W30549  16.741   2.205   1.405  0.0754 -0.0556  0.1199
14933W        W30550   8.148   0.185   0.662  0.1749  0.0449  0.1212
14934W        W30551   9.164  12.304  14.624  0.0245  0.0223 -0.0518
14935W        W30552   3.899  14.175   1.659 -0.0328  0.0997 -0.0144
14936W        W30553   9.348   8.103  13.120  0.3669 -0.2947 -0.2760
14937W        W30554  11.220   6.873  14.704  0.0545 -0.1281  0.0862
14938W        W30555  13.156   3.545  15.115  0.1874  0.3496  0.0721
14939W        W30556  11.338  17.585   0.438 -0.2412  0.1151  0.1090
14940W        W30557  12.355  11.047  14.466 -0.0450 -0.3274 -0.1608
14941W        W30558  12.265  12.556   3.680 -0.2043  0.3966  0.0551
14942W        W30559   3.334  12.079  14.833 -0.1461  0.0876  0.0186
14943W        W30560   2.654  15.544   5.455  0.0258 -0.1280  0.0166
14944W        W30561  12.325   4.573   4.655 -0.0794  0.1031  0.2919
14945W        W30562   0.711  16.798   0.296 -0.0788  0.0190  0.2392
14946W        W30563   5.810   1.436   2.165 -0.1548  0.0048 -0.0450
14947W        W30564   1.498   5.440  12.857 -0.1069 -0.1771  0.1154
14948W        W30565  15.128   8.521  15.124  0.1657  0.0731  0.3701
14949W        W30566  11.744   8.888  16.917  0.0059  0.3708  0.4020
14950W        W30567   9.590   4.920   6.165  0.0726 -0.0240  0.0295
14951W        W30568   6.525  12.027  13.370  0.1746 -0.3191 -0.3253
14952W        W30569  10.347   4.003   1.117  0.0599  0.2591 -0.4737
14953W        W30570   4.763   6.385  12.198  0.1360 -0.1418  0.1091
14954W        W30571   5.926   2.090  16.538 -0.3326 -0.0491  0.1600
14955W        W30572  14.143   9.794   1.682  0.1418  0.1456  0.0762
14956W        W30573  14.107   9.044  13.075 -0.0093  0.2476  0.0231
14957W        W30574   1.137   4.455   2.434  0.0867 -0.2711  0.2151
14958W        W30575   7.186  15.188  11.424 -0.1878 -0.2937  0.0037
14959W        W30576   8.840   5.339  15.162  0.0803 -0.2884  0.1530
14960W        W30577   2.216   2.117   6.409  0.3020  0.0512  0.1192
14961W        W30578   8.107  11.417  17.193 -0.0148 -0.1802  0.1255
14962W        W30579  11.001   1.902   3.742 -0.1587 -0.0938  0.0594
14963W        W30580   8.053   3.779   4.599 -0.0053 -0.1981  0.1438
14964W        W30581   5.356   2.116  16.492  0.1983 -0.0050  0.2105
14965W        W30582   0.980   5.226  12.608 -0.0578  0.1702 -0.1789
14966W        W30583  13.707  12.434  12.907  0.0508  0.1347 -0.2571
14967W        W30584   3.159  14.066  13.243 -0.1856 -0.1676  0.2401
14968W        W30585   2.272   9.860  15.032 -0.0483  0.0096  0.0219
14969W        W30586   8.654   6.359  13.718  0.0686 -0.2467 -0.1425
14970W        W30587   0.052   1.378  14.535  0.0090 -0.3844 -0.2435
14971W        W30588   0.459   7.724   5.384 -0.1642 -0.0960 -0.0609
14972W        W30589   5.081  12.822  15.403  0.0281  0.0637  0.1535
14973W        W30590  12.966  16.013   4.008  0.0265 -0.1451 -0.2227
14974W        W30591   2.404   2.829   2.879 -0.4404  0.1645 -0.1256
14975W        W30592   2.642   7.345  16.438  0.2733  0.0818 -0.0722
14976W        W30593   2.116   6.113  16.159  0.0098 -0.0434 -0.2357
14977W        W30594  16.337  12.615  15.284 -0.1271  0.2081  0.1663
14978W        W30595  17.385   1.120   0.259 -0.1003  0.1051  0.3734
14979W        W30596   2.544  10.033  12.845 -0.0042  0.0824 -0.1987
14980W        W30597  10.476   4.239  14.501  0.0631  0.1084  0.2274
14981W        W30598   6.500   8.348  17.258 -0.0858 -0.2053 -0.0455
14982W        W30599  14.539  11.666   3.024 -0.0027 -0.0495  0.4185
14983W        W30600   8.016   2.936  14.633  0.0992  0.2591  0.0189
14984W        W30601   2.508  11.505   4.924 -0.1244 -0.0460 -0.0111
14985W        W30602   3.065   6.795  13.947  0.0656 -0.2437 -0.3044
14986W        W30603   0.973  14.398   2.042 -0.1915 -0.0645  0.0698
14987W        W30604  12.055   1.551  15.843  0.3010 -0.0150 -0.2292
14988W        W30605  15.872  14.038   3.146  0.0198 -0.2847 -0.0424
14989W        W30606   1.338  11.079  14.725  0.1006  0.1032 -0.2491
14990W        W30607  13.990   2.409  13.343  0.0652 -0.0963 -0.0776
14991W        W30608  13.497   8.964  14.856 -0.0058 -0.4072 -0.1574
14992W        W30609  11.354  11.135  16.311 -0.0117  0.0917 -0.0168
14993W        W30610  10.589  17.278   3.164  0.0110 -0.1505  0.1067
14994W        W30611  12.232  11.815   5.308 -0.0031  0.1594  0.0988
14995W        W30612   8.686  11.207   3.529 -0.3070  0.2872  0.2989
14996W        W30613  17.386   4.240  15.005 -0.4348 -0.1381  0.3123
14997W        W30614   7.337   6.447   1.078  0.0662 -0.0574  0.0895
14998W        W30615   8.633   2.791  13.142  0.0063 -0.3167  0.0347
14999W        W30616   5.252  12.996   4.329  0.0614 -0.3984 -0.2088
15000W        W30617  10.282   0.279  11.109  0.1876 -0.1047 -0.1123
15001W        W30618   2.509  14.062   4.354  0.2860  0.1462 -0.3663
15002W        W30619  16.395  12.264   3.415  0.3450 -0.0274  0.0578
15003W        W30620  12.273  10.470   1.196  0.2005  0.1714  0.0022
15004W        W30621   2.146   5.036   1.741  0.0482  0.2644 -0.0179
15005W        W30622   6.912  12.473  14.952  0.1732 -0.2188 -0.0263
15006W        W30623   0.954  15.118   2.048  0.2852 -0.5034 -0.1541
15007W        W30624  10.088  17.534  12.241 -0.0969  0.0631 -0.1619
15008W        W30625  11.483   7.056   1.218 -0.1092  0.3610 -0.0833
15009W        W30626   9.012   1.676  11.709 -0.3439  0.3817  0.3980
15010W        W30627  16.266   9.998   2.932 -0.0021  0.0986  0.1247
15011W        W30628   1.494   8.304  15.019  0.1224  0.0202 -0.4093
15012W        W30629  10.045   2.807   1.259 -0.1522 -0.1290  0.0033
15013W        W30630  15.696  13.675  11.404 -0.0265  0.2132 -0.0036
15014W        W30631  10.820   7.489   3.582 -0.0890 -0.1327 -0.1428
15015W        W30632  16.651  11.762  16.872  0.2891 -0.1168  0.0239
15016W        W30633  15.626   4.952   4.077  0.0094 -0.2076 -0.1616
15017W        W30634  16.888  13.855  13.739  0.1182  0.4746  0.1878
15018W        W30635   9.124  17.453   3.417  0.0058  0.2080  0.2987
15019W        W30636  10.910   0.905  11.788 -0.2386  0.0364  0.3108
15020W        W30637  11.415   1.526   3.728 -0.1407 -0.0123 -0.0479
15021W        W30638  15.327  16.063  16.427 -0.1267  0.0393 -0.1875
15022W        W30639  11.358  12.084  13.980 -0.2957 -0.0005  0.2374
15023W        W30640  12.922  15.978   0.554  0.1952 -0.0362 -0.2856
15024W        W30641   0.226   5.915  15.283 -0.0844 -0.1881 -0.0270
15025W        W30642   2.691   7.161   0.074 -0.0850  0.1714  0.3131
15026W        W30643   2.007  12.266  16.661  0.0734 -0.2027  0.2401
15027W        W30644   3.542  13.065   0.204  0.0479  0.1330  0.3803
15028W        W30645   0.268  14.215  16.540  0.2189  0.1073  0.2572
15029W        W30646   3.734   8.707   4.682  0.0030  0.0803 -0.1540
15030W        W30647  14.132   3.815  15.213 -0.0814  0.0798  0.0758
15031W        W30648  14.617  15.867   5.447 -0.1167  0.0810 -0.2717
15032W        W30649  16.407  13.076  12.672 -0.2570  0.1308 -0.0995
15033W        W30650  10.459  12.452  16.480  0.2268 -0.1372  0.2338
15034W        W30651  10.326  15.609   1.477  0.0229 -0.1407 -0.3251
15035W        W30652   6.883  11.742   2.245 -0.2043 -0.3746 -0.1902
15036W        W30653   3.708   1.607   3.131 -0.0470  0.1895  0.2157
15037W        W30654   1.230  10.399  12.054  0.2621 -0.0433  0.4752
15038W        W30655   1.681  16.444   1.275  0.0244 -0.2118  0.1092
15039W        W30656  12.552   3.694  16.318 -0.2256  0.2036  0.0523
15040W        W30657   8.400  16.590   4.952  0.1118 -0.2212 -0.0324
15041W        W30658  14.388   7.163   0.097 -0.1685 -0.3802  0.0171
15042W        W30659  11.557  16.244   6.504 -0.0280  0.4504 -0.1524
15043W        W30660  15.587  16.973   2.445 -0.1430 -0.0685 -0.1089
15044W        W30661   4.120   3.942  16.108  0.0441  0.0341  0.1393
15045W        W30662   1.331   5.755  15.814 -0.1409  0.0495  0.2224
15046W        W30663   8.437  17.472   0.903  0.0190 -0.0869 -0.0832
15047W        W30664   4.941  10.534   4.183 -0.1168  0.2437 -0.0776
15048W        W30665   7.289   3.620   6.048  0.1024 -0.0081 -0.1899
15049W        W30666  15.090  15.661  16.867 -0.0597  0.1031 -0.0707
15050W        W30667   5.766  16.687  16.789  0.3334 -0.0758  0.0118
15051W        W30668   4.398   4.599   1.679 -0.0795 -0.0742  0.3585
15052W        W30669   1.209   9.897   2.880 -0.1597 -0.1381  0.0692
15053W        W30670   6.825   5.826  12.650 -0.0053  0.1319 -0.1145
15054W        W30671  10.838   0.388   2.873 -0.0080 -0.1680  0.1239
15055W        W30672  13.836   8.225  13.675 -0.1841 -0.1296  0.3215
15056W        W30673  10.400   7.379  11.862  0.0021  0.0465  0.1318
15057W        W30674  11.029  12.978  15.711  0.1613  0.1104  0.1310
15058W        W30675  17.260   9.730  12.168  0.6252  0.0173 -0.0594
15059W        W30676   6.571   9.597   0.985  0.4439  0.1945 -0.1759
15060W        W30677  11.324   1.375  12.623 -0.0521 -0.0871 -0.0587
15061W        W30678  14.751  16.897   3.260  0.0304  0.1575 -0.1670
15062W        W30679   0.284   1.135  15.178  0.1583  0.0458  0.2163
15063W        W30680  10.137   6.261   5.201  0.0525 -0.0248 -0.1484
15064W        W30681   6.668  10.112  12.253 -0.0840  0.1660  0.1319
15065W        W30682  12.141  15.282   0.657  0.1557  0.2203  0.2316
15066W        W30683  14.270   4.729  15.434 -0.0274  0.1576  0.1628
15067W        W30684   7.769  11.804  13.708 -0.2104  0.2975  0.0895
15068W        W30685  15.323  10.641   2.162  0.1710  0.1981  0.2127
15069W        W30686   0.246   6.223   2.852 -0.2891  0.0191 -0.2199
15070W        W30687   3.214  14.621  14.373 -0.1616  0.1559  0.2046
15071W        W30688  10.073   9.333  13.481 -0.0558 -0.0344 -0.2922
15072W        W30689  11.260   1.149   1.755  0.0063  0.0903  0.0772
15073W        W30690   4.790   7.443   4.129  0.2114  0.0409 -0.1538
15074W        W30691   5.683  10.376  16.648  0.0520  0.1716  0.2589
15075W        W30692   2.291  14.530  15.442  0.0980 -0.0831  0.2914
15076W        W30693  10.973  13.284  14.177  0.0564  0.0463  0.0027
15077W        W30694  17.355   3.222   1.179  0.1425  0.0502 -0.0053
15078W        W30695   2.734   0.758  13.500 -0.0257  0.0513  0.0988
15079W        W30696  13.874   6.796   5.008 -0.4713  0.0023 -0.0978
15080W        W30697  11.574  16.561  11.810 -0.0546  0.1101 -0.0694
15081W        W30698   7.987   8.891   0.253 -0.3454  0.3245 -0.0984
15082W        W30699   9.744   1.896  16.251  0.1773  0.2499 -0.1762
15083W        W30700  14.585   9.913  16.424 -0.2349  0.1435  0.1315
15084W        W30701   6.357   1.675   3.228  0.0610 -0.1717 -0.0098
15085W        W30702   6.163  14.634   1.364  0.0101  0.0259 -0.1609
15086W        W30703   3.265  14.212  12.214  0.1256  0.0475  0.0130
15087W        W30704   8.677   0.088   0.489  0.1388  0.0581 -0.1285
15088W        W30705  10.815  16.347  14.938  0.1327  0.1342 -0.0260
15089W        W30706   1.497  13.561   4.418 -0.2678  0.1538 -0.0175
15090W        W30707   6.800   9.993  14.003 -0.1014  0.3128  0.0976
15091W        W30708  10.333  14.498  15.446  0.4328  0.1416 -0.2079
15092W        W30709   3.458   2.945  15.063  0.2593  0.2849 -0.0330
15093W        W30710   3.895   7.275   4.762 -0.0883 -0.0713  0.0158
15094W        W30711   2.503  15.092   5.666  0.0688  0.3173 -0.0857
15095W        W30712   2.680  10.143   1.452 -0.1030 -0.3260 -0.0521
15096W        W30713   6.981  11.129   1.352  0.0927  0.1740 -0.0306
15097W        W30714   9.363  15.734  12.586  0.4341 -0.0987  0.1746
15098W        W30715   6.961   6.644   2.730  0.1011  0.1220 -0.2250
15099W        W30716   2.483  11.213  12.325 -0.0597 -0.1401  0.0611
15100W        W30717  11.274  13.758   2.001  0.1720  0.0840 -0.0708
15101W        W30718   7.575   2.187   1.369 -0.2958 -0.0287 -0.0144
15102W        W30719   7.026  14.676   4.468  0.1260 -0.0483  0.3220
15103W        W30720   7.839   8.748  12.412  0.1065  0.0312  0.3528
15104W        W30721   1.532   4.328  15.065 -0.1003 -0.1923 -0.0821
15105W        W30722  14.428   3.662   4.618  0.0090  0.1851 -0.3301
15106W        W30723  13.188   0.151  11.392 -0.0423  0.2107 -0.1177
15107W        W30724   4.747  10.541  14.502  0.0818 -0.1346 -0.2030
15108W        W30725  13.261  12.006   3.030 -0.3863  0.0461  0.0015
15109W        W30726  16.078   1.599   2.465 -0.0095  0.3294  0.2154
15110W        W30727   8.842  17.033  16.975 -0.0273 -0.0779 -0.1499
15111W        W30728  13.670   2.973   2.804  0.0298  0.3566 -0.1577
15112W        W30729  14.749   7.260  14.298 -0.1326 -0.0314 -0.2772
15113W        W30730   1.507  13.053   2.086 -0.0964  0.2001  0.4535
15114W        W30731  13.808   7.858  15.808 -0.0939  0.2566 -0.3320
15115W        W30732   3.196   7.526   4.274 -0.2236  0.0550  0.1414
15116W        W30733   3.581  12.197   1.417  0.1344  0.1231  0.2836
15117W        W30734  17.553  17.102   6.050 -0.4703  0.0583 -0.1130
15118W        W30735  15.006   8.757   5.966  0.0438 -0.1569 -0.2873
15119W        W30736   4.859   3.134  14.998 -0.0790 -0.0519 -0.1384
15120W        W30737  12.424   5.300  15.921 -0.2130  0.0829  0.0484
15121W        W30738  10.717   0.456  16.785 -0.1044 -0.1102 -0.1356
15122W        W30739  14.084   5.188   1.897 -0.6157 -0.1310  0.0406
15123W        W30740   7.935   1.353  11.599 -0.1620 -0.0485  0.0525
15124W        W30741  14.408   8.418   2.825 -0.1352  0.1247 -0.0019
15125W        W30742  14.620  15.943  17.004 -0.2998 -0.2034  0.1670
15126W        W30743  16.473  13.033   5.379  0.1116 -0.3158  0.1074
15127W        W30744   2.685  12.412   4.156 -0.1450  0.1289  0.0831
15128W        W30745   4.907   0.455  16.450  0.3198  0.0480  0.1217
15129W        W30746  15.331   4.022   1.662 -0.0023 -0.0358 -0.3203
15130W        W30747   4.090   6.906   6.844  0.1767  0.0915 -0.2215
15131W        W30748   2.449   0.913   2.101  0.0439 -0.0846 -0.0618
15132W        W30749   7.257  11.752   4.662  0.0031 -0.0173 -0.0136
15133W        W30750  16.257  13.542  14.995  0.0863 -0.1998 -0.2910
15134W        W30751   8.296   2.452   3.674  0.2661  0.1701  0.1948
15135W        W30752  12.258  17.069  12.604 -0.0447  0.2702  0.1022
15136W        W30753   8.405   8.954  11.669  0.0139  0.2276 -0.0230
15137W        W30754   8.338   1.082  12.942  0.1680 -0.1807  0.1691
15138W        W30755   5.160   2.067   4.370  0.1027 -0.0561 -0.2708
15139W        W30756  15.853   1.712  14.494 -0.1063  0.2608  0.0362
15140W        W30757  15.554  14.114   5.322 -0.3022 -0.1770 -0.1616
15141W        W30758  17.297   7.543   3.969 -0.3218  0.1204  0.2507
15142W        W30759   7.926  16.488  14.498  0.1681  0.0005 -0.0661
15143W        W30760  11.457  12.023  16.478 -0.1886 -0.3648 -0.3057
15144W        W30761  12.604  15.638   4.907 -0.2397  0.1474  0.3641
15145W        W30762  13.850   3.919  15.647 -0.3235  0.0170 -0.3071
15146W        W30763  13.345  11.257   4.573  0.2015 -0.1321  0.0050
15147W        W30764  14.267  11.917   2.485 -0.0526  0.1723  0.0516
15148W        W30765   2.826   4.919  15.118  0.1833  0.1045  0.0884
15149W        W30766  10.235   3.208   5.697  0.2548  0.3422 -0.1374
15150W        W30767  12.853   3.410  11.777  0.1838  0.1098  0.0275
15151W        W30768   6.489   5.703  14.660 -0.1947  0.2455  0.1442
15152W        W30769  14.219   2.776   4.997  0.0022  0.1620  0.0369
15153W        W30770   6.569  15.089  14.203 -0.0938  0.2504 -0.1722
15154W        W30771   9.168   4.358  10.437  0.0011  0.0649 -0.1267
15155W        W30772   1.783   0.967  11.653 -0.0851  0.2181  0.4449
15156W        W30773   5.524  10.943   3.288  0.1092  0.0088 -0.1141
15157W        W30774   6.962   0.926  11.360 -0.1046  0.1106 -0.0329
15158W        W30775   0.582   5.679   5.570  0.2206  0.1078  0.0576
15159W        W30776   9.461  10.252  14.190  0.0825  0.0711  0.2653
15160W        W30777  15.576  16.442  16.250  0.2996 -0.1953  0.0957
15161W        W30778   9.045  11.805  15.570 -0.0713  0.1418 -0.0264
15162W        W30779  10.629   2.913  15.414  0.4425  0.2137  0.1775
15163W        W30780   8.225  13.635  15.359 -0.1002 -0.1170  0.0215
15164W        W30781  10.925   4.717  13.463 -0.0943  0.0817 -0.0689
15165W        W30782  15.883  16.930   6.026  0.1879 -0.3371  0.0563
15166W        W30783  11.763   5.150   2.521  0.0214  0.0175  0.0949
15167W        W30784  10.453  15.741  13.024  0.2577 -0.0894  0.1533
15168W        W30785  16.092   9.746   3.357  0.1197  0.0478  0.2301
15169W        W30786   5.012   4.413  16.291 -0.0862 -0.1326  0.2584
15170W        W30787   9.437  14.975   2.453 -0.3497 -0.1047 -0.1858
15171W        W30788   5.368   4.376   1.264 -0.0322  0.3219 -0.0954
15172W        W30789  14.359   2.396   3.698 -0.1016  0.2157 -0.2063
15173W        W30790  12.751   0.792  13.681  0.0504  0.0002 -0.2165
15174W        W30791  10.125   1.763  12.722  0.3485  0.0299  0.2122
15175W        W30792  15.575   5.971  16.902 -0.0824 -0.1157 -0.1508
15176W        W30793  14.569   7.263  14.776 -0.0887  0.2516  0.0454
15177W        W30794   3.024  10.408   2.219  0.2232  0.2276  0.5348
15178W        W30795   5.328  12.520   4.392  0.1953 -0.0758  0.2760
15179W        W30796  11.209  15.442   2.647  0.1505  0.1307 -0.1460
15180W        W30797  10.437   9.381  14.144 -0.0439 -0.1747 -0.2621
15181W        W30798   5.329  17.397   3.326  0.0923  0.1016  0.0580
15182W        W30799  15.967   8.824  12.877  0.0318 -0.1928  0.2616
15183W        W30800  17.463  12.999   5.338  0.0287  0.2732  0.2641
15184W        W30801   7.631  17.485   1.259 -0.1627  0.0975 -0.1302
15185W        W30802   6.736  17.524  13.675  0.3084  0.0435  0.0702
15186W        W30803   6.087  17.215  16.667  0.0205 -0.3078  0.1221
15187W        W30804   1.971  16.511  14.802  0.2003  0.0068 -0.1529
15188W        W30805   9.609   4.844   5.194  0.0544 -0.0005  0.0401
15189W        W30806   5.162  16.595  17.238 -0.0349 -0.0824  0.0265
15190W        W30807   0.363  12.247   0.888  0.1701 -0.1755  0.1213
15191W        W30808  17.153   7.368  16.510  0.1782 -0.1371  0.4986
15192W        W30809  15.820   9.945  13.257 -0.5887 -0.0085 -0.0131
15193W        W30810  11.885  13.263  11.847 -0.0960  0.2310 -0.0257
15194W        W30811   6.446   9.697  15.569 -0.0442 -0.0833 -0.0780
15195W        W30812  12.417   6.328  14.967  0.0866  0.0761  0.2452
15196W        W30813  11.968  14.973  14.508 -0.2971  0.1863 -0.2754
15197W        W30814   1.345  17.182   4.493 -0.0299  0.1507  0.2832
15198W        W30815   0.559  15.640  12.261  0.3175 -0.1281  0.1771
15199W        W30816  14.068  14.880   1.977  0.1860  0.0404 -0.3673
15200W        W30817   6.162   6.390   2.520 -0.1249  0.0307 -0.3022
15201W        W30818  13.217   6.892   3.471  0.3208 -0.4846 -0.4102
15202W        W30819   6.872  12.731   5.945  0.0199 -0.0850  0.0483
15203W        W30820   4.048  12.787   2.042 -0.1466 -0.2521  0.1131
15204W        W30821   5.073   1.028  12.533  0.0821 -0.2776 -0.1974
15205W        W30822   4.979   3.785  11.530  0.1956  0.1285 -0.0519
15206W        W30823  17.404  17.527   3.291 -0.4246  0.1813 -0.0383
15207W        W30824  12.736  16.783  15.909  0.1097  0.0125  0.0479
15208W        W30825  11.466   7.190  13.943 -0.1242 -0.0364 -0.0410
15209W        W30826   3.244   3.527  15.783 -0.4334  0.2210  0.1978
15210W        W30827   8.315  13.527  12.289 -0.0469  0.4085  0.4047
15211W        W30828  13.200  17.346  15.368 -0.3147  0.0779 -0.3423
15212W        W30829   0.386   0.614  12.393  0.0399  0.1506 -0.1328
15213W        W30830  10.684   8.149   0.420 -0.0976  0.0147  0.0414
15214W        W30831   0.794   9.261   4.699  0.3085 -0.1895  0.2072
15215W        W30832  11.875   6.620  12.112  0.1794  0.1726  0.0896
15216W        W30833   1.065   6.860   4.332 -0.4473  0.2833  0.1358
15217W        W30834  14.499   6.504  14.999  0.0219  0.2636 -0.1388
15218W        W30835   5.751   3.928  13.062 -0.3497  0.0895  0.1474
15219W        W30836  17.602  10.276  13.675 -0.1223 -0.5778  0.0433
15220W        W30837   9.205   3.100  14.462  0.0322  0.2894  0.1805
15221W        W30838  13.945  17.554   5.141 -0.2380 -0.3267 -0.2298
15222W        W30839   7.708  11.907   5.100 -0.1708 -0.0161  0.2510
15223W        W30840   4.235  16.142   5.874  0.0088  0.0321  0.1788
15224W        W30841  13.162   0.894   1.537 -0.2657  0.1911 -0.0870
15225W        W30842   7.562   8.713   3.180  0.0511 -0.3247 -0.0166
15226W        W30843  14.937   9.187   2.969  0.3518  0.4015  0.5310
15227W        W30844  11.197  12.374   3.828  0.0599 -0.0766  0.0758
15228W        W30845   9.900  11.753   5.368 -0.1795  0.1188  0.0264
15229W        W30846  10.405   7.947   4.251 -0.1824  0.2425  0.0723
15230W        W30847  11.571  11.810   2.130  0.2542  0.2131  0.1022
15231W        W30848  14.055  10.959  12.377 -0.0148  0.0638  0.0213
15232W        W30849   7.270   8.253  14.023  0.0060 -0.0406  0.0065
15233W        W30850   3.857   2.565   3.155 -0.3421 -0.3649 -0.0795
15234W        W30851  14.928  17.532   3.878  0.0801 -0.0327  0.0734
15235W        W30852  12.824   4.752  15.193 -0.0519  0.0658 -0.2394
15236W        W30853   2.146   4.262  12.577  0.1959 -0.0535 -0.1201
15237W        W30854   0.574   5.893   0.000 -0.1180  0.0459  0.2387
15238W        W30855   2.203   3.390  16.149  0.2993 -0.4019  0.0233
15239W        W30856   5.029  16.766   1.777 -0.0960 -0.2140  0.2692
15240W        W30857   7.597   2.671  13.272  0.0259  0.1710 -0.3076
15241W        W30858   2.858  16.891  15.063  0.0425 -0.5671 -0.0059
15242W        W30859   9.086   8.061  12.648 -0.2409 -0.0308  0.0332
15243W        W30860  10.312  17.205  15.989  0.4926  0.2835  0.0703
15244W        W30861   9.317   0.657  16.707 -0.3399  0.0568  0.1424
15245W        W30862  13.495   8.794   0.478 -0.1121  0.0367  0.0122
15246W        W30863   0.810   5.664  14.063 -0.0908  0.0526  0.1776
15247W        W30864   4.088  14.359   3.577  0.1280  0.1079  0.1971
15248W        W30865   6.641   3.601   2.717 -0.1152  0.0137  0.3204
15249W        W30866  10.781   3.916  16.263  0.1453 -0.1598  0.1345
15250W        W30867  16.817  17.017  16.788 -0.2388 -0.1554 -0.1660
15251W        W30868  17.071  10.795  14.155  0.0205 -0.1683  0.1774
15252W        W30869  15.221   3.621   1.372  0.0261  0.1364 -0.1578
15253W        W30870   9.483  11.725   5.609 -0.2249 -0.2384 -0.0806
15254W        W30871  10.503   5.993  12.828 -0.0162 -0.0332  0.0594
15255W        W30872  10.991   3.103  17.027 -0.3685  0.5068 -0.1668
15256W        W30873   8.841   4.258  13.680  0.1783 -0.2065  0.0055
15257W        W30874  13.371  14.215  15.731  0.1485 -0.0959 -0.2170
15258W        W30875   7.355   5.417   4.679  0.0134  0.1019  0.4747
15259W        W30876  11.331   0.532   5.717  0.0498  0.0135 -0.1429
15260W        W30877   3.099   1.229   2.825 -0.0666 -0.0852  0.2188
15261W        W30878  12.366  13.660  13.510 -0.1872 -0.0725  0.2453
15262W        W30879  13.455  15.594   5.107 -0.0670 -0.4901 -0.2841
15263W        W30880  12.484   5.670   0.200 -0.0415 -0.2408  0.1404
15264W        W30881   6.064   2.108   4.303  0.0612 -0.3143  0.0826
15265W        W30882   1.112  16.404   2.723 -0.0100  0.5208  0.1370
15266W        W30883   0.466   0.619   3.791  0.2189  0.1174  0.0386
15267W        W30884  15.727   7.921   1.636  0.1358  0.1617 -0.0036
15268W        W30885   9.028   0.915  12.788  0.0154  0.0910 -0.0154
15269W        W30886   5.507  16.819   4.325  0.0291  0.2293 -0.1254
15270W        W30887   5.266   4.970   5.986  0.4309 -0.0081 -0.1406
15271W        W30888   4.166  15.584  14.286 -0.0437 -0.0978 -0.0374
15272W        W30889   5.796   7.478  13.125  0.0443  0.1520  0.2527
15273W        W30890   3.365  11.206   4.093  0.2708 -0.2987  0.2142
15274W        W30891   5.651  13.231   5.217 -0.4261  0.0880  0.2962
15275W        W30892  13.903   7.364  13.709 -0.0503  0.1246 -0.0585
15276W        W30893  10.862   7.309  14.822  0.3038  0.0145  0.3182
15277W        W30894  16.015  10.634   6.291  0.3936 -0.0346  0.2010
15278W        W30895   1.393   0.359  13.392 -0.0503  0.2618 -0.1488
15279W        W30896   5.041   6.886  14.278 -0.0695  0.2885  0.0577
15280W        W30897  14.287   1.992  15.444 -0.0665 -0.0593 -0.0976
15281W        W30898  16.242  11.165   0.991 -0.0855  0.0995 -0.0141
15282W        W30899   2.598  10.461  14.024  0.1279 -0.0081  0.1431
15283W        W30900  17.576   8.811   1.021  0.1759  0.1787  0.0676
15284W        W30901  16.659   5.102  13.589  0.0306 -0.0503 -0.0089
15285W        W30902   8.379  13.265   1.030 -0.1811  0.1395  0.2039
15286W        W30903   5.644  15.211   0.968  0.2316 -0.0940  0.1676
15287W        W30904  14.432   1.669   4.130 -0.1506  0.0061  0.1172
15288W        W30905  12.863   1.454   0.571 -0.1098 -0.1285  0.1145
15289W        W30906  14.464   4.311  14.646  0.3432  0.1539 -0.0967
15290W        W30907  16.025  12.339   4.697 -0.0987 -0.1141  0.0181
15291W        W30908   0.927   2.035   2.551  0.1462 -0.2425  0.0941
15292W        W30909  13.623   7.028  16.037  0.0853 -0.1013 -0.0956
15293W        W30910  12.351   3.786  14.052  0.3497 -0.0977  0.0716
15294W        W30911  10.379   9.523   2.734  0.2477  0.0859 -0.2947
15295W        W30912   1.281   5.185  16.682 -0.1554 -0.0442  0.2007
15296W        W30913  14.010  11.065   3.465 -0.0049 -0.3875  0.2788
15297W        W30914   5.184   7.867   0.432  0.0514 -0.1149  0.2034
15298W        W30915   2.699   2.344  16.905 -0.1465  0.0078  0.1179
15299W        W30916   9.599  17.061   4.991  0.1042 -0.0208  0.0484
15300W        W30917   1.162  14.306  16.768 -0.2089 -0.2061 -0.0687
15301W        W30918   6.544   2.569  15.555 -0.0755  0.2475 -0.2380
15302W        W30919  12.393  13.450  11.412 -0.0278  0.0716  0.0378
15303W        W30920   1.978   9.036  17.200  0.0659  0.1258 -0.2130
15304W        W30921   4.603   9.565  15.256 -0.0155 -0.0191  0.0107
15305W        W30922   3.661   2.894   3.508  0.0558  0.0485  0.2063
15306W        W30923   3.665   0.178  14.685  0.1202  0.0533  0.0265
15307W        W30924   5.229   9.533  14.630  0.0103  0.1023 -0.1841
15308W        W30925   0.428  10.659  11.679 -0.0336  0.0067  0.1329
15309W        W30926   0.440  12.069  14.853 -0.1681 -0.1310  0.1097
15310W        W30927   8.633   6.496   5.973  0.2742  0.1727  0.0873
15311W        W30928  12.972   3.106  14.894 -0.0712 -0.0377 -0.0601
15312W        W30929  15.483   9.330  15.129  0.1927  0.1129 -0.1133
15313W        W30930   5.149   2.735  12.698 -0.1356  0.1854 -0.2977
15314W        W30931  13.755   6.216   3.597 -0.1518 -0.2055  0.0979
15315W        W30932  16.282   2.789  17.128 -0.2250  0.3644  0.0773
15316W        W30933  11.117  11.277   3.087  0.1587  0.0065 -0.3826
15317W        W30934  12.410   4.287  15.659  0.0098  0.0111 -0.2187
15318W        W30935  10.526   5.298   4.352 -0.0061  0.1094  0.1481
15319W        W30936   4.943   1.151   0.643 -0.3011 -0.0528 -0.1648
15320W        W30937   3.040   5.646  13.362  0.2685 -0.1508  0.2736
15321W        W30938   5.329   3.998   4.659 -0.2563  0.3270  0.0282
15322W        W30939  15.553   9.575  13.752 -0.0343 -0.0613 -0.0606
15323W        W30940   5.289  11.192   2.887  0.0531  0.0221  0.0029
15324W        W30941   5.477   7.215  16.289  0.1276 -0.3748  0.1626
15325W        W30942   1.491   0.066  11.321 -0.1852 -0.3810 -0.4203
15326W        W30943  12.766  12.202  16.848  0.1787  0.3664 -0.0878
15327W        W30944  16.734  13.427  14.865 -0.2882 -0.1984  0.1079
15328W        W30945   3.916  12.433  13.468  0.3464 -0.0991 -0.0981
15329W        W30946   6.956  14.427  13.832 -0.0645  0.0644  0.0849
15330W        W30947  10.416   9.471   0.989  0.0215 -0.0236 -0.1680
15331W        W30948   6.001   5.921  11.064 -0.2029 -0.0632 -0.1902
15332W        W30949  12.252   2.437   2.947 -0.3388  0.3523  0.1722
15333W        W30950  10.846   7.802  14.913  0.1807 -0.1997 -0.2417
15334W        W30951  16.195   8.108  12.222 -0.0236  0.0254  0.1153
15335W        W30952   9.889   8.896  13.242 -0.1224 -0.2956  0.0324
15336W        W30953   0.219  12.002  16.925  0.3591  0.0031 -0.0203
15337W        W30954   6.243  16.240  15.266  0.0253  0.0391 -0.0932
15338W        W30955  15.112  10.377  14.273 -0.2380 -0.0285 -0.2710
15339W        W30956   2.533  14.471   0.756 -0.2058  0.0746  0.0798
15340W        W30957   8.590   0.500  10.895 -0.0731  0.1007 -0.1452
15341W        W30958   5.486  16.151  11.555 -0.0654 -0.0878 -0.1061
15342W        W30959   5.578  15.059   0.088 -0.2794  0.2500 -0.0263
15343W        W30960   5.106  16.065   4.506  0.2663 -0.2937 -0.0917
15344W        W30961  12.651   5.871  13.163 -0.2386  0.2445 -0.1788
15345W        W30962  12.562   2.948  12.621 -0.3195 -0.3371 -0.0055
15346W        W30963   7.382  15.472   2.613 -0.2079  0.2115  0.1356
15347W        W30964   7.219   1.880  13.647 -0.0198  0.0189 -0.2217
15348W        W30965  16.740  10.058   6.210 -0.0547  0.0843 -0.1848
15349W        W30966   6.565  10.652  14.994  0.0963  0.1877 -0.0215
15350W        W30967  17.050  14.231   1.479  0.2480  0.0734  0.0891
15351W        W30968   5.595  15.117   5.885  0.5301  0.1387 -0.3054
15352W        W30969   9.560  16.624   2.301 -0.0000 -0.2258 -0.1123
15353W        W30970   1.715   5.286   6.345  0.1726 -0.2928  0.1426
15354W        W30971  16.702   6.812   4.608  0.0006 -0.0404  0.0365
15355W        W30972  15.338  15.141  16.030 -0.0183  0.3602  0.2807
15356W        W30973   0.896   2.886  12.151 -0.0722 -0.0542 -0.1685
15357W        W30974   8.960  11.816  16.163 -0.1030  0.0839  0.1053
15358W        W30975   4.442   6.417  13.740  0.0743  0.3265 -0.0784
15359W        W30976  16.818   0.222   5.737  0.1296  0.1749  0.1178
15360W        W30977   4.496   7.044   3.457  0.0586  0.1681 -0.2643
15361W        W30978  15.301  13.262  13.644  0.1642 -0.2184  0.0766
15362W        W30979   3.937  17.102  14.098  0.3200  0.0717  0.0066
15363W        W30980  16.463   3.031   4.409  0.2566  0.0579 -0.3298
15364W        W30981   6.196   4.959   1.724 -0.0902  0.0526 -0.0011
15365W        W30982   7.452   6.079   2.861  0.1976 -0.1321  0.3669
15366W        W30983   3.282   2.918   1.892  0.1589 -0.2151 -0.0296
15367W        W30984   3.242  14.144  14.623 -0.0340  0.1308  0.0428
15368W        W30985   0.318  15.540  13.597 -0.3742 -0.0011 -0.0953
15369W        W30986  13.725   7.445   5.350  0.2276 -0.1851 -0.1972
15370W        W30987  16.220  16.352  15.945 -0.0392  0.0106  0.2690
15371W        W30988   2.842  15.867  15.493 -0.0744  0.1550  0.0363
15372W        W30989   0.885  13.843   5.375 -0.0672 -0.0801  0.1089
15373W        W30990  17.337   3.380  16.536  0.3282 -0.2668  0.0279
15374W        W30991   6.121   8.761   3.990 -0.1541 -0.2956 -0.2145
15375W        W30992   8.547   9.404  17.095 -0.1639 -0.1253 -0.0553
15376W        W30993   0.014  16.736  14.063 -0.1517  0.2074 -0.1950
15377W        W30994   7.650  10.798  11.784 -0.3362  0.0768 -0.3885
15378W        W30995   9.872  11.597  16.065 -0.0692  0.0980 -0.2411
15379W        W30996   9.563   8.024   2.297 -0.1654  0.0896  0.0410
15380W        W30997  10.414  15.631   4.869  0.0452  0.2131  0.0535
15381W        W30998   9.709   5.952  12.257 -0.0925  0.4020  0.0181
15382W        W30999  12.533   5.776   4.027 -0.1089 -0.3236  0.0383
15383W        W31000   4.238  14.510  13.322  0.0982 -0.0914  0.2845
15384W        W31001   3.791   8.604  15.336  0.0086 -0.2800  0.1306
15385W        W31002  10.761   9.319  14.615  0.2858  0.0149  0.0400
15386W        W31003  12.015   4.425  16.487  0.1530 -0.3203 -0.0734
15387W        W31004   9.510   5.500   4.812  0.0059  0.1093 -0.3525
15388W        W31005   0.284   9.419   5.972 -0.0123 -0.2650 -0.0208
15389W        W31006  16.777   1.321  13.717 -0.1742  0.0127  0.1186
15390W        W31007  14.731  16.290   2.076  0.3417  0.0913 -0.0747
15391W        W31008   3.571  11.216  17.119  0.1472  0.0258 -0.2225
15392W        W31009  17.035  17.174   3.244 -0.0065  0.0127 -0.0570
15393W        W31010   3.823  10.862   6.287 -0.0154  0.0902 -0.0957
15394W        W31011   8.659  11.822   2.296  0.2274 -0.1920  0.0136
15395W        W31012   6.521   3.214   0.168 -0.1122 -0.0436 -0.1176
15396W        W31013  10.748   5.369   3.947 -0.2939 -0.1351 -0.0227
15397W        W31014  12.231   6.809  14.137  0.1566  0.1716  0.3827
15398W        W31015   7.922   6.964   5.747 -0.1055  0.0012  0.4308
15399W        W31016  10.028  11.272  15.132  0.1624  0.1568  0.0464
15400W        W31017   1.446   2.756   4.685 -0.1087  0.3256  0.1421
15401W        W31018   3.651  16.191  15.659  0.0073  0.0283  0.2892
15402W        W31019   5.577   2.657  16.045  0.1406 -0.2468  0.0369
15403W        W31020   4.672   7.553   3.613  0.1595  0.5021  0.1522
15404W        W31021  11.350   3.838  16.041 -0.0865  0.1209  0.0155
15405W        W31022  12.584  10.414   2.139 -0.2618 -0.1904  0.0996
15406W        W31023   5.392   9.571   2.095 -0.0724  0.0675  0.2909
15407W        W31024   6.495  13.852  17.173 -0.0600 -0.1806 -0.2054
15408W        W31025  15.959   0.616   0.244  0.0293  0.0016 -0.0559
15409W        W31026   4.516   0.235  12.636  0.4502 -0.1906  0.3760
15410W        W31027  17.097  14.556   2.589 -0.2610  0.0777 -0.0075
15411W        W31028   0.303   6.282   4.894 -0.1821  0.4389 -0.0620
15412W        W31029   9.317   9.817   6.424  0.2782 -0.2081 -0.1437
15413W        W31030   5.758  14.724   4.806  0.0285  0.1204 -0.0795
15414W        W31031  15.936   0.467  15.398  0.0205 -0.0283  0.2981
15415W        W31032  12.519   1.282  13.965  0.0749  0.0501  0.3537
15416W        W31033   1.945   8.793  12.490 -0.2027 -0.3141  0.3874
15417W        W31034   9.604   2.866   3.071 -0.1688  0.0919 -0.0448
15418W        W31035  14.490   0.851   1.039 -0.1470 -0.1504 -0.0865
15419W        W31036  13.026  10.680   1.861  0.1659  0.0004  0.1610
15420W        W31037   4.801   8.720  17.229 -0.0342  0.1384 -0.2037
15421W        W31038   6.282  17.474   3.472  0.0741  0.0586  0.0068
15422W        W31039   8.612   0.496   4.044  0.0880 -0.3198 -0.0014
15423W        W31040   8.600   5.152   2.713  0.0394  0.1258 -0.1829
15424W        W31041   0.879   3.074   4.129  0.0397  0.0024  0.2213
15425W        W31042   4.678   0.144   2.233  0.0929  0.0272  0.4828
15426W        W31043  16.072  14.928  11.469 -0.3196  0.2311  0.1408
15427W        W31044  10.161   7.038  12.859 -0.1415  0.0263 -0.0863
15428W        W31045  11.751   1.728   2.644 -0.1636 -0.0518 -0.4111
15429W        W31046  12.626  16.309  14.950 -0.0908  0.1574  0.0770
15430W        W31047   5.291   7.464   0.791 -0.0508 -0.0523  0.1077
15431W        W31048   6.917   5.808   2.835  0.0790  0.1409  0.3614
15432W        W31049   7.140   8.917  15.939 -0.1310 -0.1983 -0.2225
15433W        W31050   8.486   8.474  13.309  0.0731  0.0304  0.0742
15434W        W31051  15.773  17.275   4.279 -0.2882  0.0297  0.2163
15435W        W31052   2.428  16.887   5.182  0.0685  0.1492  0.1900
15436W        W31053   8.397  11.258  15.878  0.1163  0.3148  0.1083
15437W        W31054  17.397  17.100   1.436 -0.1623 -0.0304 -0.0240
15438W        W31055  11.721  15.147  12.212  0.1396 -0.2301  0.1222
15439W        W31056   5.347   4.625   1.704 -0.0250 -0.0677 -0.1737
15440W        W31057   3.742  12.849   0.739 -0.1355 -0.0511  0.0157
15441W        W31058  16.039  11.176   0.550 -0.0133  0.0560 -0.0167
15442W        W31059   7.331  14.737  12.273 -0.0388 -0.0825  0.2024
15443W        W31060   4.135   1.102  15.421 -0.0640 -0.0000  0.1723
15444W        W31061  12.233   4.947  15.322 -0.0837  0.0511  0.1767
15445W        W31062   8.540   4.187  15.391 -0.0286 -0.1464  0.2009
15446W        W31063   2.986  13.758   3.450 -0.3492 -0.0209  0.1265
15447W        W31064   9.525  11.641   4.478 -0.2799 -0.3452  0.2764
15448W        W31065  15.032  17.203   5.745  0.1333  0.1882  0.1530
15449W        W31066  14.416  14.247   4.101 -0.0623  0.2833  0.0564
15450W        W31067   5.085   8.492   0.338 -0.1518 -0.0211  0.2206
15451W        W31068   7.548  13.273  16.720  0.2229 -0.1037 -0.1612
15452W        W31069   7.161   6.418   0.622  0.0136  0.0751  0.2328
15453W        W31070   4.558  10.848   2.967  0.1861  0.4898  0.0756
15454W        W31071   8.473   9.651  16.436 -0.1106 -0.3197 -0.0120
15455W        W31072   7.337  17.403   1.897  0.0674 -0.0269 -0.0069
15456W        W31073   1.301   7.081   1.313 -0.0826  0.0291 -0.1211
15457W        W31074   7.666   2.331  12.374  0.3768  0.3708  0.0040
15458W        W31075   7.841   0.089  15.995  0.2349  0.2324  0.2265
15459W        W31076  10.069   4.781  16.486  0.2960 -0.1231  0.2261
15460W        W31077   7.105  16.254   1.994 -0.1327  0.0681  0.1272
15461W        W31078  12.601  13.958  13.945  0.0335  0.2623 -0.0130
15462W        W31079   6.003  16.998   1.039 -0.3250 -0.1577  0.1037
15463W        W31080   8.709   4.463   0.223 -0.0512 -0.0640  0.2824
15464W        W31081   9.296   3.992   0.305  0.0309  0.0073  0.1199
15465W        W31082   0.629   1.464  16.986 -0.1989  0.3951  0.3096
15466W        W31083   1.869  15.679   3.669 -0.2028 -0.0859  0.2135
15467W        W31084   4.627  13.975  14.850  0.1523 -0.2794 -0.0680
15468W        W31085   5.817   2.084  13.413 -0.3272  0.2348 -0.1481
15469W        W31086   6.958   4.415  13.894  0.2900  0.0708  0.1850
15470W        W31087   9.393   3.343   5.008 -0.1578  0.0541 -0.1965
15471W        W31088   8.379   0.824  16.634  0.2516  0.2715 -0.0006
15472W        W31089   1.170  13.853  15.492 -0.0742 -0.1207  0.0053
15473W        W31090   7.522  11.472  11.939  0.2046 -0.0137  0.1501
15474W        W31091   8.607   6.764   0.181 -0.0749 -0.0453 -0.0554
15475W        W31092   6.216   5.187   1.279 -0.1277  0.0983 -0.2145
15476W        W31093   4.560  13.470   4.419 -0.1573 -0.2696  0.0613
15477W        W31094   3.711  11.180  16.633  0.2390  0.1482  0.4506
15478W        W31095  14.408  14.682   4.433  0.1760 -0.2458 -0.0020
15479W        W31096  12.843  14.790  15.213 -0.0652 -0.0882 -0.0392
15480W        W31097   3.133   3.680  14.084  0.0497 -0.0833 -0.1724
15481W        W31098   5.670   4.623  16.021 -0.0754  0.1305 -0.2541
15482W        W31099  10.344  13.544   4.086  0.1204 -0.0502 -0.0588
15483W        W31100   4.035  10.052   4.104  0.1164 -0.2173  0.4598
15484W        W31101   5.944   6.909  16.944 -0.1493  0.3597  0.2600
15485W        W31102   9.995  11.031   4.918 -0.2985  0.0904 -0.3342
15486W        W31103  10.127  10.332  15.054  0.0044 -0.1918 -0.2392
15487W        W31104  15.989  14.779   5.498 -0.1984 -0.0098 -0.1453
15488W        W31105  16.281   5.087   2.173  0.1840  0.1670 -0.1886
15489W        W31106   1.349   5.234  15.682  0.0484  0.0875  0.1453
15490W        W31107   9.865  12.180   4.361  0.0320 -0.0548 -0.0308
15491W        W31108   6.244  10.876  12.603  0.0152  0.1000 -0.2051
15492W        W31109   7.999   6.551   3.377  0.3999 -0.0160 -0.1579
15493W        W31110  12.819  12.176  14.590 -0.1428 -0.5172 -0.1329
15494W        W31111  12.644  17.161  13.832  0.0703 -0.1288  0.2461
15495W        W31112   1.167   7.666   2.130  0.2424 -0.0361  0.0993
15496W        W31113   5.738   9.210  16.340 -0.3287  0.0331  0.1220
15497W        W31114  16.059  17.376   1.358 -0.0700  0.0373  0.2883
15498W        W31115   8.800  10.561   4.800  0.1269 -0.0748  0.2175
15499W        W31116   4.594   2.078  12.240 -0.1657  0.1439 -0.1926
15500W        W31117   0.219   5.899  16.489 -0.0478 -0.4531 -0.0150
15501W        W31118   1.999  10.267  12.342 -0.2883 -0.1569  0.1204
15502W        W31119   8.551   3.613   0.915 -0.1211 -0.0807  0.1146
15503W        W31120  16.485  13.465   1.380  0.2500 -0.3245  0.0714
15504W        W31121  11.344   6.327   2.327  0.2973 -0.1200 -0.0460
15505W        W31122  17.390  13.647  16.078  0.1847 -0.0767 -0.1869
15506W        W31123   0.564  14.788  15.162  0.2410 -0.3597  0.1265
15507W        W31124   4.896   7.212   0.900 -0.2776  0.0147 -0.0175
15508W        W31125  12.987   0.631  12.507 -0.1399  0.0479  0.0163
15509W        W31126   3.215  13.268  12.521  0.3823 -0.0358  0.2178
15510W        W31127  10.659   1.306  11.965  0.1067  0.0008 -0.2466
15511W        W31128   2.195   0.735   3.121  0.1234 -0.1422  0.1964
15512W        W31129   0.893   9.518  12.177  0.1512 -0.0115  0.1784
15513W        W31130   8.975   0.295  11.474  0.3477  0.1595 -0.0865
15514W        W31131  11.258  13.037  17.265  0.0634 -0.0010  0.0540
15515W        W31132   6.475   6.689   2.824 -0.0514 -0.0078 -0.0980
15516W        W31133   6.129   8.170  16.283 -0.1480  0.1639 -0.0402
15517W        W31134   0.656  17.174  14.564 -0.0812  0.6060 -0.2787
15518W        W31135  14.111   6.858   0.389 -0.0135  0.0078  0.2879
15519W        W31136  16.220  10.326   1.917 -0.2970 -0.0094  0.0472
15520W        W31137   1.520   7.638  13.530 -0.2965  0.0057 -0.1629
15521W        W31138   3.380  12.574  12.518  0.1748  0.0898 -0.1195
15522W        W31139   2.633   6.745   4.749  0.0473 -0.2276 -0.0108
15523W        W31140  14.762   2.296   4.519  0.0796  0.3074 -0.0588
15524W        W31141   7.739   9.702   3.372  0.2527  0.1279  0.1355
15525W        W31142  10.235   1.995  13.982 -0.5441 -0.0666 -0.0303
15526W        W31143  10.430   0.396   4.243 -0.4265  0.2088 -0.2758
15527W        W31144  10.029  15.261  12.137 -0.0971 -0.0714  0.0011
15528W        W31145   7.191  13.289  13.326 -0.0883  0.1316 -0.1534
15529W        W31146   2.553   0.946  12.763 -0.0586 -0.0586  0.2081
15530W        W31147  16.828  10.575  13.761 -0.1490 -0.2036  0.0130
15531W        W31148   3.552   8.553  14.855 -0.1075  0.0165  0.1132
15532W        W31149   7.270  11.816   0.981  0.0824 -0.2729  0.2173
15533W        W31150   6.771  13.088  12.355  0.0565  0.0535  0.1874
15534W        W31151  10.263   6.230  13.903  0.2995  0.1067 -0.4020
15535W        W31152   5.099   5.409  12.790  0.0546 -0.3104  0.0835
15536W        W31153  10.406  10.280  12.241  0.2149 -0.3330  0.0790
15537W        W31154   3.256  13.782   5.553 -0.0308 -0.3075 -0.1256
15538W        W31155  17.309  15.754  11.783  0.0556 -0.0465 -0.0186
15539W        W31156   6.271  15.534   6.319  0.1570 -0.1312 -0.2844
15540W        W31157  12.444  11.292   2.283 -0.1213  0.0024 -0.3049
15541W        W31158  14.525   3.217   5.050  0.1492  0.1223 -0.0418
15542W        W31159  14.430   4.098   6.938 -0.0020 -0.2898  0.0180
15543W        W31160   1.824  15.028   5.111 -0.1108 -0.4999  0.0468
15544W        W31161  10.665   4.254   1.907  0.1387  0.3370  0.1591
15545W        W31162  15.708   2.933   3.408 -0.0255  0.1869  0.0451
15546W        W31163  10.073  15.680   0.022  0.0590  0.3108  0.0158
15547W        W31164   9.874  13.114  12.639  0.4180  0.2541  0.2803
15548W        W31165  13.745   9.664   6.280  0.1907  0.0263 -0.0267
15549W        W31166  15.982   5.734  12.454 -0.2511 -0.3045 -0.2980
15550W        W31167  12.517   1.244  13.067  0.0325 -0.0289  0.1227
15551W        W31168  12.032  15.804  12.009  0.0724 -0.1639 -0.0722
15552W        W31169   4.859   6.222   5.539 -0.0517 -0.0243 -0.1589
15553W        W31170  16.331   1.670  14.653  0.1692 -0.0323  0.1871
15554W        W31171   5.761   2.422  14.664 -0.0440 -0.1857  0.0963
15555W        W31172  13.790   8.680   5.044 -0.0698 -0.0054  0.0888
15556W        W31173   4.448  15.337  16.268 -0.0915 -0.2068  0.0463
15557W        W31174   7.658   4.213   5.343  0.0813  0.1345 -0.0381
15558W        W31175   4.193  10.496   2.752  0.1043 -0.0830 -0.1248
15559W        W31176   4.811  10.222   3.759  0.1991  0.1466 -0.0451
15560W        W31177   7.088  13.645   5.891  0.0388  0.1257 -0.1796
15561W        W31178  11.071   0.853   5.248  0.3673 -0.0137 -0.0999
15562W        W31179   4.507   8.847  16.301  0.0480  0.0859  0.2268
15563W        W31180   4.907  17.054   0.859  0.2272 -0.2416 -0.1601
15564W        W31181  10.956   5.181   2.109  0.0913 -0.0956 -0.2717
15565W        W31182  12.815   9.693   1.216  0.3397  0.2369 -0.3008
15566W        W31183   4.615  12.880  14.098  0.4517 -0.0120 -0.0021
15567W        W31184   2.023   4.878   0.450 -0.1947 -0.1145 -0.1419
15568W        W31185   0.101   5.372  15.655  0.0831  0.2388  0.0507
15569W        W31186  17.177   2.673   0.147  0.3067 -0.1326 -0.2302
15570W        W31187   4.809   3.002   3.358  0.1733 -0.0240  0.1917
15571W        W31188   5.552  12.523  14.463  0.1578  0.0705 -0.0916
15572W        W31189   6.230  15.151   3.959 -0.1492  0.0281  0.2448
15573W        W31190   9.304   9.062   0.212  0.0433  0.1646 -0.3295
15574W        W31191   1.954   4.102   2.934 -0.2743  0.2331  0.0194
15575W        W31192   3.974  10.028  16.443  0.2068  0.1821  0.0234
15576W        W31193   0.618  14.459   0.620 -0.2536 -0.0794  0.0010
15577W        W31194  10.274  16.112  11.453 -0.0256  0.2771 -0.1340
15578W        W31195  10.021  14.076  12.749  0.0302  0.1421  0.0557
15579W        W31196  10.282  11.778  15.845  0.0403  0.0088  0.0337
15580W        W31197  15.514   9.241  15.651 -0.3432 -0.2077 -0.3181
15581W        W31198   1.948   6.336   6.121 -0.4489 -0.0548  0.1516
15582W        W31199   0.416  16.750   4.657 -0.1413 -0.0151 -0.0032
15583W        W31200   7.582  16.167  10.719 -0.2972  0.1889 -0.4412
15584W        W31201   9.480   2.729  15.624  0.1690 -0.2139  0.3520
15585W        W31202   1.391   2.691  15.311 -0.0831 -0.0172 -0.2773
15586W        W31203   0.044   4.882  13.053  0.0736  0.0752 -0.0706
15587W        W31204   9.642   0.368  13.901  0.1015  0.1244 -0.3440
15588W        W31205   6.507  12.913  13.730 -0.5065  0.2159  0.1049
15589W        W31206  13.866  12.012   1.220  0.2793 -0.0753  0.1519
15590W        W31207  14.823   4.438  13.720 -0.0511  0.2529  0.1485
15591W        W31208  12.264   5.738   4.860 -0.4673  0.2124 -0.0398
15592W        W31209  10.173  12.667  15.241 -0.0142  0.3574 -0.3848
15593W        W31210  17.160   3.608   3.525  0.0045 -0.0444 -0.1393
15594W        W31211  11.097  11.777  16.870 -0.0206  0.1968 -0.0232
15595W        W31212   7.886   2.160  11.348  0.1460  0.3742  0.2301
15596W        W31213  10.798   3.977  16.737 -0.3135 -0.1744 -0.1064
15597W        W31214   5.983   1.524  16.721 -0.1493 -0.1778  0.2093
15598W        W31215   8.109  16.268  13.438  0.0215 -0.3316 -0.1822
15599W        W31216  12.928   9.711  14.163  0.1235  0.1753  0.1883
15600W        W31217   3.391  14.784   4.646 -0.0313  0.1122 -0.2402
15601W        W31218  12.267  11.474  16.449  0.3019 -0.3947  0.0328
15602W        W31219  16.743  12.254   2.207 -0.2266  0.0278 -0.4093
15603W        W31220   2.378  15.752   2.337 -0.2036  0.1324  0.0783
15604W        W31221   0.119  12.919   4.265  0.0548  0.0764 -0.0713
15605W        W31222  15.050   5.686   0.514  0.3660  0.0744 -0.2067
15606W        W31223   4.044   1.351   1.291  0.1561  0.2183  0.4442
15607W        W31224   1.248   9.966   3.746 -0.1276 -0.0765  0.0092
15608W        W31225   7.124   9.227  14.505  0.2043  0.0645 -0.2797
15609W        W31226  16.732  16.560   5.131 -0.1493 -0.0169  0.1947
15610W        W31227   1.767  10.537  12.862 -0.3182  0.0252 -0.1630
15611W        W31228   4.085  12.354   0.708  0.1269  0.2453 -0.1767
15612W        W31229  11.987   4.622  12.335  0.2465 -0.2812  0.0044
15613W        W31230  17.532   1.477  15.098  0.2320  0.1753 -0.1856
15614W        W31231   8.569  12.485  12.089 -0.0482 -0.2045 -0.1987
15615W        W31232  16.500   5.532  13.784  0.1082  0.0065  0.0491
15616W        W31233   4.313  12.491  14.051 -0.0095  0.1050  0.3648
15617W        W31234   4.400   9.526  13.304 -0.2793 -0.5396 -0.2267
15618W        W31235  12.415  10.591   4.030  0.1631 -0.0801  0.1248
15619W        W31236  12.870   3.487  15.979  0.2035 -0.0960 -0.0503
15620W        W31237  16.701   7.514   3.270  0.1608 -0.3045  0.0574
15621W        W31238  13.915  15.378  12.936 -0.0146 -0.1598 -0.0879
15622W        W31239  11.430  13.662   3.299 -0.0960 -0.3196 -0.2014
15623W        W31240  12.978   5.567  15.295  0.2105  0.0457 -0.2497
15624W        W31241  15.767   2.146   0.221 -0.0905  0.1989  0.5324
15625W        W31242  12.912   5.467   1.570  0.0586 -0.2492 -0.1424
15626W        W31243   9.701  10.877   4.552  0.1477  0.0128  0.1574
15627W        W31244   7.641   8.401   4.419  0.1197 -0.3777 -0.1249
15628W        W31245  16.604   4.125  13.340 -0.1374  0.2022 -0.1313
15629W        W31246  13.344   2.338   1.142  0.0867 -0.0064  0.1092
15630W        W31247  10.526  15.440  17.052 -0.0092  0.2166  0.0639
15631W        W31248   3.751   5.191  16.202  0.1530 -0.0130  0.1067
15632W        W31249  11.826   3.877  14.083  0.0977 -0.0929  0.3964
15633W        W31250  14.567   5.100   2.038 -0.0425  0.3179 -0.0217
15634W        W31251  14.167  16.737   3.942  0.0446  0.0695  0.0611
15635W        W31252  17.024   7.225   0.774 -0.1153 -0.1250  0.1945
15636W        W31253  17.056   2.312   5.479  0.1539  0.0551  0.0317
15637W        W31254   8.301  15.873   1.876  0.1805  0.0383 -0.1876
15638W        W31255  13.998   5.891   4.495 -0.0859 -0.1035 -0.2272
15639W        W31256   3.241   5.049   2.441  0.0879 -0.0042  0.1998
15640W        W31257   2.075   0.323   5.408  0.2321  0.0216 -0.1521
15641W        W31258   6.278  11.848   0.919 -0.3655 -0.2675 -0.1220
15642W        W31259  14.783  13.974  13.071  0.0332 -0.0288 -0.1787
15643W        W31260  14.126  15.936   5.361 -0.0280 -0.0222  0.0541
15644W        W31261  15.602  15.189   1.808  0.2537  0.2260 -0.1738
15645W        W31262   3.405  16.995  17.015  0.1824  0.1171 -0.1380
15646W        W31263  15.704   4.798  13.798 -0.4796  0.1997  0.0710
15647W        W31264  13.754   8.270  14.191  0.2346 -0.1634 -0.1770
15648W        W31265   6.499   7.667   2.879  0.0566  0.0904 -0.1232
15649W        W31266  12.151   7.449  11.895 -0.1960 -0.3566  0.1630
15650W        W31267  17.577   0.729  15.720 -0.0699 -0.1024  0.0201
15651W        W31268   9.360  15.622   5.394 -0.2403 -0.1089  0.2498
15652W        W31269  10.238  13.162  15.073  0.1823  0.0868 -0.0747
15653W        W31270   1.810   5.323  15.728  0.0902 -0.2863  0.3404
15654W        W31271   3.125  14.366  13.804  0.0362  0.2332  0.1467
15655W        W31272  17.574  16.816   2.478 -0.0883 -0.0221  0.0768
15656W        W31273  15.714   5.221   0.197  0.4061  0.1347  0.1837
15657W        W31274   0.581   0.008  14.225  0.0323  0.0938  0.0096
15658W        W31275   0.549  15.886   4.343  0.0731  0.0862  0.0814
15659W        W31276   2.745  12.471   0.487  0.0305  0.1659  0.0965
15660W        W31277   8.520   1.716  12.386  0.1970  0.0520 -0.0235
15661W        W31278  15.455   0.437   5.385  0.1378  0.2174  0.0953
15662W        W31279   6.924  13.578  14.151  0.3157 -0.1213  0.0045
15663W        W31280  12.223   6.429   3.477 -0.1634 -0.1067  0.1058
15664W        W31281   0.154   3.628  13.829 -0.2216 -0.0442 -0.1014
15665W        W31282   7.637  15.937  16.488 -0.1584 -0.0629 -0.1740
15666W        W31283  10.817   9.064  16.615 -0.3928 -0.0816  0.0767
15667W        W31284  17.413   9.509  12.854  0.0019  0.2047 -0.1381
15668W        W31285   9.248  12.082   2.071  0.1075  0.0923 -0.4167
15669W        W31286   0.990   5.503   5.880 -0.0283 -0.1566 -0.0170
15670W        W31287  16.695   4.318   6.104 -0.2103  0.1983 -0.0598
15671W        W31288   3.012  10.305  15.208 -0.0868  0.2238  0.1103
15672W        W31289   4.463  15.168   2.480  0.0732  0.0984  0.0411
15673W        W31290   8.595  17.161   1.717 -0.2158  0.0849 -0.1837
15674W        W31291   6.604   4.815   4.658 -0.3589 -0.0070 -0.0883
15675W        W31292  13.977   3.937   2.581  0.0777  0.0287 -0.0228
15676W        W31293   2.469   0.500  11.909  0.1199 -0.1643 -0.2214
15677W        W31294   1.085  16.070   1.817  0.0580 -0.1338  0.0953
15678W        W31295   9.693  13.143   2.977  0.2473  0.0395 -0.1816
15679W        W31296   0.529  13.865  12.726 -0.2587 -0.1498  0.1874
15680W        W31297   3.572  16.580  15.277  0.1687 -0.1830 -0.1562
15681W        W31298   7.922   5.803  14.148 -0.0781 -0.6609 -0.0027
15682W        W31299   4.946   3.418   3.686  0.4725  0.0599  0.0733
15683W        W31300   4.018   8.117   0.590  0.0061  0.1007  0.0008
15684W        W31301  13.817  14.578   0.879 -0.0351  0.1133  0.1881
15685W        W31302  12.032   1.683   1.440 -0.1301  0.1390 -0.1182
15686W        W31303   8.503   4.816  10.628  0.0642 -0.1090  0.2536
15687W        W31304  12.210  13.800   2.281  0.1096  0.0189  0.0513
15688W        W31305  16.525  14.288  15.181  0.1326  0.2653 -0.2434
15689W        W31306   7.770   3.552   4.274  0.0070  0.2406  0.0723
15690W        W31307  10.960  13.418   5.422 -0.0089  0.0794  0.1091
15691W        W31308   6.384   4.991   2.804  0.1393 -0.2572 -0.2263
15692W        W31309  10.291   5.013   2.945 -0.1664  0.1500  0.0083
15693W        W31310  17.491   5.316   1.008 -0.0014  0.1442  0.1078
15694W        W31311   6.775   3.223  12.805  0.0328  0.1158 -0.0277
15695W        W31312  17.556  13.411  13.408 -0.0377 -0.2478  0.1705
15696W        W31313  17.253   9.174  14.275 -0.1817 -0.1506  0.1166
15697W        W31314   5.414   3.117   5.555  0.0843  0.3271  0.0234
15698W        W31315   4.373  15.695  11.834 -0.0853 -0.1099  0.1614
15699W        W31316   5.661  11.047  16.128  0.1950 -0.2100  0.3268
15700W        W31317   9.177   4.009  14.063 -0.2864 -0.1275  0.1100
15701W        W31318  12.152   7.356   1.778 -0.0747  0.1052  0.1868
15702W        W31319  10.058  17.355   2.963  0.0723  0.0774  0.2235
15703W        W31320  12.839  10.388   3.647  0.0976  0.0250 -0.3762
15704W        W31321  12.692   9.036  13.366  0.0807  0.1697 -0.2833
15705W        W31322   3.114   2.729   5.492 -0.2858 -0.1970 -0.3341
15706W        W31323   3.693   4.805   5.951 -0.0691 -0.0537 -0.3441
15707W        W31324  14.488  16.801   5.142  0.1265  0.1657  0.0854
15708W        W31325  14.304   3.991  11.040 -0.0734 -0.2642 -0.1135
15709W        W31326   8.669   1.654  15.337 -0.2255  0.0640 -0.0669
15710W        W31327   5.998   4.534  16.932  0.0865 -0.1598  0.2055
15711W        W31328  12.609  16.978   3.652 -0.2798 -0.2098 -0.0045
15712W        W31329  12.675  16.781   5.305 -0.2289 -0.0492  0.0015
15713W        W31330  14.722  12.280  15.466  0.0297 -0.0589 -0.1407
15714W        W31331   0.007   0.728   1.753  0.0438  0.1929  0.1862
15715W        W31332  11.143   0.304   0.991  0.0445 -0.2668  0.0061
15716W        W31333   5.363   0.545  14.769  0.1710  0.0828 -0.0798
15717W        W31334  13.025   5.014  16.904 -0.4484 -0.0822  0.1427
15718W        W31335   2.522  10.098  13.699 -0.1920  0.2332 -0.2237
15719W        W31336  15.759   2.375  16.181  0.1358 -0.0569 -0.0252
15720W        W31337   2.562  17.113   0.107  0.0859  0.0398  0.1428
15721W        W31338   3.033  13.256  15.864  0.0816 -0.1188  0.2097
15722W        W31339  14.879   2.642   6.231  0.1121 -0.2569 -0.4897
15723W        W31340   9.397  13.850  15.661  0.1964  0.0876  0.0076
15724W        W31341   7.404  14.565   2.268 -0.0583  0.0278  0.0593
15725W        W31342  11.771  10.633  12.398 -0.0169  0.0154  0.1029
15726W        W31343   5.891   3.260  13.433  0.1127  0.1429  0.1280
15727W        W31344  14.421  11.771   3.997 -0.2373 -0.1150 -0.2452
15728W        W31345  12.890   8.395   1.019  0.1262 -0.1461  0.1437
15729W        W31346   8.772  11.309   2.381 -0.0179 -0.2190  0.3469
15730W        W31347  13.358   9.633   1.289 -0.1827  0.0963  0.0635
15731W        W31348   6.998  11.889  10.808  0.2046 -0.2171  0.0641
15732W        W31349   1.206   4.402   5.245  0.2873  0.2232  0.0560
15733W        W31350  12.951  14.231   4.458  0.1017  0.1506 -0.1382
15734W        W31351   4.501  17.305  14.567  0.2102  0.1123 -0.1577
15735W        W31352  15.901  11.952  14.832  0.0775  0.1203 -0.0506
15736W        W31353   7.224  17.520  13.739 -0.0417  0.0427 -0.1357
15737W        W31354   5.780   9.297  15.738 -0.0335 -0.0832 -0.1326
15738W        W31355  16.712   1.274  16.714  0.0458 -0.3193 -0.0631
15739W        W31356   5.720  14.730   3.806 -0.2490  0.1576 -0.1314
15740W        W31357   8.367   2.275   5.571  0.1161 -0.0096 -0.2490
15741W        W31358  15.791   5.422   6.974  0.0443 -0.1509  0.0482
15742W        W31359  11.380  16.712   5.701  0.1761  0.0738  0.2578
15743W        W31360   8.010  10.486  11.933 -0.0144 -0.2627 -0.3846
15744W        W31361  11.180   5.900   2.913  0.1372 -0.1593 -0.0660
15745W        W31362  16.051  14.459  15.242 -0.1770  0.2718 -0.0177
15746W        W31363  14.191   6.687  14.652 -0.0552  0.0195  0.3064
15747W        W31364  15.633   9.702  15.469  0.2562 -0.1322 -0.1004
15748W        W31365   9.734   1.500  15.228  0.0801 -0.1134  0.1429
15749W        W31366  11.673  15.249  14.860  0.1945  0.1494 -0.1883
15750W        W31367   1.471   7.187  16.298  0.3429  0.0060 -0.0633
15751W        W31368   9.338   1.626   5.472 -0.4687 -0.1013 -0.1235
15752W        W31369  12.740   0.441   3.011 -0.1405  0.1221 -0.0076
15753W        W31370  10.781   6.053  13.786 -0.3529 -0.0639  0.1023
15754W        W31371   3.326  15.133  13.255  0.3008  0.4571 -0.0098
15755W        W31372  13.770   2.661   3.358  0.1056  0.0656  0.4913
15756W        W31373   4.751   8.895  14.206 -0.0597  0.3357  0.0746
15757W        W31374  17.609  12.897  13.345  0.1986 -0.1809  0.2869
15758W        W31375   8.718   4.093  16.371 -0.3128 -0.0849 -0.2331
15759W        W31376   9.865   4.305   2.296  0.1993  0.0188 -0.3141
15760W        W31377   4.228  10.533   2.276 -0.1346  0.0064 -0.0409
15761W        W31378  17.131   4.728  16.406  0.0739 -0.1278 -0.1530
15762W        W31379   9.160  11.092  15.196 -0.2465  0.3116  0.0811
15763W        W31380   0.160   7.659   0.394 -0.0889 -0.0907 -0.1132
15764W        W31381   9.834  14.314   4.206  0.2554  0.1534  0.2153
15765W        W31382  16.266   6.262   1.402 -0.1148  0.0319  0.0089
15766W        W31383  16.641   6.379  15.948  0.2365  0.2387  0.5345
15767W        W31384   9.969   5.827  13.827  0.0066  0.1245 -0.1338
15768W        W31385   2.165  14.592  14.661 -0.0834 -0.1225  0.0214
15769W        W31386   9.062  11.569  15.099 -0.1345  0.0402  0.0176
15770W        W31387  11.122  17.284   4.639  0.0077 -0.1155  0.2389
15771W        W31388   5.066  16.167  12.975  0.0528 -0.0710 -0.2763
15772W        W31389  10.723   4.130   0.087 -0.0165  0.1353 -0.0273
15773W        W31390   5.165   4.745   5.385  0.2523 -0.0658  0.0159
15774W        W31391  13.127   8.821   2.179 -0.2739 -0.0237 -0.2151
15775W        W31392   0.214  15.365  14.621  0.1488 -0.0941 -0.0739
15776W        W31393   4.167  11.234   0.615 -0.1222  0.0567  0.1134
15777W        W31394   3.935   1.319  15.012  0.5358 -0.3757 -0.1682
15778W        W31395   8.609  14.587  11.142  0.1447 -0.2520 -0.0292
15779W        W31396   6.292  17.435  13.945 -0.0484 -0.1660 -0.0612
15780W        W31397   6.855   8.066  17.005  0.1363  0.0361  0.0208
15781W        W31398  15.499  12.011  16.860 -0.1526  0.0243 -0.0585
15782W        W31399   4.211  16.910  13.742  0.2187 -0.1466  0.1742
15783W        W31400   9.928   7.108   0.541 -0.0325 -0.2056 -0.2058
15784W        W31401   3.968   4.466   1.399 -0.1916  0.0893  0.1485
15785W        W31402  15.487   3.702  14.095  0.1579 -0.0239 -0.0045
15786W        W31403   5.229  13.306   2.550 -0.0043 -0.1586 -0.1125
15787W        W31404   1.662  13.644  13.744 -0.1431  0.2330 -0.2517
15788W        W31405   0.187   7.747   4.908  0.0963 -0.1241  0.0104
15789W        W31406  11.013  14.730  15.495  0.0113 -0.0917 -0.0294
15790W        W31407   7.891   0.273  14.234 -0.0181  0.2171  0.1079
15791W        W31408   9.421  16.547   5.049 -0.1620  0.0200 -0.0339
15792W        W31409  11.023  15.293   0.932 -0.1054 -0.1178 -0.2557
15793W        W31410  16.517   9.441   4.277  0.0998  0.0638  0.0835
15794W        W31411  17.229   2.702  12.474  0.0656 -0.1123 -0.0887
15795W        W31412  14.162  13.426  12.214 -0.1179 -0.0520 -0.0594
15796W        W31413   2.183  16.274  15.971  0.0269 -0.0014  0.0889
15797W        W31414   3.543   6.497   0.172  0.0748  0.0392 -0.1146
15798W        W31415   5.258   0.796  14.342 -0.2651  0.1703 -0.0778
15799W        W31416  16.053  10.272   0.775 -0.0078 -0.1197 -0.3818
15800W        W31417  10.369   0.751  16.994  0.2717 -0.0732  0.0035
15801W        W31418   1.763  10.567   6.140  0.1177 -0.2481 -0.1784
15802W        W31419   1.276  12.393  13.282  0.1897 -0.0569  0.0283
15803W        W31420  17.565   0.860   1.283 -0.1134 -0.1575  0.1455
15804W        W31421  16.310  16.464   3.003  0.0020 -0.2266 -0.1701
15805W        W31422  13.350   3.898   3.352 -0.0093  0.0239  0.0280
15806W        W31423  16.980  15.473  16.899 -0.0972 -0.2054 -0.0692
15807W        W31424   8.260   9.329   3.130  0.1545  0.1124 -0.0886
15808W        W31425  15.098  14.149   4.933  0.0722 -0.1103  0.2318
15809W        W31426  15.634  10.084   4.962  0.0450  0.0236 -0.2202
15810W        W31427   5.447   2.111  15.574  0.0581  0.1124 -0.0441
15811W        W31428  16.523  15.948  15.838  0.1043 -0.0480  0.0250
15812W        W31429  15.315  14.847   2.720  0.2935 -0.3400 -0.1334
15813W        W31430  11.984   3.696  16.341  0.1517 -0.0692  0.0556
15814W        W31431   6.636  11.642  13.034 -0.1724  0.3326  0.0574
15815W        W31432   7.865   7.614   2.341 -0.2133 -0.2083  0.2410
15816W        W31433   2.743   3.122  13.927  0.0204 -0.0114  0.1769
15817W        W31434   3.650   9.003  15.793 -0.2851 -0.0229  0.4174
15818W        W31435   5.918   4.940  15.755 -0.1976 -0.1379  0.2817
15819W        W31436   3.323   4.080   5.497 -0.1525  0.2555 -0.2014
15820W        W31437  16.313  11.756   3.142  0.0408  0.1626  0.3431
15821W        W31438   0.757   7.217  13.321  0.1885 -0.1619  0.3669
15822W        W31439   0.120  15.454   2.485  0.1069 -0.0665  0.1161
15823W        W31440  10.170   4.758   2.489 -0.1224 -0.1040  0.0006
15824W        W31441   1.868   9.969  15.408  0.2229 -0.0099  0.0445
15825W        W31442   4.229   2.769   2.803 -0.0203  0.0183  0.1172
15826W        W31443  17.153   3.152   6.039 -0.0784  0.1213 -0.0870
15827W        W31444   9.407   8.423   1.013  0.0440  0.1830 -0.2175
15828W        W31445   7.147   3.000   1.777  0.0638 -0.2460  0.2048
15829W        W31446  16.331  15.185  14.589 -0.0691 -0.0619  0.0363
15830W        W31447  11.195  14.211  13.297  0.3722 -0.1496 -0.2988
15831W        W31448   4.335   9.329  16.793 -0.2202 -0.2333  0.2614
15832W        W31449   6.952   5.995   5.579 -0.0652 -0.4003  0.0417
15833W        W31450  14.000   2.195  11.159  0.0439 -0.0016  0.0129
15834W        W31451  15.368  10.216  14.664  0.1399  0.0543 -0.1498
15835W        W31452   4.181  11.397  13.777 -0.2359 -0.0776  0.1334
15836W        W31453   7.047   6.934  15.279  0.0095  0.0332 -0.0443
15837W        W31454  11.533  15.094   1.295  0.0740  0.0244 -0.0108
15838W        W31455  17.040   0.792  13.864 -0.0066  0.1261 -0.3391
15839W        W31456   9.228  14.984   1.824 -0.2477 -0.1332  0.1939
15840W        W31457   9.384  15.945  16.131 -0.0619  0.3731  0.1062
15841W        W31458  13.957  11.969   2.085  0.1286  0.1840  0.1513
15842W        W31459   8.236   7.233  13.095 -0.0477  0.2611 -0.3132
15843W        W31460   4.007   5.870  13.246 -0.2028  0.1021 -0.3114
15844W        W31461   2.931   3.574   5.499  0.2383 -0.0431 -0.0060
15845W        W31462   6.115  10.610  16.881 -0.0716  0.0652 -0.1526
15846W        W31463  13.275   8.211   0.580  0.0465 -0.1940 -0.2000
15847W        W31464   9.263   9.139   4.751 -0.1148  0.1547 -0.1691
15848W        W31465  16.258   9.196  13.069  0.0324 -0.2476 -0.0516
15849W        W31466  15.599   4.084  16.604  0.0250  0.0671  0.0740
15850W        W31467  14.717  15.587  16.453 -0.1785  0.1292 -0.4923
15851W        W31468   5.984  11.494  16.227  0.0095  0.0637  0.2128
15852W        W31469  16.998  12.118   5.872 -0.1278  0.1373 -0.2401
15853W        W31470   4.471  14.008   4.975 -0.0073 -0.0567  0.0894
15854W        W31471   9.586  12.524  14.538  0.0218  0.3184 -0.2111
15855W        W31472   6.997   5.502  14.561 -0.0243  0.1882 -0.0913
15856W        W31473   4.690  10.672   6.024  0.3176 -0.0290 -0.1415
15857W        W31474   0.127  12.611   3.337 -0.2943 -0.1288  0.0223
15858W        W31475  12.999   6.532   2.360  0.0691 -0.1222  0.1786
15859W        W31476  11.395  16.563  15.609  0.1379 -0.1373 -0.0289
15860W        W31477   6.681   6.332   0.793 -0.2799  0.1924  0.0620
15861W        W31478   0.806   1.434   0.525  0.0596 -0.2099 -0.1038
15862W        W31479   0.368  14.683   5.680  0.1129  0.0793  0.1242
15863W        W31480   6.853   4.656   3.097  0.2584 -0.1254 -0.1096
15864W        W31481   6.513  10.642  16.558 -0.1479 -0.1376 -0.0278
15865W        W31482   1.137  11.068   1.957 -0.2061  0.2516  0.0962
15866W        W31483  15.242  11.290  14.187  0.0976 -0.1013 -0.3173
15867W        W31484   9.125  15.825   3.940 -0.0173  0.1758 -0.1453
15868W        W31485   0.250   3.202  14.151  0.1363 -0.0349  0.4117
15869W        W31486  17.132  15.712   3.567 -0.3185 -0.3378 -0.0142
15870W        W31487   1.412  11.821  14.168  0.0158 -0.1431  0.3403
15871W        W31488   5.179   5.980  13.141 -0.1493 -0.0530 -0.0089
15872W        W31489   1.953   1.060   0.264 -0.2928  0.1476 -0.1916
15873W        W31490   5.386  10.890   6.519 -0.1794  0.1032  0.1037
15874W        W31491   1.918   9.786   4.848 -0.0608  0.2133 -0.1322
15875W        W31492   8.472   2.905  14.842 -0.2004 -0.2538  0.1501
15876W        W31493  15.791  13.714  12.877  0.1048 -0.0685 -0.0800
15877W        W31494  17.412   9.555  15.864 -0.1311  0.0138  0.2334
15878W        W31495   2.735   5.816   2.174  0.0485  0.1862 -0.2406
15879W        W31496   3.125   0.295   0.544 -0.1633 -0.1457 -0.2274
15880W        W31497   3.436  10.766  12.848  0.3699 -0.1051 -0.0140
15881W        W31498  15.991  13.005   2.216  0.1060 -0.3480  0.0318
15882W        W31499  17.347   3.369   1.794 -0.0019 -0.2650 -0.1455
15883W        W31500  14.077  10.911   0.287  0.3137  0.1122 -0.0618
15884W        W31501  13.486  10.929   1.200  0.0436  0.0135 -0.2896
15885W        W31502   0.534  13.215   2.995  0.3203  0.1192  0.1962
15886W        W31503  16.809   0.059   0.624 -0.0815 -0.0070 -0.0029
15887W        W31504  15.420  12.529   5.513  0.1029 -0.0079  0.0151
15888W        W31505  13.114   8.506   0.113 -0.0367 -0.0429  0.1379
15889W        W31506  12.733   7.404   2.552 -0.2361 -0.1265 -0.1919
15890W        W31507  14.561  13.596  12.001  0.3145  0.0304  0.1385
15891W        W31508   2.737  16.073   3.602  0.0607 -0.0404  0.0707
15892W        W31509   0.106  15.136  13.185 -0.0347 -0.2028 -0.2433
15893W        W31510   3.897   5.674  15.265 -0.2467 -0.0161 -0.0854
15894W        W31511   1.460  11.565  17.050  0.1659  0.0868 -0.2677
15895W        W31512   2.992  15.231   3.383  0.4641  0.1305  0.3207
15896W        W31513   6.989   2.599  14.020 -0.1535  0.0259 -0.0218
15897W        W31514  14.789   9.107  13.679  0.0985  0.1765  0.0205
15898W        W31515  17.209  12.624   2.001 -0.2137  0.0664 -0.0034
15899W        W31516   6.729   8.212  13.744  0.0883  0.2711 -0.1038
15900W        W31517   9.090  15.162   5.305 -0.1387  0.2465 -0.1469
15901W        W31518  17.516  13.482   0.371  0.0737 -0.2441  0.0592
15902W        W31519   1.268   8.626  13.705  0.2071 -0.0318  0.1900
15903W        W31520   5.763   7.291  12.647 -0.2415  0.1148  0.0026
15904W        W31521   8.972  14.540   5.332  0.0418  0.1106 -0.0418
15905W        W31522  14.613  12.703   1.800 -0.0318  0.0079 -0.0053
15906W        W31523   6.378   1.302   2.865  0.2010  0.0677  0.2082
15907W        W31524   2.427   8.806  17.153  0.0548  0.1396  0.1958
15908W        W31525   2.996   3.118  16.341 -0.1367  0.2555  0.0799
15909W        W31526   0.879  17.204  16.677 -0.1738 -0.0556 -0.2928
15910W        W31527  16.648  16.334  10.840  0.3403 -0.0578 -0.2450
15911W        W31528   1.025  12.046  14.120 -0.0092 -0.1378 -0.1148
15912W        W31529   5.743   7.402   5.041 -0.0694  0.1001 -0.0772
15913W        W31530   1.471  15.586  16.047  0.0071 -0.0944  0.2465
15914W        W31531   9.139   5.457   4.370 -0.0707 -0.3762  0.3047
15915W        W31532  10.148  16.561  16.225 -0.1401 -0.0458 -0.1484
15916W        W31533  12.536  11.623   3.715 -0.0593  0.0706 -0.0337
15917W        W31534   0.303  17.165  16.919  0.0481  0.1237 -0.1837
15918W        W31535  17.291  10.593   4.872 -0.2787  0.0818  0.0594
15919W        W31536  14.486   7.921   3.530  0.0596  0.3523 -0.1845
15920W        W31537  13.003  12.732   2.753  0.1148  0.0521  0.1924
15921W        W31538   1.034  15.938  16.690 -0.0311 -0.0923 -0.0455
15922W        W31539  11.270  16.022   4.779 -0.2316 -0.2204  0.2127
15923W        W31540  16.693   1.636   1.504 -0.4374  0.0178  0.2130
15924W        W31541  10.068   0.841  15.748 -0.1607 -0.0197 -0.2607
15925W        W31542   2.906  14.535  13.413  0.0034  0.2246 -0.2919
15926W        W31543  10.803   1.352   3.761  0.2439  0.1400 -0.1236
15927W        W31544   4.266   7.732   0.368  0.3933  0.1259 -0.4022
15928W        W31545   5.743  13.533   0.346  0.0949  0.0297 -0.2513
15929W        W31546   7.520   5.820  15.606 -0.0976 -0.0392  0.1825
15930W        W31547   1.571  16.716  13.871 -0.2015  0.2227  0.2506
15931W        W31548   6.940   7.295   5.892  0.0530  0.2042 -0.5706
15932W        W31549   1.706   1.378  14.823 -0.0022  0.0724 -0.3180
15933W        W31550  12.980   7.053   1.149 -0.0215  0.0562  0.3736
15934W        W31551  16.082   8.042   5.424 -0.0220 -0.0166  0.0808
15935W        W31552   3.825   6.053  12.411 -0.3955 -0.3104 -0.0735
15936W        W31553   4.675  15.194   5.501 -0.1489  0.0130 -0.0094
15937W        W31554   4.467  13.611  16.125 -0.3136  0.1347 -0.0374
15938W        W31555  11.876  14.976  15.836  0.1797 -0.2167  0.3494
15939W        W31556  11.377   2.746  16.944  0.0384  0.0842 -0.1287
15940W        W31557  11.927  17.454  16.996 -0.1452 -0.3898  0.0807
15941W        W31558   3.860   2.728   0.085  0.1063  0.0018  0.1852
15942W        W31559  11.403   3.870  13.098  0.0330 -0.0710 -0.0129
15943W        W31560  14.937   7.424  15.082  0.0017  0.2767  0.0630
15944W        W31561  13.091   4.449   0.086  0.0537 -0.0350  0.3866
15945W        W31562  15.091   5.393   3.084 -0.1942  0.1126 -0.1500
15946W        W31563   3.341   1.216   4.025 -0.2583 -0.0563 -0.1628
15947W        W31564   4.209   8.492  13.075  0.2070  0.0193 -0.1503
15948W        W31565   0.463   0.962  11.417 -0.3608  0.1702  0.1144
15949W        W31566   0.395  14.207  13.543  0.0596  0.0154 -0.1855
15950W        W31567  14.030  17.248  13.802  0.2906 -0.3277  0.0701
15951W        W31568   6.910   9.030   1.002 -0.0177  0.0352  0.0880
15952W        W31569  15.189   3.367   4.250  0.3014 -0.0158  0.1289
15953W        W31570   7.330   9.161  13.645  0.0795  0.0291 -0.0382
15954W        W31571  11.669   2.072  15.717  0.0702 -0.0515 -0.0030
15955W        W31572  17.374   0.345  11.926 -0.0634 -0.1621 -0.0576
15956W        W31573  15.645  10.228   5.902  0.2154 -0.0477  0.0048
15957W        W31574   2.464   7.734  13.945  0.1575 -0.1350 -0.1001
15958W        W31575  15.934  15.369  14.940 -0.2460  0.0859  0.4355
15959W        W31576  17.219  12.394  16.345  0.0950 -0.1510 -0.0621
15960W        W31577  16.467  15.714  12.874  0.1691 -0.2998  0.2534
15961W        W31578   2.141   9.172  14.457  0.1542 -0.1866 -0.0113
15962W        W31579   6.611   1.179  14.118  0.2263 -0.1488  0.0225
15963W        W31580  12.010   3.840   0.695  0.1071 -0.0647 -0.0714
15964W        W31581   5.725  12.922  14.126 -0.2145 -0.0961 -0.0572
15965W        W31582  11.520   5.322  14.989  0.3748 -0.0494 -0.2517
15966W        W31583  16.306  17.587  14.947  0.0891 -0.2335  0.2123
15967W        W31584   5.452   0.354   3.837 -0.0614 -0.1529  0.4699
15968W        W31585  10.311   8.906  12.447 -0.1250  0.1058  0.0132
15969W        W31586  16.327   7.873   6.331 -0.0657 -0.0718  0.0188
15970W        W31587   8.857  12.071  17.024  0.0505 -0.0919  0.2313
15971W        W31588  11.199  15.990  16.535  0.1261  0.1592 -0.0745
15972W        W31589  15.052   2.851   5.728 -0.4781 -0.1012  0.0850
15973W        W31590   6.528  16.919   1.103 -0.1857  0.0377  0.0644
15974W        W31591   8.527   0.431  13.596  0.0087  0.2110 -0.2530
15975W        W31592  15.749  14.170  12.029  0.0537 -0.1235  0.0259
15976W        W31593  10.994   0.060  16.548  0.0873 -0.0524  0.0474
15977W        W31594  14.163   5.813  12.426 -0.2315 -0.1735  0.0548
15978W        W31595   4.889   5.218  14.585  0.1429  0.0650 -0.1739
15979W        W31596  15.086  11.065  12.185  0.2058 -0.0187 -0.2217
15980W        W31597   0.549   9.863  14.823 -0.0521 -0.1998  0.0965
15981W        W31598   2.812   2.788   4.345 -0.1763 -0.1349 -0.0025
15982W        W31599   2.525   2.727  16.555  0.1258 -0.1404 -0.2106
15983W        W31600   2.208  15.252  14.870  0.3157 -0.1896  0.3443
15984W        W31601  11.249  17.597  13.606 -0.3773  0.0234  0.0292
15985W        W31602   9.724   8.332   0.660  0.1067 -0.1270 -0.0166
15986W        W31603   9.068  11.003   0.080  0.0698 -0.0062  0.0184
15987W        W31604   7.325  17.326  13.274 -0.3318  0.1690 -0.3607
15988W        W31605   4.882   7.486   5.575  0.1755 -0.0617 -0.0411
15989W        W31606   4.744  12.285   6.283  0.1168  0.0063  0.3456
15990W        W31607   1.816   8.904   4.034  0.1941 -0.2628  0.2301
15991W        W31608   9.022  14.902   3.346  0.0847 -0.0261 -0.0029
15992W        W31609  16.728  10.651  14.732  0.1265 -0.1596  0.0418
15993W        W31610  16.022  14.367   1.430  0.0395 -0.2043 -0.0576
15994W        W31611  17.580   9.935   2.125 -0.1511  0.0116  0.0882
15995W        W31612  15.429   7.609   6.349  0.0490  0.2666  0.0025
15996W        W31613   4.531  13.616   5.889  0.2831 -0.0766 -0.4014
15997W        W31614   7.022   3.154  13.766 -0.0557 -0.4773  0.2979
15998W        W31615  16.896  15.572  12.636  0.2792 -0.1759 -0.0652
15999W        W31616  11.595   8.513   3.531  0.1874  0.1942  0.0391
16000W        W31617  12.612   9.252  15.392 -0.0086 -0.1837 -0.4326
16001W        W31618  17.419   0.001  12.887  0.0729  0.0683  0.1567
16002W        W31619   8.302  16.280   3.436 -0.2117  0.1073 -0.0655
16003W        W31620   0.788   1.947   1.540  0.0856  0.0069 -0.2048
16004W        W31621  16.391   2.150  15.250  0.2416  0.0379 -0.1247
16005W        W31622  16.521  11.518  14.225  0.2564 -0.0300  0.1010
16006W        W31623   2.034  16.696  14.331  0.0566 -0.1061  0.0039
16007W        W31624   1.748  11.715  12.266  0.0161 -0.0687  0.0905
16008W        W31625   1.190   3.171  15.301 -0.2150 -0.2065  0.0908
16009W        W31626   9.896   2.243  14.740 -0.4876 -0.0176  0.0861
16010W        W31627   5.981   9.151  17.254 -0.1096 -0.2746 -0.2313
16011W        W31628  16.885  12.856  12.683  0.1020  0.3801  0.0324
16012W        W31629   5.867   8.414  13.098 -0.4851  0.3237 -0.1687
16013W        W31630   7.926  13.788  11.181 -0.2345 -0.0421 -0.1907
16014W        W31631  13.142  12.723  17.162 -0.1219 -0.1783 -0.0320
16015W        W31632  15.839   0.593   2.047 -0.1902 -0.0488  0.2667
16016W        W31633   7.815  11.050   5.323  0.1230  0.1045  0.0583
16017W        W31634  12.042  17.096  16.128 -0.0549 -0.1459  0.0128
16018W        W31635   2.592  11.948  14.911  0.1381  0.0852 -0.0895
16019W        W31636  11.330   9.238   2.317  0.1433  0.2071  0.2064
16020W        W31637   9.171   8.629  16.891  0.1479 -0.1861 -0.0972
16021W        W31638   8.161   5.261  17.265  0.0373  0.0354 -0.1781
16022W        W31639   3.822   7.340  16.844  0.2593 -0.1587 -0.0934
16023W        W31640   4.761  14.481   1.295  0.0257 -0.2155 -0.0552
16024W        W31641   7.012   7.364   3.607  0.6317  0.1327  0.0329
16025W        W31642   6.839  14.150   5.161  0.2137  0.2643  0.4007
16026W        W31643   2.026  16.779  11.404 -0.3731 -0.2754 -0.0789
16027W        W31644   6.305  12.547   3.297  0.1271  0.1382  0.0253
16028W        W31645   0.826   7.963   0.844 -0.0511  0.1409  0.0827
16029W        W31646  13.867   4.470   0.041 -0.0614 -0.0582 -0.3153
16030W        W31647  15.872   6.830  14.344  0.0280  0.2948  0.0958
16031W        W31648   3.281  15.298   1.555  0.0259  0.2759  0.0047
16032W        W31649   7.626  13.330  12.846  0.1540 -0.0720  0.0609
16033W        W31650   6.725   0.368  12.027 -0.2189 -0.2734  0.2293
16034W        W31651  13.026   8.194   5.467  0.2370 -0.3291  0.2693
16035W        W31652   4.132   5.848   0.252 -0.4015  0.0498 -0.1894
16036W        W31653  16.362  12.553  13.404 -0.1210 -0.0327  0.1546
16037W        W31654  12.912   0.946  14.814 -0.0097 -0.1090 -0.4655
16038W        W31655   5.114  17.069  16.317 -0.3217 -0.0391  0.1304
16039W        W31656   3.862  10.713   5.720  0.0648  0.0126  0.2486
16040W        W31657   5.808   2.128  14.243  0.0680  0.3787 -0.3064
16041W        W31658  17.345   1.831  17.042 -0.0126 -0.2462 -0.2411
16042W        W31659  16.061  11.289   3.176  0.0101 -0.1900  0.2239
16043W        W31660   6.486  10.510   4.155 -0.0673 -0.1771 -0.0082
16044W        W31661  12.227  17.146   2.360 -0.0564  0.2390  0.2624
16045W        W31662  12.061   6.364  13.980 -0.1546 -0.1369  0.0551
16046W        W31663   6.399   0.149   3.988  0.1499  0.0869 -0.1416
16047W        W31664   8.105   2.155   1.207 -0.2314 -0.3323  0.1773
16048W        W31665   6.323   3.294  14.358  0.1622  0.2857 -0.0061
16049W        W31666  17.168  12.854  16.283  0.0526  0.2270  0.1952
16050W        W31667   0.596  15.942   0.484  0.0446  0.0914 -0.0266
16051W        W31668   6.255   4.981  17.089 -0.1192  0.0123 -0.0058
16052W        W31669   3.909  17.326   0.396 -0.0205  0.0818 -0.2157
16053W        W31670   7.328   9.460   0.397  0.1483  0.2156  0.0401
16054W        W31671   8.219  10.841   1.650  0.2579 -0.3213 -0.0746
16055W        W31672   4.471  14.361   3.982 -0.0763 -0.0666 -0.0504
16056W        W31673  13.946  17.340   5.603 -0.0141  0.0840  0.0131
16057W        W31674   4.643   5.208   6.550 -0.2237 -0.2346 -0.0943
16058W        W31675   2.322   7.481   0.325  0.2065  0.0607  0.3252
16059W        W31676  10.884   8.607  13.261 -0.0321  0.3186  0.0388
16060W        W31677   1.843   9.023  15.285  0.0487 -0.0826  0.3731
16061W        W31678   7.849  13.348  12.403  0.1999 -0.3582 -0.1499
16062W        W31679   4.968  16.373  11.626  0.2046  0.1211 -0.0032
16063W        W31680   9.920   6.146   0.684  0.1316 -0.0441 -0.0417
16064W        W31681   5.070   6.828   0.602 -0.2677 -0.0987  0.2411
16065W        W31682   5.832   9.566   2.350 -0.0413  0.0930 -0.1190
16066W        W31683   4.606  15.482  12.428  0.5089 -0.1655 -0.2666
16067W        W31684  11.252   4.097   1.668 -0.1197 -0.0494  0.1404
16068W        W31685  15.780  10.180   3.329 -0.1056 -0.1503 -0.0128
16069W        W31686   1.869  10.051   6.244  0.0306 -0.1268 -0.0927
16070W        W31687   4.446  11.690   0.005  0.1168  0.0898 -0.0091
16071W        W31688  13.510   7.896  16.261 -0.3910 -0.0186 -0.2258
16072W        W31689   9.950   0.891  13.121 -0.1944  0.0051 -0.1134
16073W        W31690   3.202  10.232   3.727 -0.1649  0.1188  0.0164
16074W        W31691   3.111   7.530   0.023  0.1613  0.2606  0.0390
16075W        W31692  14.797   9.774   5.344 -0.4774 -0.0331  0.2513
16076W        W31693   1.886   8.021   1.895 -0.1333  0.0480 -0.0322
16077W        W31694  10.764   0.206  15.064  0.0070 -0.2585 -0.1932
16078W        W31695  12.857  17.241   3.211 -0.1975 -0.1862  0.0798
16079W        W31696   0.914   2.915  14.377 -0.0550  0.0231  0.0458
16080W        W31697   4.863   4.466   1.568  0.3655 -0.2517 -0.0310
16081W        W31698   8.736  12.898   2.979  0.0942  0.0542  0.0089
16082W        W31699  14.547  11.130  12.837  0.0409 -0.0242 -0.2153
16083W        W31700   2.174   4.754  14.394 -0.2501 -0.1523 -0.0545
16084W        W31701  10.100   7.053  16.843  0.4761  0.1361 -0.1765
16085W        W31702   8.268   8.073   3.913  0.0658 -0.1603  0.0823
16086W        W31703   1.909  11.098   0.323  0.0796  0.1427  0.0633
16087W        W31704   7.589  17.359  15.024  0.0002  0.0964  0.0890
16088W        W31705   3.313   8.392  12.040 -0.1322  0.0158  0.1369
16089W        W31706  10.543   0.624  15.884 -0.2578  0.0748  0.0617
16090W        W31707  11.693   1.923  11.452 -0.0914 -0.1833 -0.1459
16091W        W31708  13.367   2.602   0.242 -0.0921  0.1692 -0.0924
16092W        W31709   1.460  13.238   4.056  0.1644  0.1686 -0.0015
16093W        W31710   4.729  16.369  17.070  0.1619 -0.1297 -0.0518
16094W        W31711   0.222   6.069   2.250 -0.1158 -0.1015 -0.4490
16095W        W31712  16.819   2.546   2.660  0.0187 -0.0078  0.0329
16096W        W31713  14.966  15.003  12.162 -0.0883  0.0180  0.1323
16097W        W31714   3.851   6.863   0.102 -0.0864 -0.0104  0.1711
16098W        W31715   4.491   3.658  13.313  0.2067 -0.0361 -0.0705
16099W        W31716  14.065   6.081   2.840  0.0713  0.1222 -0.1579
16100W        W31717   9.844  12.813  17.042  0.1973  0.1633  0.1816
16101W        W31718   6.055   8.404   0.133 -0.2122  0.2090 -0.0282
16102W        W31719  16.879   3.072   0.062  0.1326  0.0661  0.2825
16103W        W31720   7.224   8.120  12.561 -0.2894  0.1126  0.0329
16104W        W31721  15.524  17.195   1.982  0.2679 -0.2998  0.0991
16105W        W31722  12.925   7.965  12.692 -0.2255  0.2004 -0.0612
16106W        W31723   0.401  15.617   5.831  0.0721  0.1507  0.1987
16107W        W31724   1.802   7.007  14.680 -0.3083  0.0506  0.0716
16108W        W31725   6.289  10.997   2.191  0.0220 -0.0400 -0.2086
16109W        W31726  12.573   0.163   0.168 -0.2778 -0.1243 -0.3146
16110W        W31727   3.764   0.751   1.624 -0.0918 -0.0185 -0.1529
16111W        W31728  12.213   4.958  12.668 -0.3028  0.0239 -0.0575
16112W        W31729   5.711   4.435  15.489 -0.0347 -0.1404 -0.0495
16113W        W31730  12.112   4.276  14.130 -0.0795  0.1399  0.0673
16114W        W31731   3.081  16.456  14.901  0.0164  0.0822  0.0267
16115W        W31732  13.469   3.244  13.700  0.1305 -0.0123  0.1357
16116W        W31733  14.493   9.406  17.069  0.0323 -0.0741 -0.0097
16117W        W31734  10.567  12.322   3.715  0.0789 -0.2582  0.0416
16118W        W31735   8.310   0.562  11.274 -0.0025 -0.2112  0.0471
16119W        W31736   5.762   6.374   3.404 -0.1434 -0.1685  0.2210
16120W        W31737   9.097  13.553   0.199  0.3206  0.0693  0.2312
16121W        W31738   4.792  16.222   3.574 -0.0297  0.3334  0.0348
16122W        W31739  14.450   0.011  16.920  0.0062  0.1384  0.3382
16123W        W31740  13.780   2.126   0.922  0.0433  0.1340 -0.2428
16124W        W31741   2.341  15.762   1.588  0.3608 -0.1133  0.3085
16125W        W31742  14.265  10.669   3.729  0.0996 -0.1179  0.1291
16126W        W31743   6.156  10.961  13.242 -0.2315  0.1502 -0.0492
16127W        W31744   5.566   5.206   2.562  0.2556 -0.0629  0.0097
16128W        W31745   5.088  17.500  11.326  0.3566 -0.0745 -0.3057
16129W        W31746  16.262  11.642   0.575  0.0381  0.0826  0.1451
16130W        W31747   2.486   8.878  15.945 -0.5169  0.1518  0.3458
16131W        W31748   7.504   8.198  15.393 -0.2368  0.0624 -0.2423
16132W        W31749  10.198   0.878   4.499 -0.3820 -0.3805 -0.1639
16133W        W31750  13.080   2.851  16.833 -0.0921  0.3966 -0.0385
16134W        W31751   4.122  11.647   3.887  0.0588 -0.1636 -0.1839
16135W        W31752   8.765   5.803  14.903  0.3691  0.2823  0.0290
16136W        W31753  16.373   7.284  17.081  0.1474 -0.3175  0.1180
16137W        W31754   7.640  16.839  14.149  0.0005  0.1053  0.1819
16138W        W31755   8.396   3.907  13.824  0.1953  0.1155  0.3420
16139W        W31756  13.741  13.874   2.396  0.1331  0.0724  0.2348
16140W        W31757   3.878  14.976  14.262 -0.1528 -0.0359 -0.0632
16141W        W31758  13.841   8.649   4.031 -0.2648 -0.1683  0.0438
16142W        W31759   3.102  11.187  12.624 -0.0427 -0.1400 -0.0321
16143W        W31760   0.992  10.200   6.021  0.1370 -0.1518 -0.1015
16144W        W31761   0.777   1.826  16.626  0.0022 -0.1574 -0.0796
16145W        W31762   6.934  14.531  15.088 -0.0518 -0.0312 -0.1566
16146W        W31763  10.924   2.104  12.412  0.0954 -0.0403  0.1771
16147W        W31764   2.700   5.291  14.154 -0.1880 -0.1124 -0.1678
16148W        W31765  12.644  10.955  12.808 -0.0743 -0.3254  0.1963
16149W        W31766   7.614  11.977   1.265  0.0275 -0.0299 -0.0338
16150W        W31767  14.131   2.919  12.270 -0.2514  0.0017  0.3049
16151W        W31768   4.403  11.064  16.932 -0.1478 -0.2091  0.0762
16152W        W31769   0.864   2.016  15.640  0.2066 -0.2010 -0.1179
16153W        W31770  16.595  14.388   5.975  0.0690  0.0205  0.0424
16154W        W31771   6.085   5.961  14.759  0.0245 -0.0445 -0.2560
16155W        W31772  12.830   2.205  15.354 -0.0690  0.1801  0.2313
16156W        W31773   6.734  13.114   3.632 -0.0760 -0.2077 -0.0798
16157W        W31774   4.799   2.304   4.596  0.0718 -0.0435  0.2757
16158W        W31775   3.021  14.284   3.428 -0.0149 -0.0770 -0.0719
16159W        W31776  17.045   7.794  15.104  0.0859  0.2842 -0.2394
16160W        W31777   7.351   6.935   0.707 -0.2938  0.0858  0.2709
16161W        W31778   0.767   6.349  17.259 -0.2415  0.1772  0.1846
16162W        W31779   2.793   1.105   0.177 -0.0969  0.0706  0.1717
16163W        W31780   1.160   7.821  12.559  0.1554 -0.3322 -0.3509
16164W        W31781  16.305   2.178   0.200 -0.1031  0.2426  0.0249
16165W        W31782  12.454  12.577   5.654 -0.2331 -0.3587  0.2532
16166W        W31783  12.257   0.467   3.057  0.0358 -0.2877 -0.0946
16167W        W31784  16.506   2.096   4.321  0.1570 -0.2577  0.0567
16168W        W31785  11.410   4.028   5.195  0.1992  0.3158  0.0212
16169W        W31786   9.309   6.560   2.866 -0.2671 -0.1516  0.2716
16170W        W31787  10.235   3.335   3.268 -0.0541 -0.0602  0.2532
16171W        W31788  17.032  10.275  16.883 -0.0975  0.1208  0.1239
16172W        W31789   7.540   1.254  14.188  0.0162  0.2593 -0.0606
16173W        W31790   9.725  12.100   5.933  0.1205 -0.2229  0.1031
16174W        W31791  14.850  16.963  13.341 -0.1073 -0.1763 -0.1818
16175W        W31792  10.359   3.788   4.087 -0.0415  0.2291 -0.1437
16176W        W31793  14.988  11.840  12.506  0.2383  0.0099 -0.0760
16177W        W31794  15.066  12.607  15.628 -0.1502  0.1021  0.6055
16178W        W31795  16.805  11.841  15.565  0.1638 -0.0878  0.0473
16179W        W31796  10.129  10.091  17.231 -0.0085 -0.3287  0.0635
16180W        W31797   3.330  15.817  14.158  0.1520  0.1066 -0.3053
16181W        W31798   8.590   3.468  15.053  0.0137  0.1058  0.0849
16182W        W31799  15.647  11.662   1.715 -0.4092 -0.0326 -0.2336
16183W        W31800  17.327   1.339   4.095 -0.1171 -0.0660  0.0912
16184W        W31801  12.506  12.516   2.728 -0.2357 -0.1483 -0.0225
16185W        W31802   9.520   0.409   3.945  0.2656  0.2848 -0.0199
16186W        W31803   6.760   0.775  14.496  0.0802  0.0947  0.2186
16187W        W31804   6.083   9.987   5.248  0.0570 -0.1524  0.0258
16188W        W31805  13.701  15.808  12.785  0.1739 -0.0056  0.1695
16189W        W31806  11.820   7.301  17.177  0.3540 -0.1085 -0.1641
16190W        W31807   5.672   1.092   6.212 -0.1606 -0.2619  0.0022
16191W        W31808   1.792   1.099  12.150 -0.1209 -0.1177 -0.0288
16192W        W31809   4.846  13.325  15.240  0.0489 -0.0412 -0.2939
16193W        W31810   9.495   3.497   4.473  0.0515 -0.1850  0.1029
16194W        W31811   3.700  11.256  12.896 -0.2016 -0.0522 -0.0251
16195W        W31812   5.064   3.374   3.098 -0.3163 -0.0343  0.3811
16196W        W31813   5.870  15.226   4.964  0.2997 -0.1630 -0.2491
16197W        W31814   3.567   7.953  16.063  0.5327 -0.4530 -0.0350
16198W        W31815  16.929   0.272  15.157  0.0196  0.2226  0.0047
16199W        W31816   1.142   2.106  14.188 -0.0989 -0.0683  0.3070
16200W        W31817  17.102   0.348  16.433 -0.0874 -0.0902 -0.1317
16201W        W31818  11.285  12.871   1.018 -0.2874  0.2422  0.0325
16202W        W31819  10.433  10.090   5.108  0.4770 -0.2453 -0.0366
16203W        W31820  13.985  12.826  14.340 -0.0461 -0.1018  0.0116
16204W        W31821  15.517   4.853  15.158  0.1440 -0.0418 -0.1494
16205W        W31822   8.187  15.494   6.160 -0.1400 -0.0714  0.0680
16206W        W31823  10.140   6.628   0.785 -0.2938  0.0393  0.1070
16207W        W31824  15.042  10.144   2.700 -0.0949 -0.0140 -0.0143
16208W        W31825   1.347  12.629   1.142 -0.0846  0.0683  0.2009
16209W        W31826  17.427   8.142   4.077  0.2140  0.1418  0.1183
16210W        W31827   3.472   0.719   4.414  0.2791 -0.0773  0.3134
16211W        W31828  16.541   1.345  14.365 -0.4907 -0.0637  0.0282
16212W        W31829  16.355  13.605   5.234  0.0351 -0.2321 -0.2392
16213W        W31830   9.852  13.134  13.989 -0.1639  0.2092 -0.2200
16214W        W31831   6.710   4.449   0.579 -0.1646  0.2429 -0.0711
16215W        W31832   5.951   7.593  13.566  0.0702  0.1923 -0.0720
16216W        W31833  13.753   4.157  15.033  0.1444  0.0706  0.1159
16217W        W31834   4.072  13.907  13.624  0.0100  0.3356 -0.2036
16218W        W31835  13.632   7.633  12.969  0.1643 -0.2918  0.0382
16219W        W31836  14.458   0.929   5.049  0.2030  0.0250  0.0274
16220W        W31837   6.805  13.090   1.293  0.2595  0.2256  0.0527
16221W        W31838  14.871   4.017  14.543  0.0327 -0.0163 -0.1592
16222W        W31839   3.805  14.150   1.032 -0.1782  0.1231  0.1591
16223W        W31840   5.728  16.380   5.114 -0.2787 -0.3088  0.0092
16224W        W31841   1.314  14.969   4.839 -0.5080 -0.1953 -0.2474
16225W        W31842   1.537   3.509   5.153 -0.3178  0.0818 -0.1151
16226W        W31843   7.441   7.198  15.128  0.1198 -0.0284 -0.0481
16227W        W31844  11.774  13.463   0.612 -0.1977  0.0550  0.0335
16228W        W31845  10.065  11.840   3.172  0.1810 -0.0033 -0.4716
16229W        W31846  14.501  10.828  15.248  0.4005 -0.2080  0.0308
16230W        W31847   0.583   4.036   3.764 -0.0421 -0.3158 -0.1422
16231W        W31848   2.351   5.132   3.417  0.2034  0.3054  0.0853
16232W        W31849   1.033   6.944  13.829  0.0784  0.0730  0.1181
16233W        W31850  11.691   0.146  11.168  0.1963 -0.0044 -0.0373
16234W        W31851   1.753   6.751  14.200 -0.1712  0.3051 -0.2394
16235W        W31852   4.284  11.055   1.113 -0.0156 -0.2686  0.0514
16236W        W31853   8.831   5.226   5.530 -0.1982 -0.0510 -0.0342
16237W        W31854  16.739   4.714  16.824 -0.1064  0.2283  0.1143
16238W        W31855  10.750   0.077   4.502 -0.0118  0.1086 -0.0640
16239W        W31856   4.241  11.236  12.829  0.1184  0.2853  0.0558
16240W        W31857   1.033   8.634  14.171 -0.1851 -0.1255  0.1704
16241W        W31858   5.465   6.887   5.337  0.0993  0.0787  0.2352
16242W        W31859  12.324   3.063  14.261 -0.1404  0.1119 -0.1407
16243W        W31860   5.736   6.009   1.357 -0.0431  0.0401  0.1931
16244W        W31861   0.519   3.258   3.124  0.2082  0.2254  0.1154
16245W        W31862   9.222  14.360   3.509  0.1750  0.0403  0.3056
16246W        W31863  12.155   2.888  15.837 -0.3598 -0.2543  0.0090
16247W        W31864   2.673   2.215  12.468 -0.1310 -0.2139  0.1886
16248W        W31865   3.775  13.357   4.454  0.1762  0.0534 -0.0148
16249W        W31866   3.553   1.868   5.333 -0.0669 -0.1321 -0.0388
16250W        W31867   7.089  12.763   0.234  0.0044 -0.1211  0.2300
16251W        W31868  12.551  13.692   1.261  0.1137 -0.1112  0.4257
16252W        W31869   1.871   5.409   4.881  0.0406 -0.1146  0.1135
16253W        W31870  12.708   6.918  12.221  0.1108  0.0685 -0.0089
16254W        W31871  15.550  16.759  12.638  0.0536  0.0128 -0.1270
16255W        W31872   5.940   5.682  13.679  0.1705  0.2180  0.1853
16256W        W31873  12.488   0.318   2.574 -0.0530 -0.3362  0.0307
16257W        W31874   7.396   8.193   0.631 -0.0647  0.0358  0.2822
16258W        W31875   3.884   0.715   5.904  0.2560  0.0628  0.2280
16259W        W31876   9.832  12.253   1.112 -0.0794  0.2164  0.0648
16260W        W31877   2.670   2.917   3.857 -0.2097 -0.0370 -0.1256
16261W        W31878   8.337   3.426   2.437 -0.0969 -0.2283 -0.1150
16262W        W31879   2.508   3.761  12.555 -0.0184  0.0529  0.1412
16263W        W31880   9.823  15.593  14.262  0.1855 -0.0634  0.0126
16264W        W31881   6.230  16.294   5.102 -0.2397 -0.0971 -0.0932
16265W        W31882   0.301   6.883   3.295 -0.2957  0.2304  0.2712
16266W        W31883  11.401   8.061  14.001  0.2016 -0.1804  0.3338
16267W        W31884   3.327   5.748  15.327 -0.0021 -0.1406 -0.0850
16268W        W31885   1.051  12.604  14.204 -0.3562 -0.0918 -0.3545
16269W        W31886   9.351  11.557  11.605  0.2256 -0.0241 -0.0494
16270W        W31887  11.798   2.355   2.692 -0.1781 -0.0222 -0.0198
16271W        W31888  16.569   9.975   3.324  0.0779 -0.2375 -0.0069
16272W        W31889  11.641  10.647   2.792 -0.1990 -0.0494 -0.1094
16273W        W31890   9.035  12.309   5.438 -0.1051 -0.0002  0.0386
16274W        W31891  15.529   5.373   2.267  0.0529 -0.0046  0.1070
16275W        W31892   3.172   1.675   3.830 -0.1456  0.0501  0.0465
16276W        W31893   8.642  15.495   1.707 -0.0852  0.1132 -0.1162
16277W        W31894  16.792   3.660  16.736 -0.2492  0.3900 -0.1826
16278W        W31895  10.977   3.023  14.128  0.1170  0.2781 -0.1291
16279W        W31896  15.133  15.036  14.022  0.1103 -0.2306 -0.1095
16280W        W31897   1.968  16.600   1.669 -0.0307 -0.1109 -0.0686
16281W        W31898   5.124   1.953  12.366 -0.0058 -0.2345 -0.1436
16282W        W31899   1.766   6.834   6.163 -0.2536  0.1858  0.2467
16283W        W31900   9.705   5.354   4.298 -0.3043 -0.1069  0.0144
16284W        W31901   7.058   9.114  12.323 -0.0522  0.2257  0.1692
16285W        W31902   9.554   1.247  14.800 -0.0093  0.1672 -0.1753
16286W        W31903   8.646   1.476  16.625 -0.0105 -0.1807 -0.1621
16287W        W31904   0.129   0.294   4.075  0.0353 -0.1974  0.1524
16288W        W31905  15.466   2.885   2.377  0.0257  0.0178  0.3213
16289W        W31906   6.993   1.353   5.808 -0.0661 -0.0306  0.0406
16290W        W31907   2.155   2.126  14.294  0.1117  0.0213 -0.0447
16291W        W31908   7.632   6.219   6.898  0.1609  0.3237  0.0830
16292W        W31909   7.064  13.523   1.730 -0.0233 -0.0086  0.1678
16293W        W31910  11.407  12.333   2.160  0.1884  0.0032  0.0239
16294W        W31911   1.932  17.047   1.333  0.2107 -0.2032 -0.2820
16295W        W31912  14.640  12.110  12.923  0.0496  0.1606  0.0253
16296W        W31913   0.626  10.430   4.395  0.0103  0.1269 -0.1150
16297W        W31914  11.360  17.411  12.532 -0.2228  0.2100  0.1730
16298W        W31915  14.692  15.372  16.913  0.2841 -0.0625  0.4141
16299W        W31916   7.854  13.259   0.935 -0.0230 -0.2088 -0.0477
16300W        W31917   0.184  12.344   1.451  0.0731 -0.1287  0.0152
16301W        W31918  13.905   4.446   6.292  0.0688 -0.0704 -0.0394
16302W        W31919   1.877  14.857  11.981 -0.0834 -0.0336 -0.0706
16303W        W31920   5.659  13.976  14.257  0.0451  0.1235 -0.4304
16304W        W31921  11.185   8.382   1.264 -0.0423  0.0884 -0.3549
16305W        W31922   6.794  11.104  16.774  0.1954  0.2253 -0.3269
16306W        W31923   8.434   3.641   1.499 -0.3139  0.0947 -0.2934
16307W        W31924   6.287  11.456   4.274  0.3239 -0.1319 -0.1952
16308W        W31925  10.453   4.326   3.873  0.2546 -0.0817  0.2153
16309W        W31926   7.425  16.286   2.437 -0.4146 -0.0240 -0.1498
16310W        W31927   9.923  16.656  14.059 -0.2170  0.1949  0.1822
16311W        W31928   5.532   1.690   3.526 -0.0131  0.1368  0.1941
16312W        W31929  16.264  11.390  13.424  0.0907 -0.2118  0.0615
16313W        W31930  13.888  15.073  15.994  0.0788  0.0753  0.1389
16314W        W31931  14.356  11.249   3.157  0.2610  0.1154 -0.2700
16315W        W31932  13.568   3.496  14.226  0.0383 -0.1895 -0.1422
16316W        W31933   4.031  10.553   4.108  0.0347  0.3330 -0.1065
16317W        W31934   2.548  11.357   6.143 -0.1316  0.1947  0.0318
16318W        W31935   2.557   6.797  15.214  0.0172 -0.0341 -0.3927
16319W        W31936   4.218   9.002   0.475 -0.0043  0.1274 -0.1019
16320W        W31937   0.688  13.479  15.334  0.1271 -0.1984  0.1477
16321W        W31938   9.179  16.422   3.588 -0.1421  0.3062 -0.1213
16322W        W31939  11.697   9.549   4.403 -0.0309  0.2874  0.0284
16323W        W31940  15.481  11.632  14.459 -0.1471  0.1045  0.1989
16324W        W31941   9.687   2.646   6.082 -0.0328 -0.0531  0.3014
16325W        W31942   8.214   7.174  14.723  0.1805  0.4204 -0.1591
16326W        W31943   2.734  12.880   3.866 -0.1616  0.1632  0.1918
16327W        W31944   3.526  17.448   1.825 -0.1208 -0.0240 -0.2066
16328W        W31945   1.970   4.577   2.696 -0.0061  0.0055 -0.1079
16329W        W31946   1.900  13.218   4.785 -0.1873  0.1784 -0.2517
16330W        W31947   3.413   7.658  14.571  0.0961  0.1891  0.0209
16331W        W31948  13.244   7.030  11.798  0.2081 -0.0752  0.1815
16332W        W31949  10.853  10.268  12.412  0.0531 -0.2355 -0.1605
16333W        W31950   5.945   8.986   0.446 -0.0995 -0.1212  0.1440
16334W        W31951   6.581   9.821   6.426  0.1561 -0.3046  0.0135
16335W        W31952   3.840   0.495   5.063 -0.1159  0.1541 -0.1298
16336W        W31953  13.542  16.998   5.673 -0.1170 -0.0412 -0.1155
16337W        W31954  16.732  14.968  17.164 -0.1346 -0.0559  0.1617
16338W        W31955   0.040  13.288  14.505 -0.0125 -0.1775 -0.0032
16339W        W31956   0.413  14.579   2.674 -0.1065  0.0278  0.2104
16340W        W31957  10.134   7.984   4.709  0.1292  0.2305 -0.0884
16341W        W31958  16.461   9.270   5.136 -0.2271 -0.3854 -0.0911
16342W        W31959  13.231  12.729   2.251 -0.1134  0.2585  0.0884
16343W        W31960   0.110   2.969   4.523 -0.1129 -0.1142  0.0427
16344W        W31961   4.516   0.506  16.139 -0.1968  0.2647  0.1083
16345W        W31962  11.596   3.867  16.640  0.1543 -0.0454 -0.1340
16346W        W31963  14.601  15.263  11.475  0.2689  0.2962  0.1457
16347W        W31964   6.914  13.668   3.666 -0.1661  0.1474 -0.1335
16348W        W31965  12.073   0.484  12.745 -0.0206 -0.1201 -0.2349
16349W        W31966  10.605   5.023   0.878  0.0922 -0.1565  0.0462
16350W        W31967  13.020   0.019  16.138 -0.0775 -0.2345  0.2121
16351W        W31968  11.996   1.866   3.106  0.0249 -0.2661  0.1250
16352W        W31969   7.178   8.452   1.183  0.0202  0.1618 -0.0359
16353W        W31970   4.255  13.488   2.234 -0.1156 -0.1861 -0.3585
16354W        W31971   8.074  13.524   4.460 -0.1253 -0.0295 -0.2976
16355W        W31972   1.568  11.254  14.241 -0.0614  0.0191 -0.0830
16356W        W31973  15.600  13.876  16.949  0.1179  0.0285  0.0081
16357W        W31974  14.891  11.276  14.601 -0.1084  0.1215  0.1470
16358W        W31975   6.118   1.194  16.185  0.2096 -0.3937 -0.1793
16359W        W31976   3.926  13.187  13.394  0.1505 -0.1536 -0.3589
16360W        W31977  14.870   8.115   0.153 -0.1223  0.0584  0.3672
16361W        W31978  13.478   8.401  17.040 -0.1718  0.0628  0.0450
16362W        W31979   7.136   7.675  14.180 -0.0135 -0.0355 -0.2024
16363W        W31980   5.715  11.002  15.034 -0.2838  0.0088 -0.3240
16364W        W31981  13.672   6.819   3.278 -0.0763 -0.3938 -0.1394
16365W        W31982  12.113  11.483   4.522 -0.0412  0.1934  0.1807
16366W        W31983  17.079  14.170  15.340 -0.5995 -0.0134 -0.1483
16367W        W31984  15.341   5.575   0.136 -0.0947 -0.0132  0.1966
16368W        W31985   1.874   3.952  11.364 -0.0605 -0.0989  0.0125
16369W        W31986  12.421   4.146   3.805  0.3465  0.0474  0.1431
16370W        W31987   7.248   8.409   2.540  0.0101 -0.3414 -0.0699
16371W        W31988  11.209  15.230  15.818 -0.2214  0.2900  0.2449
16372W        W31989   6.351  16.246   2.083 -0.1206  0.7046  0.2257
16373W        W31990   4.747   1.079  14.441 -0.0829  0.2360  0.1130
16374W        W31991  13.120  15.211  16.135 -0.1927 -0.1872 -0.0716
16375W        W31992   3.250   1.426  14.678  0.1384 -0.1340 -0.3790
16376W        W31993  15.942  16.068  16.564 -0.1583  0.0040  0.0588
16377W        W31994  13.771  15.593   5.555  0.0836 -0.0774 -0.2218
16378W        W31995  14.571   3.889  14.925  0.0119  0.1034  0.2349
16379W        W31996   9.537  11.230   3.086 -0.0462  0.2055 -0.0068
16380W        W31997   0.231   6.254   0.075 -0.4210  0.3408 -0.1223
16381W        W31998  16.361   6.556  12.519 -0.0935  0.2579 -0.2638
16382W        W31999  17.352  14.468   0.645  0.1598 -0.1262 -0.0811
16383W        W32000   0.853   9.879  15.577  0.0136  0.0964 -0.1401
16384W        W32001  15.048  10.089  16.645 -0.0665 -0.0668  0.0832
16385W        W32002  13.606   2.294  17.243  0.0686  0.2957  0.3140
16386W        W32003   8.076  16.554  10.172  0.0344 -0.4149 -0.1586
16387W        W32004   5.907   2.927  16.877 -0.0333 -0.1516 -0.1111
16388W        W32005  15.359  16.368   4.788 -0.1442 -0.1733 -0.0826
16389W        W32006   9.684   9.144  17.049  0.0479  0.0491 -0.0268
16390W        W32007  11.093   6.735  16.738 -0.0642 -0.3147  0.1385
16391W        W32008   6.900   2.871   1.021 -0.0026 -0.2457  0.0963
16392W        W32009   5.629  17.301   5.293  0.1940  0.0082  0.1219
16393W        W32010   3.464   9.347  14.417 -0.0881  0.1911  0.3420
16394W        W32011  17.598  16.117  17.130 -0.2190  0.1968  0.0358
16395W        W32012   1.811  10.326   1.791  0.1160 -0.0075 -0.0920
16396W        W32013   9.555   0.377   1.917 -0.0105  0.2425 -0.1335
16397W        W32014  17.274   5.920   5.346  0.0749 -0.1792  0.0142
16398W        W32015  11.652   3.873  12.637 -0.0457  0.0184  0.0259
16399W        W32016   8.448  12.867  14.978 -0.2083  0.0492  0.1530
16400W        W32017   9.280   2.105  15.004  0.2837 -0.0129  0.1530
16401W        W32018   5.085  17.044   4.578  0.1863 -0.3064  0.2625
16402W        W32019  11.907  17.161   4.106 -0.0109  0.0996 -0.0650
16403W        W32020   2.583   2.229  13.377 -0.0656  0.1015  0.3092
16404W        W32021  10.721   9.368   3.058 -0.0455 -0.0316 -0.1881
16405W        W32022  10.633   9.293   4.480  0.0688  0.1331  0.3383
16406W        W32023   5.169   7.876  17.175  0.1107  0.0676  0.1795
16407W        W32024  15.329   2.431   2.432 -0.3330  0.0381  0.0588
16408W        W32025   5.481  11.333   3.662  0.2369  0.0845  0.2935
16409W        W32026   0.266  17.042   1.635  0.1894  0.0012 -0.3872
16410W        W32027  11.007   0.422  11.702 -0.0258  0.0137  0.1064
16411W        W32028   9.777  17.464  16.809  0.4043 -0.1775 -0.0033
16412W        W32029  14.224   9.092   0.586  0.2089 -0.2375 -0.0707
16413W        W32030  13.821   6.146  16.375 -0.0649  0.1881 -0.1158
16414W        W32031   6.529   8.295   0.456  0.2890  0.1674 -0.1466
16415W        W32032  12.348  11.662  13.241  0.2526 -0.3826  0.0224
16416W        W32033   6.538   1.123  15.655  0.1050 -0.1043 -0.1434
16417W        W32034   8.035   2.654   1.234  0.0602  0.0461  0.2824
16418W        W32035   7.252   4.634   3.371  0.0827  0.3286  0.2958
16419W        W32036   6.714  13.883  13.798 -0.0371 -0.2528  0.1303
16420W        W32037  16.097  16.257   2.292  0.0798  0.0897 -0.2239
16421W        W32038   1.865  16.169  10.647 -0.1570 -0.0324 -0.0741
16422W        W32039   8.639  13.033  12.002  0.2802  0.2149  0.0861
16423W        W32040   4.871  11.395   5.084 -0.2434 -0.3189  0.2447
16424W        W32041  14.960   1.429   5.275  0.1868  0.1769  0.0832
16425W        W32042   7.268   2.115  11.911 -0.0899  0.1712  0.2153
16426W        W32043  12.118   2.026   1.062 -0.5088  0.0255  0.1935
16427W        W32044  11.564  10.208   0.692  0.1222  0.6173 -0.1837
16428W        W32045   7.192   6.269   4.481 -0.1697 -0.0767  0.2418
16429W        W32046  13.727   7.106  15.226 -0.0480 -0.0790  0.0639
16430W        W32047   1.578  10.972   4.690  0.0741  0.1914  0.0308
16431W        W32048   5.666  17.325   0.774  0.0422 -0.1925  0.1276
16432W        W32049   9.132   4.881  16.900  0.0377  0.0374  0.1338
16433W        W32050  12.301   3.669   5.715  0.2606 -0.0868 -0.0147
16434W        W32051   7.480   7.388  11.918  0.1270  0.0802  0.1149
16435W        W32052  11.725  10.987   5.211  0.0067  0.1989 -0.3355
16436W        W32053   4.095  11.090  14.945  0.0305  0.1579  0.1933
16437W        W32054   9.454   4.581  12.227  0.1896  0.2433 -0.3197
16438W        W32055  16.913   4.316  16.197  0.1486  0.2519 -0.1826
16439W        W32056  12.371   3.376   0.356 -0.3438  0.1131  0.2091
16440W        W32057   0.117   7.701   1.265 -0.1106  0.1651  0.2198
16441W        W32058   8.048   1.317   0.735  0.1465  0.0074 -0.0506
16442W        W32059  10.135   7.123  14.101  0.1391  0.1758  0.0822
16443W        W32060   6.174  14.842  13.965  0.2626  0.1782  0.0876
16444W        W32061  13.912  13.046  11.918 -0.0782 -0.0703 -0.2872
16445W        W32062   4.870   8.891   4.226  0.0084  0.1356  0.0128
16446W        W32063   8.135   7.422  11.841 -0.0679 -0.4723 -0.1227
16447W        W32064   7.528   7.752   5.403 -0.2970  0.0600  0.0866
16448W        W32065   6.757   2.874   2.647  0.2184  0.1877 -0.0871
16449W        W32066  16.928   2.194   4.078  0.0786 -0.0309 -0.0778
16450W        W32067   6.283  15.913  14.914 -0.2025  0.0713  0.0833
16451W        W32068  15.394   3.855   4.149 -0.1220 -0.1859 -0.1047
16452W        W32069  17.340   0.842  14.241 -0.2027 -0.3315  0.1042
16453W        W32070  14.382   4.448  12.386 -0.1747  0.0226  0.0799
16454W        W32071   9.447  14.068   1.045 -0.1184  0.3180  0.1263
16455W        W32072  15.880  12.106  16.515 -0.2636 -0.3397 -0.3464
16456W        W32073   4.763  16.505  12.763  0.0539  0.0068  0.3131
16457W        W32074  12.981  10.855  13.148  0.1439  0.2195 -0.0510
16458W        W32075   3.071   3.085   0.585 -0.2201  0.0904  0.2804
16459W        W32076   8.871  10.837  13.367 -0.2539 -0.0609 -0.0723
16460W        W32077   7.032  11.138  14.648  0.3955  0.0751 -0.2978
16461W        W32078   0.646  12.674   3.141 -0.1219 -0.1091 -0.3779
16462W        W32079   9.360   3.715  16.585 -0.0251 -0.0253 -0.2137
16463W        W32080  15.260  15.990  12.505 -0.0063 -0.1384  0.2343
16464W        W32081   2.290  12.124  14.571 -0.3849  0.0330  0.2206
16465W        W32082  13.477   9.085  16.770 -0.0249 -0.1810 -0.1769
16466W        W32083   6.995  14.047   3.051 -0.2388  0.1692  0.3429
16467W        W32084  11.427   5.547   2.695 -0.0582  0.1709 -0.1690
16468W        W32085   7.962   5.959  16.436 -0.2496  0.1260  0.0860
16469W        W32086   8.865  17.476   1.971 -0.4127 -0.1187  0.1004
16470W        W32087   5.636   7.814   0.698 -0.1223  0.3189 -0.0962
16471W        W32088   2.611  16.548   5.832 -0.2593 -0.1902 -0.0623
16472W        W32089   7.759   8.254  12.298  0.2232  0.3033  0.1617
16473W        W32090  16.806   8.877  12.269 -0.2553 -0.1607 -0.0001
16474W        W32091   0.757  17.289  17.203 -0.0482  0.0583  0.1300
16475W        W32092   2.087   0.138   2.465  0.2042  0.0196 -0.1169
16476W        W32093   4.204   8.623   3.051 -0.2206 -0.0034 -0.0613
16477W        W32094   3.713  12.197  15.751  0.3358  0.1679  0.1367
16478W        W32095   6.462  10.910   5.023  0.3839  0.1181 -0.0140
16479W        W32096  11.419   3.572   1.759  0.2004 -0.1411 -0.2444
16480W        W32097  14.647   0.279   4.174  0.2116 -0.0854 -0.1344
16481W        W32098  17.285  16.122  11.377  0.0445  0.0537 -0.0431
16482W        W32099   4.400   8.048  16.551  0.0655  0.3226 -0.0910
16483W        W32100   7.946   5.465   0.419  0.0610 -0.1249  0.0915
16484W        W32101   9.455   2.065  11.654 -0.1102 -0.3319 -0.0763
16485W        W32102  17.287   2.806   5.083 -0.0676 -0.1144 -0.0857
16486W        W32103   5.952   4.510  15.025 -0.0631 -0.1489  0.0891
16487W        W32104   6.669   8.825  14.943  0.1147  0.2041 -0.0828
16488W        W32105   7.565   4.926   3.594  0.0416 -0.1564 -0.1734
16489W        W32106   0.629   2.287  14.457 -0.2213  0.1420 -0.0010
16490W        W32107   1.038   5.841   2.671 -0.0001 -0.0012 -0.1747
16491W        W32108  16.059  15.221   2.040  0.0884  0.0973 -0.0221
16492W        W32109   0.889  10.961  14.508  0.2052 -0.1308  0.2726
16493W        W32110   9.171  11.166   2.639 -0.0599 -0.0405  0.0189
16494W        W32111  10.442  12.653  15.946  0.0600  0.1428  0.3299
16495W        W32112   9.594  15.042   0.006  0.1823 -0.2504 -0.3120
16496W        W32113  17.229  12.871  15.506 -0.3595  0.0670  0.0121
16497W        W32114   6.827   2.154  15.147 -0.2542 -0.1549 -0.1671
16498W        W32115   3.073   0.690   1.041 -0.0588  0.0761 -0.0782
16499W        W32116  12.386   2.531  12.241  0.0314  0.3207  0.0261
16500W        W32117  10.648  16.058   5.030 -0.2452  0.0430  0.1427
16501W        W32118   1.992   1.143  16.984 -0.1149 -0.4428  0.1980
16502W        W32119  15.990  15.436  11.935 -0.1849  0.0793 -0.0318
16503W        W32120  12.378   9.996  15.613  0.0224  0.0755  0.2344
16504W        W32121  11.648   9.637  16.190  0.2448  0.2654 -0.1232
16505W        W32122   4.036  11.873   0.478 -0.1315  0.0893 -0.1954
16506W        W32123   5.465  13.739   5.506 -0.1720 -0.0240 -0.1786
16507W        W32124  11.895  16.396  11.299  0.0315  0.0896  0.2775
16508W        W32125  11.500   4.857  16.746 -0.0565  0.0733  0.2075
16509W        W32126  17.357   4.285  16.392 -0.3292  0.0887 -0.2486
16510W        W32127   4.594   0.135  14.783  0.2688  0.0041  0.0435
16511W        W32128   1.751   6.505   1.756 -0.2403 -0.1935  0.3700
16512W        W32129  10.765   2.028  17.053  0.2280  0.1435  0.1666
16513W        W32130   9.043  11.930   5.153 -0.0415 -0.2533  0.2693
16514W        W32131  15.125   3.654   1.964  0.3775 -0.1192  0.0012
16515W        W32132   6.466   3.595   6.295 -0.1849  0.2348 -0.1018
16516W        W32133   0.007   0.402   3.048  0.2809  0.0285 -0.0434
16517W        W32134  10.274   1.905  11.719 -0.2082 -0.2086  0.0139
16518W        W32135   6.979   0.866   0.100 -0.1135  0.0349 -0.1627
16519W        W32136  13.423  10.990   5.020 -0.1128 -0.3104 -0.2265
16520W        W32137   6.475  12.249  14.915 -0.3537 -0.2327  0.1897
16521W        W32138   2.453   5.924   0.651 -0.0790  0.1436  0.0465
16522W        W32139  11.726   3.963   1.924 -0.0619 -0.0033 -0.2783
16523W        W32140  13.964   4.606  14.884 -0.1370  0.0460  0.0934
16524W        W32141  10.902   6.587  13.224  0.2348 -0.0585  0.0681
16525W        W32142   9.922  10.003   0.415 -0.0419  0.2783  0.0460
16526W        W32143   3.168   7.808  15.088  0.0902  0.0160  0.1374
16527W        W32144  15.678  16.693   4.200 -0.0479  0.1709  0.2316
16528W        W32145  16.637   2.442  16.584  0.0272 -0.2718 -0.3419
16529W        W32146   1.596  13.183   0.027  0.0159  0.0284 -0.1549
16530W        W32147   2.081   0.931  15.666  0.1601 -0.0467 -0.0767
16531W        W32148   0.766  16.596   4.991  0.0220  0.1793 -0.0898
16532W        W32149  10.734   6.080  13.279 -0.3261 -0.1591  0.3328
16533W        W32150  14.079  12.795  13.441 -0.0163 -0.4174  0.0490
16534W        W32151  15.744   7.941  14.848  0.2142  0.1852  0.2117
16535W        W32152  13.815  16.864   3.579  0.0006  0.0328  0.3043
16536W        W32153  14.286   6.972  15.108 -0.0707 -0.2405  0.0382
16537W        W32154  12.150  11.583  12.125 -0.3129  0.1775 -0.2221
16538W        W32155   2.222  14.371  15.908  0.1462  0.0919 -0.1222
16539W        W32156   7.121   2.152  14.090 -0.1319 -0.0222 -0.3854
16540W        W32157  14.506   5.559  15.699  0.2372 -0.0568 -0.0742
16541W        W32158  16.622   4.815   3.124  0.1688  0.1130  0.0174
16542W        W32159   0.167  15.335   4.304 -0.0419 -0.1541  0.0402
16543W        W32160   5.245   2.064   1.231 -0.1368 -0.2959 -0.2167
16544W        W32161  15.692   6.180   5.962 -0.0921 -0.1485  0.2768
16545W        W32162   7.643  13.584   1.748  0.2514  0.1481  0.1800
16546W        W32163   7.054  16.066  10.754 -0.1761  0.4396  0.0120
16547W        W32164   9.909   0.070  14.315  0.0177  0.0632  0.2797
16548W        W32165  15.033  12.649   4.953 -0.1639  0.0259  0.1630
16549W        W32166   2.271  11.651   2.879 -0.0699 -0.0820 -0.0128
16550W        W32167   3.641   4.492  14.985 -0.2199 -0.3033 -0.1618
16551W        W32168  12.230   4.956  13.142 -0.2629  0.3457  0.4676
16552W        W32169  15.797   7.097   1.625  0.0554 -0.0966  0.1300
16553W        W32170   2.399   2.429   3.636 -0.1107  0.0024  0.3007
16554W        W32171   8.550   7.242   2.734  0.0036  0.1203  0.0545
16555W        W32172  10.007  11.048   4.073  0.0134 -0.0299  0.2388
16556W        W32173   1.488  17.372   4.991 -0.0236 -0.2469 -0.2356
16557W        W32174  13.112  16.220   1.377 -0.0237 -0.1713  0.1508
16558W        W32175   9.444   2.817  14.782 -0.3109  0.0528  0.0178
16559W        W32176   9.772   6.154   5.574 -0.2815 -0.2938 -0.2657
16560W        W32177  16.738  16.328  13.831  0.1393  0.0742  0.1221
16561W        W32178  12.505  15.709  12.170  0.1571  0.0765 -0.3161
16562W        W32179   1.569  16.038  15.965 -0.0010 -0.3265 -0.0032
16563W        W32180   4.736   8.712  12.915 -0.0188 -0.2322  0.1452
16564W        W32181   6.120  13.920  16.854 -0.0427  0.0596  0.0111
16565W        W32182   4.627   6.417   2.804  0.1972 -0.0032  0.1259
16566W        W32183  10.357   2.536  14.117 -0.0757 -0.2199 -0.0411
16567W        W32184   0.402  13.155  13.240  0.1513  0.0776 -0.4479
16568W        W32185   5.511  12.460  16.240  0.1251 -0.0941  0.1778
16569W        W32186  17.430  14.218  14.502  0.2890 -0.2440 -0.1221
16570W        W32187   7.637   4.303  13.586 -0.1335  0.2785 -0.0779
16571W        W32188   9.771   6.233   3.443 -0.1745 -0.1668 -0.0661
16572W        W32189   7.300  12.818   5.642  0.0366 -0.1044 -0.3700
16573W        W32190   6.934   4.787   2.224  0.0406  0.0516  0.2052
16574W        W32191  15.951   3.066  13.643  0.0023 -0.2302 -0.0683
16575W        W32192  15.663   4.102   2.779  0.0400  0.1924 -0.0754
16576W        W32193   9.660  17.150   5.470 -0.1749 -0.1662 -0.0563
16577W        W32194  14.732   4.555   4.276 -0.2052  0.3854 -0.3654
16578W        W32195  14.039   2.553   0.718 -0.1576  0.0879  0.1069
16579W        W32196  13.021  15.277   1.160  0.1560  0.0052 -0.0694
16580W        W32197   9.238  13.993   0.584 -0.1519  0.0111  0.0121
16581W        W32198   0.257   8.758   2.900  0.0759 -0.1974 -0.1542
16582W        W32199  17.379   5.313   3.040  0.1965 -0.1423  0.0104
16583W        W32200   6.774  17.449   3.747 -0.0743  0.2328  0.4172
16584W        W32201   8.013  12.702   3.863  0.3170  0.1906 -0.1411
16585W        W32202   4.253  10.091  17.268  0.4311  0.1585 -0.1819
16586W        W32203  17.550   4.129   5.109 -0.1978  0.3477 -0.5111
16587W        W32204   7.011   0.104   4.765  0.4972 -0.0580 -0.0033
16588W        W32205  10.727   0.997   2.095 -0.0048 -0.1672  0.0684
16589W        W32206   2.743  16.877   2.036 -0.0993  0.0683 -0.1365
16590W        W32207   8.588   3.903   4.805 -0.2117 -0.1490  0.1833
16591W        W32208  12.066  13.717   3.320  0.2922  0.3140 -0.0980
16592W        W32209  13.488  15.701  16.727  0.4742 -0.1024  0.0810
16593W        W32210   0.648   1.114   0.118  0.0536  0.4768 -0.1398
16594W        W32211   7.091  12.138   1.372  0.1560  0.0376  0.1834
16595W        W32212   6.253   1.842  11.816 -0.1435  0.1048 -0.3283
16596W        W32213   9.121   4.093  13.298  0.0074 -0.0845  0.0460
16597W        W32214   4.760  15.854  14.058  0.0744 -0.1155  0.3359
16598W        W32215  15.374   3.113  15.412 -0.0244  0.0147 -0.3147
16599W        W32216   1.161  16.701   3.461 -0.0887 -0.2328  0.0460
16600W        W32217   8.897   0.435  12.814 -0.2210  0.2367  0.1077
16601W        W32218  17.552   5.198   1.967 -0.0218 -0.1041 -0.2170
16602W        W32219   6.088   3.898  14.094 -0.0382 -0.0853 -0.0317
16603W        W32220  14.557  16.710   2.344  0.1545 -0.2097  0.1311
16604W        W32221  10.352   5.468   6.688  0.0890  0.1826  0.3518
16605W        W32222  11.021   9.943   3.081  0.1729 -0.2584 -0.0044
16606W        W32223  10.757  10.610   3.734 -0.1185  0.0285 -0.2602
16607W        W32224  10.267  15.265  15.975  0.1249 -0.2060 -0.2897
16608W        W32225  12.954   9.253   6.923 -0.4010  0.3050 -0.1798
16609W        W32226   3.670  11.775   5.771  0.0819 -0.0215  0.0311
16610W        W32227  14.937  16.242   3.934  0.2687  0.1019 -0.1237
16611W        W32228   6.846   9.381  16.518  0.3650 -0.0946  0.0532
16612W        W32229  10.207  14.322  15.995  0.2092 -0.1969 -0.2262
16613W        W32230   4.587   6.488   4.755 -0.0008  0.0127 -0.2716
16614W        W32231   3.798   5.533  11.925  0.0166  0.2335 -0.1511
16615W        W32232   4.296   0.668  15.696  0.0500  0.3905 -0.0866
16616W        W32233   5.199   0.833  16.257  0.0742  0.2654  0.0773
16617W        W32234  13.756   0.049   3.605  0.2376  0.1067  0.0641
16618W        W32235   5.795   9.436   3.431  0.1440 -0.0726  0.0031
16619W        W32236   3.744   7.265  12.479 -0.0386  0.1459  0.2702
16620W        W32237  16.745  15.675  14.648 -0.4397 -0.0020 -0.1088
16621W        W32238   6.169   4.632   3.541 -0.0296 -0.0704  0.0151
16622W        W32239   3.389   4.759  13.829 -0.2579  0.2902  0.0715
16623W        W32240   9.199   1.286  13.971 -0.2160 -0.1098 -0.0504
16624W        W32241   5.489  10.435  12.251 -0.1492 -0.2261 -0.1418
16625W        W32242  16.694   8.848  15.756 -0.2692 -0.0025 -0.2442
16626W        W32243   9.410   8.522   2.740  0.1073 -0.1430  0.3971
16627W        W32244  15.936   1.181   5.781 -0.0760 -0.1942  0.2236
16628W        W32245  16.316  16.401  16.482 -0.2811 -0.2711  0.0069
16629W        W32246   1.893   6.353  15.550  0.0469  0.1834 -0.3108
16630W        W32247   8.576   4.722   5.538 -0.3168 -0.0896  0.1146
16631W        W32248   7.130   5.785   0.344 -0.1145  0.4747 -0.1892
16632W        W32249   5.924   4.780   2.635  0.1135  0.2195  0.2728
16633W        W32250  14.923   8.169  13.813 -0.2063 -0.0214  0.0991
16634W        W32251  13.685  13.209  16.094  0.2627 -0.1085 -0.0637
16635W        W32252   9.762   6.711   4.542 -0.2443 -0.0168  0.2781
16636W        W32253  16.681   8.341  12.363  0.0251 -0.1951  0.1945
16637W        W32254  10.755   9.354   2.474  0.1435  0.2881  0.0052
16638W        W32255   2.171  16.625   1.129 -0.0721 -0.2802 -0.0568
16639W        W32256   5.762  14.246   2.191  0.1145  0.0668  0.1528
16640W        W32257   8.462  14.444   5.172 -0.0456  0.2768 -0.1073
16641W        W32258   7.810   9.683   4.129  0.2359  0.2512 -0.0933
16642W        W32259  15.223   8.603   1.234 -0.0493 -0.1127 -0.2160
16643W        W32260   2.782  11.827   6.054 -0.2541  0.4356 -0.2879
16644W        W32261  15.066   1.003   0.893 -0.1412 -0.0623 -0.2995
16645W        W32262   3.472   9.001  12.862  0.0483 -0.0868 -0.2620
16646W        W32263  16.252  17.544   2.654 -0.1649 -0.0379  0.1473
16647W        W32264   9.896  16.690   0.898  0.1776  0.0559  0.2534
16648W        W32265   1.087   0.154   4.946 -0.0904 -0.1701  0.0599
16649W        W32266   8.156  11.782  15.377  0.2379 -0.1746  0.2020
16650W        W32267   3.479  12.507   5.809 -0.2369 -0.1018  0.4214
16651W        W32268   0.890  11.550  12.698 -0.1924 -0.2807  0.0157
16652W        W32269   3.984  13.359  16.128  0.1593  0.1234  0.0387
16653W        W32270   2.678   1.263  12.417  0.0015  0.3764  0.3207
16654W        W32271  14.720   8.738  17.153  0.1130 -0.1652  0.1958
16655W        W32272   1.395   2.115  16.052 -0.2971  0.0615 -0.0552
16656W        W32273   1.143   3.457  14.679  0.2871  0.4795 -0.0955
16657W        W32274  16.269  12.492   0.521 -0.0661  0.3272  0.0191
16658W        W32275   2.693   7.724  15.159  0.3199 -0.1177 -0.2094
16659W        W32276  17.102   1.643   2.382  0.1168 -0.3588 -0.0558
16660W        W32277  15.038  10.446   5.356  0.1526  0.0118  0.1677
16661W        W32278  10.833   7.055   0.361  0.3806  0.1981 -0.0085
16662W        W32279   1.599  10.439  16.976 -0.1855 -0.0555  0.0108
16663W        W32280  10.253   0.929   1.835 -0.2502 -0.0811 -0.2970
16664W        W32281   7.300   3.347   2.112  0.0510  0.1600 -0.4217
16665W        W32282   5.670  10.157   4.397 -0.3156  0.0506  0.0137
16666W        W32283  17.183  16.271   0.181  0.0878 -0.1212 -0.1080
16667W        W32284   2.457   5.989  16.629 -0.1128 -0.2702 -0.0872
16668W        W32285   9.897  12.798   4.299 -0.1530 -0.1262 -0.1718
16669W        W32286   7.237   0.716   0.762 -0.0757 -0.3683  0.0931
16670W        W32287   8.466  13.861  14.047 -0.0205 -0.2060 -0.0773
16671W        W32288   9.164   0.304   4.927  0.0548 -0.0560 -0.1309
16672W        W32289   2.996   3.509  12.622 -0.1515 -0.2254  0.0636
16673W        W32290  11.833  13.845   1.930 -0.1889 -0.1376 -0.3890
16674W        W32291   8.802   1.103   5.072 -0.0847 -0.0480 -0.0598
16675W        W32292   4.322   0.748  12.938 -0.2057  0.0869  0.3039
16676W        W32293  16.038  12.302  16.934  0.2520  0.2331 -0.4538
16677W        W32294   8.493  13.052  12.754  0.0531 -0.3199 -0.3019
16678W        W32295   0.890  10.858  15.624  0.2405  0.2285  0.0082
16679W        W32296   1.825   5.240  16.453 -0.1704  0.1463 -0.1440
16680W        W32297  16.746  13.090   1.683  0.0352 -0.3376 -0.0863
16681W        W32298  16.980   7.774   1.594  0.1886 -0.2465 -0.1020
16682W        W32299  13.038   3.421  16.493 -0.0355 -0.3253  0.3635
16683W        W32300  16.150  12.519  15.779 -0.1527  0.2399 -0.0683
16684W        W32301  13.595   2.245   4.943 -0.1215 -0.1067 -0.0845
16685W        W32302   1.025  16.487   1.551  0.0664  0.0922  0.2269
16686W        W32303   3.983   8.309  13.902 -0.0716 -0.0031 -0.2977
16687W        W32304   0.553  12.982  16.483  0.4024  0.1803 -0.2047
16688W        W32305   5.667   2.235  12.915 -0.0178 -0.2864 -0.1830
16689W        W32306  10.549   5.101   3.429 -0.3324 -0.1598 -0.0173
16690W        W32307   6.978   0.480  17.064 -0.4496  0.1046  0.0841
16691W        W32308   9.980  12.605  15.685 -0.1295 -0.0689 -0.2347
16692W        W32309   8.319   8.536  16.759 -0.3547 -0.1129 -0.0235
16693W        W32310   8.684  17.348  12.201  0.2573  0.1971 -0.2530
16694W        W32311  17.222  17.323  12.545 -0.1042  0.1355 -0.4370
16695W        W32312   4.257   6.304   0.631  0.1388 -0.0569 -0.0681
16696W        W32313   7.750  16.249   6.053  0.2895 -0.1045  0.0249
16697W        W32314  10.852   4.483   4.143 -0.1894  0.2016  0.2181
16698W        W32315  13.252  16.007  14.877  0.0281 -0.1954 -0.1973
16699W        W32316  15.044   5.101  11.350 -0.0010  0.2009  0.3416
16700W        W32317  10.959   0.164   1.624 -0.0988 -0.1682 -0.1100
16701W        W32318   4.978  10.723   1.695  0.2628 -0.0403  0.1808
16702W        W32319  13.909  16.152  12.470  0.2757  0.0298  0.2090
16703W        W32320   1.828  13.024  12.242  0.0738 -0.1834  0.2596
16704W        W32321   8.497   9.512  13.168 -0.0098 -0.0959  0.1888
16705W        W32322   2.271   3.403  13.969 -0.1516 -0.0627  0.1238
16706W        W32323   3.928  15.560  13.433  0.3710  0.0622 -0.0102
16707W        W32324   4.136  10.724   7.093 -0.0631 -0.0247  0.0970
16708W        W32325  11.504   3.385  16.260 -0.1944 -0.1306 -0.3274
16709W        W32326   8.765  12.909   2.348 -0.3706  0.0106  0.3534
16710W        W32327   3.584   7.551   5.883 -0.1706 -0.2385  0.1410
16711W        W32328  10.892   8.607  15.235 -0.2731  0.3760 -0.1766
16712W        W32329   1.774  17.075   1.821 -0.0548  0.2190 -0.2462
16713W        W32330   8.645  16.339  11.218 -0.1854  0.1336 -0.3987
16714W        W32331   7.308  13.169  16.269  0.2062 -0.0299  0.1428
16715W        W32332  10.162  15.035  15.396  0.1693  0.0188  0.0150
16716W        W32333  13.591   4.993  13.337  0.2832 -0.0160  0.2310
16717W        W32334  15.658  12.466   3.276  0.2719  0.0490  0.0536
16718W        W32335   6.937   7.409  13.834  0.1225  0.0118 -0.2890
16719W        W32336   7.050   1.414  14.887  0.3894  0.1221 -0.0458
16720W        W32337  14.745   9.697  15.933  0.3126  0.0430 -0.2227
16721W        W32338  12.310  11.453  14.154 -0.2561  0.3490  0.2022
16722W        W32339  17.250  16.588   1.591 -0.0850  0.1225 -0.0646
16723W        W32340   1.604   2.640  15.773 -0.0186 -0.0886 -0.0551
16724W        W32341  10.107  15.570   5.986  0.0663 -0.0189  0.3632
16725W        W32342   5.276  13.578  12.795 -0.1347 -0.1912  0.1105
16726W        W32343   3.736   2.792   4.792  0.0252  0.1215 -0.4102
16727W        W32344   5.381  10.370   4.780  0.2459  0.2088 -0.0124
16728W        W32345  10.502  15.347  13.415 -0.1991 -0.1360  0.2627
16729W        W32346   7.355   2.369  13.676  0.0098 -0.1220 -0.0852
16730W        W32347   0.553   6.255  15.541  0.2739  0.0689 -0.1359
16731W        W32348  10.565   1.480  14.885  0.2383  0.0182 -0.0561
16732W        W32349  12.348   2.455  13.673  0.0408  0.1046 -0.1245
16733W        W32350  11.528  16.050  12.059 -0.0821 -0.0084 -0.0399
16734W        W32351   4.012   9.617   1.742  0.1544 -0.2656 -0.2696
16735W        W32352  15.497   4.380  12.879  0.0158 -0.4353  0.2301
16736W        W32353  17.314  11.884  17.045  0.0530  0.3643  0.0044
16737W        W32354   4.566  15.378  14.012 -0.1365 -0.1074  0.0628
16738W        W32355   2.712   6.292   3.841 -0.1203  0.0934  0.3152
16739W        W32356   9.949  14.672   1.834 -0.0721  0.4080  0.0357
16740W        W32357  11.640   7.015   2.377  0.1327  0.0312  0.0762
16741W        W32358   8.209   2.442  14.888  0.1837  0.0415 -0.0865
16742W        W32359   1.344   4.195   0.254 -0.2502  0.0262  0.0605
16743W        W32360  15.922  12.062   3.177 -0.0743  0.1424  0.0992
16744W        W32361  16.558  17.293  13.287 -0.2717  0.2868  0.0897
16745W        W32362   9.334  10.074  16.988  0.1759 -0.0740 -0.0483
16746W        W32363   1.986   3.924  14.579  0.1070 -0.1015  0.2409
16747W        W32364  12.227   7.614  12.404 -0.0100  0.1351 -0.1031
16748W        W32365   9.094   0.271   2.089 -0.1195  0.1485 -0.1986
16749W        W32366  12.743  10.964   4.357 -0.1543 -0.0377  0.1168
16750W        W32367   9.471   1.814  12.594 -0.1507  0.0074 -0.0397
16751W        W32368  13.878   0.715  16.002  0.2236 -0.2404  0.1660
16752W        W32369  12.452   7.979  11.218  0.3111 -0.3355 -0.0137
16753W        W32370   8.625  11.191  14.996  0.3575 -0.1226 -0.0284
16754W        W32371   5.621  12.781  15.782 -0.1508 -0.0043 -0.1063
16755W        W32372   5.815   8.548  16.390  0.3454  0.0930  0.0300
16756W        W32373   2.747   8.306   5.629 -0.0847  0.3843  0.2632
16757W        W32374  11.182  16.212  15.232 -0.0903 -0.0299  0.0340
16758W        W32375   5.916   7.687  12.411 -0.0255  0.2103 -0.1468
16759W        W32376   5.892   8.219   0.930  0.0831 -0.0908 -0.1313
16760W        W32377  10.197   9.967  11.833 -0.3789 -0.2288  0.2803
16761W        W32378   4.007  17.155  14.661  0.0581  0.3526 -0.1281
16762W        W32379  10.065  16.552   2.358  0.1466  0.2294 -0.1073
16763W        W32380   5.088   5.279   5.635  0.1232 -0.1228 -0.1439
16764W        W32381   8.656   1.956  16.661  0.0810  0.1036 -0.2347
16765W        W32382   0.711   7.093   0.521  0.1314 -0.0931  0.3179
16766W        W32383   4.823   2.035   0.869 -0.1996 -0.0799  0.2937
16767W        W32384   3.772  11.872  16.095  0.1778  0.2744 -0.2017
16768W        W32385  14.066  13.507   2.671  0.2033  0.2559  0.1566
16769W        W32386  11.324   1.859  11.903  0.2380  0.3386  0.1341
16770W        W32387  10.476  16.263  16.456 -0.1433 -0.1866  0.0258
16771W        W32388  13.587   5.761  16.017 -0.0019 -0.0159 -0.0210
16772W        W32389   9.830   5.479  12.488  0.0827  0.2638  0.1525
16773W        W32390   0.501   7.689  14.294 -0.0748  0.0357 -0.1120
16774W        W32391   0.548   3.085   5.109 -0.2156  0.0546  0.2611
16775W        W32392  15.195  12.735  14.835  0.1984 -0.3424  0.1316
16776W        W32393   7.413   6.612  17.186  0.2387  0.1129  0.1175
16777W        W32394   2.581  12.856   4.363 -0.2979 -0.0016  0.0181
16778W        W32395   3.899   7.998   1.572  0.3134 -0.0498 -0.2320
16779W        W32396  12.607   1.031   0.623  0.0472  0.1329  0.1997
16780W        W32397  10.439  15.142   1.307 -0.0589  0.0289  0.2183
16781W        W32398   4.585  17.225  13.484 -0.2754 -0.1627  0.2270
16782W        W32399  14.660   9.014   4.901 -0.0716  0.1739 -0.2482
16783W        W32400  15.648  16.887  14.182 -0.0671  0.7019 -0.0156
16784W        W32401  16.327   0.905  12.690  0.2789  0.2121  0.1044
16785W        W32402   6.624  12.735   1.611  0.0547  0.1385  0.0197
16786W        W32403   9.862   0.729   0.988 -0.0145 -0.0880  0.2553
16787W        W32404  16.525   5.510   0.855  0.0810 -0.1199 -0.2543
16788W        W32405   5.762   4.354   6.180  0.0532 -0.0225  0.0626
16789W        W32406   1.934   9.698  16.392  0.2921 -0.0331  0.0009
16790W        W32407  10.057  12.972  16.038  0.1476 -0.0867  0.3751
16791W        W32408   5.611  16.083   3.247  0.2914 -0.3251 -0.2854
16792W        W32409  15.294   8.641  13.671  0.2284  0.0539  0.0409
16793W        W32410  12.369  16.689  14.640  0.0659  0.0859 -0.2545
16794W        W32411   3.170   5.413   2.874 -0.2335 -0.2011  0.0080
16795W        W32412   6.916  16.231   3.789  0.0335 -0.0024  0.0106
16796W        W32413   9.030   0.371  13.612 -0.0440 -0.0511  0.0620
16797W        W32414   1.607  16.522   0.766  0.3473  0.1998 -0.0585
16798W        W32415  12.881  16.438   0.168 -0.2237 -0.2364  0.0308
16799W        W32416   0.502  15.125   0.325 -0.1715  0.1011 -0.0728
16800W        W32417   5.567  12.225  15.483  0.2157 -0.2358 -0.1453
16801W        W32418   7.636   2.848  12.501  0.2755 -0.1122 -0.0306
16802W        W32419   4.729  15.657   0.569  0.0674 -0.1204 -0.2125
16803W        W32420   3.877  12.846   5.391  0.2554  0.0295  0.3049
16804W        W32421   5.820  10.075   0.583  0.0811  0.1044 -0.0331
16805W        W32422  14.048   5.241  12.184  0.2612  0.0468 -0.0586
16806W        W32423   8.040  12.592   4.356 -0.3601 -0.1726  0.1746
16807W        W32424  16.074  13.920   2.299 -0.0331  0.0028 -0.0618
16808W        W32425  13.988   3.174   4.169  0.0136 -0.0518  0.0318
16809W        W32426  14.549  15.959   2.970 -0.1168  0.1452  0.0363
16810W        W32427  11.171   5.765  13.206  0.3174 -0.0091 -0.2114
16811W        W32428  11.822  12.058  11.955 -0.2233  0.1306 -0.0792
16812W        W32429  13.547   0.688   3.534 -0.0300  0.2238  0.2924
16813W        W32430   7.662  15.072   4.138 -0.1195  0.2188 -0.2440
16814W        W32431   8.131  13.350  12.895  0.1372  0.0207 -0.1396
16815W        W32432   8.739  15.570   3.604  0.0746 -0.2424 -0.4416
16816W        W32433  11.940   4.648   2.566  0.2363  0.1948  0.0338
16817W        W32434  12.449   9.946  13.012  0.0507 -0.0281 -0.1353
16818W        W32435  15.306  12.460  12.603 -0.0220 -0.1276 -0.0796
16819W        W32436  11.113  13.689  16.717 -0.2511 -0.4633  0.1225
16820W        W32437  13.671   1.996  14.173  0.0223  0.2338 -0.1297
16821W        W32438   8.075  10.121   3.478 -0.2867 -0.0227 -0.0687
16822W        W32439   7.768   3.052   4.394 -0.1453  0.0337  0.0198
16823W        W32440  13.937  12.951  15.179  0.0646 -0.0958  0.0193
16824W        W32441  11.533   2.851   1.267 -0.1228 -0.0364 -0.3209
16825W        W32442   0.660  13.308  15.865  0.1645 -0.0010 -0.0672
16826W        W32443   2.123  12.950  11.136 -0.1436  0.0671  0.0923
16827W        W32444   5.073  16.921  15.809  0.2338 -0.0764 -0.1857
16828W        W32445  15.582   0.948  13.660  0.0459 -0.0147  0.2786
16829W        W32446  12.718   1.390   2.928  0.1238 -0.0870  0.1534
16830W        W32447   8.837  14.015   0.249 -0.1353  0.1501  0.0437
16831W        W32448  16.120   9.973  16.303 -0.2123 -0.0964  0.0066
16832W        W32449  16.707  16.563   1.593  0.3162  0.1128 -0.0564
16833W        W32450   2.637   9.546   5.123  0.2040  0.0403 -0.2146
16834W        W32451  14.271  14.084  15.065  0.0254 -0.0177 -0.1623
16835W        W32452   0.099   9.851  14.600 -0.2173 -0.1285 -0.1333
16836W        W32453   3.751   3.720   0.799  0.1005 -0.1486 -0.0024
16837W        W32454  14.543  12.001  16.546 -0.0586  0.0551 -0.1989
16838W        W32455   2.978  11.532   3.912  0.0477  0.1457 -0.1940
16839W        W32456   5.413   2.348  12.435  0.0753  0.2031 -0.0515
16840W        W32457   4.697   3.710   0.257 -0.1751 -0.2043  0.0454
16841W        W32458   5.323  11.587   5.205 -0.2181 -0.0853 -0.3926
16842W        W32459  13.944  16.000  16.771  0.0789 -0.0009  0.0320
16843W        W32460  11.196  14.245   6.350 -0.0527 -0.0435  0.0193
16844W        W32461  15.771   0.673   1.546  0.1889  0.1057  0.3592
16845W        W32462  14.792  15.362   5.622  0.3718  0.1682 -0.0477
16846W        W32463  10.592  17.485  16.323  0.2756  0.1171 -0.0462
16847W        W32464   6.673  13.780   2.741  0.3942 -0.0767  0.1360
16848W        W32465  11.413   0.832   4.327 -0.0450 -0.1030 -0.1195
16849W        W32466  13.456   0.966   0.133  0.0304  0.4513 -0.1159
16850W        W32467   2.466   4.598   5.390  0.3380 -0.0896  0.3184
16851W        W32468   2.380  11.188  13.618  0.1677  0.1393  0.0394
16852W        W32469   4.430   3.420   1.623 -0.0602  0.1455  0.0113
16853W        W32470  16.592   1.744  12.274 -0.0505 -0.0693  0.1351
16854W        W32471   8.573   8.915   3.227 -0.2911 -0.1919  0.1158
16855W        W32472   8.498  14.654  14.795  0.0371  0.0300  0.1305
16856W        W32473   9.017   8.111   4.684  0.0803  0.0931 -0.0320
16857W        W32474  14.199  15.142   1.586 -0.0951 -0.1477  0.2302
16858W        W32475  15.004  14.977   3.975  0.1814 -0.2298  0.0103
16859W        W32476   4.060   8.560   4.364  0.2044 -0.2433 -0.1406
16860W        W32477   3.612   1.073   3.026  0.1917 -0.0310 -0.1647
16861W        W32478   0.911   6.823   2.798  0.0828 -0.0882  0.0578
16862W        W32479   9.471   3.050  16.025 -0.1494 -0.0754  0.0866
16863W        W32480   6.690  12.566  14.518  0.2894 -0.1896 -0.1516
16864W        W32481   9.672   4.228  13.357 -0.0733 -0.2236 -0.1644
16865W        W32482  14.672   9.363   1.351  0.3690  0.2469  0.2825
16866W        W32483  13.174   4.480   5.004 -0.0144 -0.2221  0.1468
16867W        W32484   7.197  10.714   1.636 -0.1091 -0.1093  0.3298
16868W        W32485  17.194  15.494  13.970 -0.2485  0.1012 -0.0208
16869W        W32486  14.221   8.359  15.307  0.1571 -0.0343 -0.0223
16870W        W32487   4.424  10.474  15.404 -0.1639  0.1642  0.0528
16871W        W32488   5.351   6.799   1.958  0.2551 -0.0314 -0.0809
16872W        W32489  12.151  15.146   5.257 -0.1093 -0.1952 -0.0987
16873W        W32490  17.049   3.333   5.184  0.3764 -0.0451 -0.2113
16874W        W32491   5.034   7.902   5.055  0.1611  0.2018 -0.0946
16875W        W32492  10.722  15.009   6.084  0.1362 -0.0561  0.2078
16876W        W32493  16.747  12.867   4.009 -0.0236 -0.2095  0.1542
16877W        W32494   3.678   1.864  16.426  0.1479  0.3371 -0.1272
16878W        W32495   1.872  14.109   2.009  0.0285  0.0471  0.0457
16879W        W32496   3.421   2.126   0.743  0.2219  0.0478 -0.0459
16880W        W32497   3.605   5.238  15.257 -0.1189 -0.1602  0.2621
16881W        W32498   6.138  12.097  11.980  0.0400  0.1556 -0.1786
16882W        W32499   9.382  16.259  12.641  0.0430  0.0973  0.0725
16883W        W32500  16.894   5.552   6.218  0.0619 -0.1678  0.3957
16884W        W32501  15.011   3.583  17.228 -0.1269 -0.1801 -0.0588
16885W        W32502   2.694  14.357   2.115 -0.2218 -0.3823  0.2764
16886W        W32503   1.113  17.117   0.855  0.1552 -0.1974  0.1871
16887W        W32504  13.379   8.561   5.282  0.6031  0.0343 -0.3194
16888W        W32505  14.765  13.087   3.317  0.1346 -0.2772  0.1628
16889W        W32506  15.371   5.387   5.464 -0.1343 -0.1720  0.4010
16890W        W32507   9.926  14.812   2.518 -0.0076 -0.0156  0.1532
16891W        W32508  10.481  17.429  11.126  0.0633 -0.0532  0.0679
16892W        W32509   4.795   8.370   2.547 -0.2411 -0.0578  0.0244
16893W        W32510   8.173  15.916  16.483  0.2564 -0.0670  0.0240
16894W        W32511   6.783  12.586  12.824 -0.0019  0.1629  0.1678
16895W        W32512   4.564   6.866   0.555 -0.1260 -0.1930 -0.3313
16896W        W32513  15.255   1.706   4.974  0.1192  0.2375 -0.0960
16897W        W32514   3.179  11.077   5.107 -0.4626  0.1945 -0.0625
16898W        W32515   9.032  17.179  11.944 -0.0766  0.1326  0.0965
16899W        W32516   5.523  13.230   2.021 -0.2403 -0.0761 -0.1542
16900W        W32517   8.373   7.722  12.990  0.0109  0.2036  0.2497
16901W        W32518   5.316   3.120  14.214 -0.0073 -0.2478  0.1220
16902W        W32519  12.710   0.089   1.607 -0.2388  0.1911  0.0316
16903W        W32520   2.275  11.176   2.886 -0.0392  0.2315  0.0056
16904W        W32521  10.708   8.144   1.227  0.0079 -0.3673  0.0475
16905W        W32522   2.765   9.458   0.393 -0.0404 -0.0328  0.2692
16906W        W32523   6.074  14.000  13.932  0.0854  0.0397 -0.1054
16907W        W32524  13.966   6.830   1.508  0.0182 -0.0638 -0.1127
16908W        W32525  12.192   3.697   4.143 -0.0576 -0.0089 -0.2029
16909W        W32526  10.320  11.793   5.048  0.3048 -0.0994 -0.0538
16910W        W32527  11.124   7.960   5.569  0.1089 -0.1807  0.2014
16911W        W32528  16.345   0.757   3.099 -0.0440  0.1446  0.1574
16912W        W32529   7.101  14.076  14.107 -0.1145 -0.0021  0.0231
16913W        W32530   9.592   4.699   0.741 -0.0653  0.2421 -0.0581
16914W        W32531  17.366  17.083   0.825 -0.1030  0.0680 -0.4291
16915W        W32532   9.771   2.914  11.482  0.0336 -0.0260 -0.1781
16916W        W32533   8.091   7.729   4.901 -0.3141 -0.0933 -0.0950
16917W        W32534  11.686   3.070  11.911  0.1079  0.0435  0.2227
16918W        W32535   7.260  11.847  12.236 -0.0776 -0.1840 -0.0135
16919W        W32536   6.752  13.507  15.092 -0.0750  0.2246 -0.3594
16920W        W32537   3.941   2.166  13.492  0.1951  0.2695 -0.3436
16921W        W32538  10.684   6.736   0.743 -0.1619  0.0271  0.4517
16922W        W32539   2.723   4.606  11.886  0.4360 -0.0174  0.2213
16923W        W32540  12.232  15.850   0.231 -0.0390 -0.0064  0.0926
16924W        W32541   6.220   8.515   4.635 -0.1363 -0.1356 -0.0380
16925W        W32542   1.343  10.958   2.927 -0.2068 -0.1735  0.2238
16926W        W32543   0.794   5.236  16.636 -0.0333 -0.0527 -0.0064
16927W        W32544  10.876   9.029   0.240 -0.1330 -0.3132  0.2608
16928W        W32545   3.775  13.895   4.096  0.0461  0.0071 -0.2457
16929W        W32546   2.481  13.325   4.467  0.1274 -0.0858 -0.0045
16930W        W32547   6.001   1.132   3.209  0.1458  0.1342  0.1635
16931W        W32548  13.238   5.449  16.182 -0.0641 -0.3290  0.1648
16932W        W32549   1.713  10.981   5.902 -0.0607 -0.4241 -0.1513
16933W        W32550  17.244   2.741  13.723 -0.0037  0.0434 -0.1247
16934W        W32551   5.846   7.121  13.466  0.3684  0.2402 -0.2054
16935W        W32552  13.196  16.780   4.409  0.3572  0.0332 -0.0633
16936W        W32553   3.805   7.982  14.752  0.1859 -0.2568  0.5370
16937W        W32554   8.680  14.952   5.118  0.0673 -0.0449  0.1078
16938W        W32555  13.602  10.403  12.422  0.1020  0.2592 -0.2702
16939W        W32556   4.987   6.792   1.191 -0.1846 -0.1859 -0.3056
16940W        W32557   7.261  13.717   3.329 -0.2556  0.1883 -0.1617
16941W        W32558  12.212   6.582  15.964 -0.0114 -0.1127 -0.1206
16942W        W32559   5.963  10.235  12.164 -0.2563 -0.0868  0.1782
16943W        W32560   3.789  11.706   4.248 -0.1537 -0.1616 -0.2781
16944W        W32561  15.906   0.267  13.132  0.1182  0.1342 -0.2209
16945W        W32562   7.366   0.493  13.023 -0.0121 -0.0175  0.0178
16946W        W32563   9.074   5.445   3.559  0.0292 -0.0946  0.1458
16947W        W32564   0.028   6.397  14.418  0.0630  0.2018  0.0747
16948W        W32565   5.027   4.126   0.315  0.1215  0.1406  0.1383
16949W        W32566  15.261   6.138   0.044  0.2912 -0.0588  0.0799
16950W        W32567   7.104   3.667  12.965 -0.0672 -0.0579  0.1308
16951W        W32568  15.250   4.905  16.101  0.1730 -0.0090 -0.0082
16952W        W32569   0.459   9.629   3.020  0.0342  0.2622 -0.0914
16953W        W32570   6.860  12.080  14.610 -0.0363 -0.1233 -0.3340
16954W        W32571   6.248   7.665  16.556  0.2599 -0.3348  0.0929
16955W        W32572   0.905  14.013  15.022  0.1165 -0.1082 -0.0807
16956W        W32573   6.271  11.211   2.679 -0.1715 -0.4140  0.1904
16957W        W32574   5.737   8.283   5.857  0.0258 -0.2897 -0.1390
16958W        W32575   7.068   6.004  16.215  0.1946 -0.0660  0.2398
16959W        W32576  11.389  17.237  12.064 -0.1165  0.2824 -0.0885
16960W        W32577   7.327   7.639   5.940 -0.0327  0.0664  0.2232
16961W        W32578   2.207   9.775  13.207  0.1372 -0.1401 -0.2260
16962W        W32579  10.786   3.980   6.078  0.0325  0.2375  0.2391
16963W        W32580  17.352   7.373   1.337 -0.0526  0.2062  0.0404
16964W        W32581  12.887  10.345   5.945 -0.0419 -0.0897 -0.0464
16965W        W32582  13.331  12.327   5.838  0.3062 -0.1412 -0.3126
16966W        W32583   7.000  10.236   1.381  0.0237 -0.1925  0.1236
16967W        W32584  13.380   5.051   6.784 -0.3950  0.0010 -0.2482
16968W        W32585   5.198   7.696   5.897 -0.0137  0.2017  0.0874
16969W        W32586   1.665  11.588   3.451  0.0977 -0.1538  0.2905
16970W        W32587  10.774  17.348  15.302  0.0330 -0.2055 -0.0394
16971W        W32588   7.393  16.690   1.120 -0.0382  0.2277  0.0299
16972W        W32589  17.478  15.870   0.318  0.2473 -0.1167  0.0853
16973W        W32590   7.890   3.011  13.701  0.0453 -0.0422  0.1886
16974W        W32591  14.148   1.955   5.360  0.0807 -0.1351  0.0629
16975W        W32592   5.241  11.094  16.381  0.0137 -0.0879  0.1466
16976W        W32593  16.946  15.431   2.280  0.2282 -0.0835  0.1434
16977W        W32594  12.992   0.496  16.322 -0.2191 -0.1132  0.0413
16978W        W32595  13.590  14.166   5.424  0.0193 -0.0216  0.2516
16979W        W32596  12.824   7.166   3.002  0.1072  0.2591 -0.1698
16980W        W32597  17.173   5.262   4.290  0.2162  0.1603  0.0246
16981W        W32598   2.902  12.731   1.826  0.0579 -0.1863 -0.0138
16982W        W32599   8.060  11.861   4.089 -0.1826 -0.0755  0.1158
16983W        W32600   6.456   0.069   5.822  0.0932 -0.0536 -0.0355
16984W        W32601  14.273  15.898   0.860  0.0794 -0.2649  0.1129
16985W        W32602  12.139   2.878   4.102 -0.0337 -0.0548  0.4152
16986W        W32603  13.642   2.835   0.641  0.2403 -0.0088 -0.0529
16987W        W32604   3.846  17.013  11.796  0.0184 -0.3429 -0.0134
16988W        W32605   4.413  10.929   1.641 -0.1354 -0.1916 -0.2810
16989W        W32606  15.458   4.612   5.861  0.0219  0.2742  0.0440
16990W        W32607   2.653  12.278  13.114  0.0871 -0.0882  0.2035
16991W        W32608  16.106  16.155  13.198  0.4366  0.0188  0.1285
16992W        W32609   8.028  15.950  11.002 -0.1689 -0.1928 -0.3105
16993W        W32610   1.265   3.407  16.241 -0.2595  0.0545 -0.1324
16994W        W32611   4.905   8.804  16.744 -0.2000 -0.4268 -0.2114
16995W        W32612   8.050  11.102   4.644 -0.2185 -0.1073 -0.0940
16996W        W32613  13.066  10.856   3.560  0.0051 -0.0737  0.3707
16997W        W32614  13.797   6.682   1.063  0.2594 -0.3412  0.2437
16998W        W32615  14.174   2.347   1.164  0.1603  0.0191 -0.1886
16999W        W32616  11.487   0.794  14.727  0.0210 -0.3141 -0.0211
17000W        W32617   8.460   2.895   0.995 -0.1874 -0.3266 -0.1993
17001W        W32618   8.761   2.396   5.301 -0.1952  0.1291  0.1979
17002W        W32619  13.609   6.159   2.566  0.2206 -0.0444  0.0525
17003W        W32620   7.998  10.363  12.457 -0.1782  0.3456 -0.0534
17004W        W32621   5.833   8.550   4.936  0.0823 -0.0877  0.1520
17005W        W32622   0.991  12.359   3.812  0.0070 -0.1200 -0.1217
17006W        W32623   6.008   9.426   3.881 -0.1570  0.4045  0.2961
17007W        W32624  14.583   5.134  16.014 -0.1429 -0.2350 -0.1942
17008W        W32625   2.970  11.500  16.171 -0.2721  0.1712 -0.0137
17009W        W32626  14.111   2.815  14.497 -0.1243 -0.0080 -0.1392
17010W        W32627   4.378   1.219  14.875 -0.0944 -0.1193 -0.3131
17011W        W32628  15.133   0.763   5.187 -0.1361  0.1555 -0.2078
17012W        W32629  14.351  10.627   4.816 -0.0655 -0.0949  0.0817
17013W        W32630  10.803   9.814  13.872  0.4996 -0.2484  0.4675
17014W        W32631  12.228  15.769   6.464 -0.3843 -0.1734  0.2054
17015W        W32632  10.441   0.110  15.920  0.1890  0.3206  0.0877
17016W        W32633  12.180   0.831   3.651 -0.3684 -0.3487  0.3376
17017W        W32634  14.769   0.775  12.052  0.0646  0.0374 -0.0477
17018W        W32635   1.437   0.318  14.102  0.1256  0.2345 -0.0890
17019W        W32636  14.783  12.285  12.506  0.2500 -0.2040  0.0605
17020W        W32637   4.972  11.112  16.832  0.1031 -0.0029 -0.0569
17021W        W32638   3.353   4.218   1.269 -0.1588  0.1149  0.1341
17022W        W32639   8.859   3.743  13.715  0.2610 -0.2886  0.1006
17023W        W32640   2.047  13.914  12.502  0.1181 -0.1521  0.0132
17024W        W32641  14.092  13.463   0.243 -0.1222 -0.0964  0.0889
17025W        W32642   9.917  13.718   2.243  0.0288  0.1090 -0.0525
17026W        W32643  11.887   8.266   0.505 -0.3152  0.1908 -0.2738
17027W        W32644  13.727  12.178   1.683 -0.3394 -0.0743 -0.0086
17028W        W32645   8.946   7.745  16.812  0.0039  0.0798 -0.0033
17029W        W32646   4.487  12.638   4.521  0.0328  0.0988  0.0318
17030W        W32647  14.254  12.834  12.255  0.0965  0.0130 -0.0278
17031W        W32648  14.437   7.391  13.769 -0.0429 -0.1511 -0.2055
17032W        W32649   0.772   0.360  12.639  0.1301 -0.0632 -0.2180
17033W        W32650   8.066  13.144   0.156 -0.3498 -0.0813 -0.1259
17034W        W32651  11.191   2.620  14.778  0.1120  0.0840 -0.0044
17035W        W32652   1.177   1.565   3.410  0.0478  0.1512 -0.0725
17036W        W32653  13.690   7.728  14.949 -0.0212  0.1779 -0.2709
17037W        W32654   8.216   5.359   2.930 -0.2465 -0.2442  0.0744
17038W        W32655   0.020   3.676   2.300  0.0752  0.1762 -0.1041
17039W        W32656  17.395  14.139   4.083 -0.1506  0.2171  0.0210
17040W        W32657   3.720  14.857  16.655 -0.1034  0.0202  0.1614
17041W        W32658  16.647  16.033   1.664 -0.3164  0.1535 -0.1513
17042W        W32659  15.879   3.899   6.119 -0.2818 -0.0222  0.0869
17043W        W32660   2.175   1.156   1.111 -0.0878 -0.1271 -0.1023
17044W        W32661   8.941   5.229  16.636  0.0759 -0.1194 -0.0240
17045W        W32662   1.203  15.617   3.229 -0.0424  0.0653 -0.0432
17046W        W32663  14.982  16.423  12.272  0.0009 -0.1110  0.0271
17047W        W32664   4.875  16.067  14.570 -0.2745  0.1304 -0.2070
17048W        W32665   8.277  14.115  14.422 -0.0523  0.0295  0.1127
17049W        W32666  16.710  15.213   0.528 -0.1447 -0.2370 -0.1464
17050W        W32667  10.332   3.155   4.760 -0.1488 -0.0416  0.0315
17051W        W32668  10.905  13.213   0.244 -0.0408  0.0235  0.2418
17052W        W32669   2.007  12.178   1.272  0.0236  0.0909  0.0042
17053W        W32670   7.614   3.997   0.973  0.0452 -0.3608  0.0725
17054W        W32671  13.013  11.811  17.016  0.3371 -0.1255 -0.3582
17055W        W32672   7.973  12.764  10.901 -0.2089 -0.0180 -0.3839
17056W        W32673   1.519   0.467   4.875 -0.2953  0.2513 -0.0583
17057W        W32674  13.157   6.070  15.226  0.0406 -0.1660  0.1523
17058W        W32675  17.395  10.991  12.259  0.0951  0.0007 -0.0340
17059W        W32676  10.639  11.395  16.820  0.0711 -0.1122  0.1531
17060W        W32677   3.787   8.722  16.227  0.5009 -0.0548  0.0008
17061W        W32678   2.840  13.976  12.544  0.0624  0.2497 -0.1187
17062W        W32679  10.990   1.198  14.850 -0.1253  0.0122  0.0104
17063W        W32680  11.785   2.659  15.536 -0.2077 -0.0420  0.1424
17064W        W32681   9.610  12.298  15.490 -0.1738  0.3399 -0.2277
17065W        W32682  13.990   4.896   4.779  0.0518 -0.2214  0.2118
17066W        W32683  16.039   8.690   1.633  0.0939 -0.0185  0.2128
17067W        W32684   5.829  17.198  14.194  0.1274  0.1173  0.0719
17068W        W32685   1.409   5.786  13.546  0.1646  0.3884  0.2977
17069W        W32686  14.354   2.802   2.069 -0.2305 -0.1380  0.0738
17070W        W32687   0.217   6.622   1.045 -0.0505  0.0237 -0.0727
17071W        W32688  15.173  17.107  16.547 -0.1157  0.2959  0.1787
17072W        W32689   9.737  11.169  15.841  0.1810  0.0737 -0.0327
17073W        W32690  15.722  11.210   6.029 -0.0460 -0.1739  0.4200
17074W        W32691  12.145  16.434   5.833  0.3691 -0.2175  0.1826
17075W        W32692  14.538   8.792   5.852  0.1681 -0.1480 -0.0217
17076W        W32693  12.952   7.627  17.256 -0.0167  0.3094 -0.0082
17077W        W32694  14.789   3.767  15.815 -0.2030 -0.0697 -0.2558
17078W        W32695  16.380  12.702   4.925 -0.0680 -0.1327  0.2382
17079W        W32696   2.664   6.519  17.110  0.1407  0.2798 -0.0532
17080W        W32697   1.866  15.346   4.054  0.1087  0.0513  0.1090
17081W        W32698   9.540   2.378  16.882  0.1366  0.3939 -0.0503
17082W        W32699   2.261   7.773  12.902  0.0783 -0.0289 -0.2682
17083W        W32700   0.437  13.176  14.813 -0.1121 -0.0027 -0.2031
17084W        W32701  11.017   4.700   0.788  0.1180  0.2614 -0.2075
17085W        W32702   3.580   5.174  12.280 -0.0728 -0.0905  0.1622
17086W        W32703  16.795  15.356   3.566  0.1243 -0.0499  0.1163
17087W        W32704   6.238  15.827   5.045 -0.1806  0.0107  0.1797
17088W        W32705   5.844  14.071   0.311  0.0407 -0.0423  0.0015
17089W        W32706   7.301  14.435  16.282 -0.0153 -0.4022  0.1276
17090W        W32707  11.282   8.078   2.781  0.0274  0.0570  0.2462
17091W        W32708  12.104  13.211  15.665  0.0292 -0.1930 -0.0552
17092W        W32709   3.991   9.970  12.757 -0.1927 -0.1811 -0.0003
17093W        W32710   0.565   5.548  14.714 -0.0806  0.0776 -0.1368
17094W        W32711   9.760   4.701   4.730  0.0145 -0.0478 -0.2866
17095W        W32712  17.268  16.286  14.559 -0.0603 -0.0205 -0.0140
17096W        W32713   7.348   9.858   4.177 -0.1311  0.2068 -0.2702
17097W        W32714   5.791  11.314   5.920  0.0124  0.0252 -0.0695
17098W        W32715   3.499   7.064   5.950 -0.1933 -0.0123  0.1998
17099W        W32716   1.079   0.104  13.052  0.3248  0.2693 -0.1768
17100W        W32717   4.183   7.041  17.059 -0.0553 -0.0144 -0.0074
17101W        W32718   0.318  10.554  16.755 -0.1751 -0.1432 -0.1764
17102W        W32719  16.623   0.948  14.072  0.0233 -0.3548  0.1593
17103W        W32720   0.704  12.796   6.376  0.0477  0.2070 -0.1845
17104W        W32721  15.463  12.955  16.837 -0.1816 -0.0534  0.0480
17105W        W32722   2.341   0.911  16.588  0.0911  0.0325  0.0835
17106W        W32723   4.479  16.908  15.417  0.1421  0.1249 -0.0370
17107W        W32724   4.364   7.153  16.609  0.2080  0.0515 -0.0955
17108W        W32725  17.282   5.007  13.287  0.0328  0.1594  0.3521
17109W        W32726  13.314  17.320  14.535 -0.1113  0.3515 -0.2109
17110W        W32727   9.374   8.565   0.364 -0.1259 -0.0482  0.1193
17111W        W32728   3.331  13.164  14.921  0.1688 -0.0117  0.1473
17112W        W32729  15.137   6.977   3.867  0.1697  0.2628 -0.2601
17113W        W32730  15.962   4.312   0.152 -0.1213 -0.0812  0.0075
17114W        W32731  12.142  15.381  14.159 -0.0539  0.2651 -0.2301
17115W        W32732  11.802   0.327  15.923 -0.1269 -0.0556  0.4065
17116W        W32733   7.299  16.003  13.687 -0.0622 -0.1600  0.0105
17117W        W32734   7.491   0.704   0.264  0.0960 -0.3421 -0.0895
17118W        W32735   7.177   1.177  16.333  0.0747 -0.0127  0.3051
17119W        W32736   8.472   2.257   4.573 -0.1274  0.1715 -0.2903
17120W        W32737   9.767  11.894  16.758 -0.3427 -0.1430 -0.3632
17121W        W32738  13.200   0.483  16.824  0.0023 -0.0409  0.2919
17122W        W32739   8.648  11.521   1.861 -0.0725  0.0434 -0.0247
17123W        W32740   5.511   7.948  12.400  0.0728 -0.0466  0.0824
17124W        W32741   5.814   1.952   5.741 -0.2066  0.0702  0.0695
17125W        W32742   9.187  16.322  11.234  0.2928  0.0504  0.1249
17126W        W32743  14.598   6.085   5.472 -0.2376  0.0073 -0.0201
17127W        W32744   4.917   7.024  15.457 -0.2512  0.4442  0.1677
17128W        W32745   1.607   5.922  16.234  0.0760  0.1260 -0.1043
17129W        W32746   6.589  10.775   1.483  0.2476  0.0791 -0.2746
17130W        W32747   0.457   0.617   4.306  0.1570  0.1594  0.0328
17131W        W32748  15.306   9.195  13.459  0.3887 -0.0269 -0.0998
17132W        W32749   1.660   5.576  13.942 -0.0898 -0.3532 -0.1294
17133W        W32750  13.344   9.441  14.087 -0.1291  0.0459 -0.1808
17134W        W32751   7.268   4.846  13.698 -0.1527  0.2661  0.2361
17135W        W32752   3.926  15.725  12.131  0.0356 -0.1911  0.2499
17136W        W32753   5.835   9.712   1.751  0.0788 -0.0791  0.3590
17137W        W32754  15.062  11.519  16.002 -0.0832  0.1501  0.2130
17138W        W32755  17.455   8.424   0.380  0.0708  0.2796 -0.1306
17139W        W32756   3.781  11.674  16.608 -0.0774 -0.1988  0.0269
17140W        W32757  14.752   0.677   0.613  0.1776  0.1385  0.1463
17141W        W32758   7.179  13.533  17.042  0.0124 -0.3443  0.0205
17142W        W32759   9.559   8.104   2.933 -0.1972  0.0679 -0.1964
17143W        W32760  14.506  10.116   1.942  0.2470  0.0658 -0.2506
17144W        W32761   1.555  16.946   1.024 -0.1643 -0.0971 -0.4222
17145W        W32762   6.698   8.657   5.271  0.1282  0.0247  0.1557
17146W        W32763   6.541   3.176  12.318  0.1788  0.3640  0.4007
17147W        W32764   4.136   5.724   2.635 -0.0463  0.4213 -0.0424
17148W        W32765  14.520   0.034  14.593  0.0090 -0.1373 -0.1814
17149W        W32766  12.018  12.401   1.721  0.0757 -0.0104 -0.2471
17150W        W32767   2.007   5.923  13.700 -0.0521 -0.1744  0.2898
17151W        W32768   6.169   1.510  14.749 -0.0619  0.3935 -0.1039
17152W        W32769  11.530   2.835  15.122 -0.3374 -0.1021  0.2047
17153W        W32770   6.225   7.001   5.655 -0.2529  0.2093  0.1882
17154W        W32771   2.634  15.296  16.935 -0.0830  0.0042 -0.1504
17155W        W32772  14.105   5.892  15.992  0.2405 -0.2275 -0.1697
17156W        W32773   5.603  13.964  12.755 -0.1809  0.1025  0.0310
17157W        W32774   8.750  14.469   0.036 -0.2225  0.0896  0.0272
17158W        W32775  15.649  11.226  15.550 -0.4656 -0.1370 -0.0182
17159W        W32776   3.818  14.738   1.245 -0.1996 -0.2149  0.0773
17160W        W32777  12.977   0.185   2.416  0.0337  0.0271  0.2490
17161W        W32778   3.742  11.987   2.530  0.0510  0.2390  0.0953
17162W        W32779   6.678   5.775  15.945  0.3020 -0.2956 -0.1602
17163W        W32780  14.464   7.744   4.778  0.0642 -0.1152 -0.2004
17164W        W32781   4.831  12.918  12.518  0.1371  0.2681 -0.2067
17165W        W32782   7.031  14.917  12.678 -0.2490  0.2767  0.2002
17166W        W32783  12.746  13.181   0.998  0.1928 -0.4967 -0.0067
17167W        W32784   4.371  14.832   1.310  0.0855  0.1534 -0.0204
17168W        W32785  10.125   9.876  15.987 -0.1238 -0.1867 -0.3321
17169W        W32786  17.380   4.629   3.929  0.1007  0.2843 -0.0750
17170W        W32787   7.325  11.265  14.251 -0.0536 -0.2062 -0.1399
17171W        W32788   6.837  13.158  15.994  0.2844  0.4495  0.0512
17172W        W32789  12.574  15.698  16.566 -0.0178 -0.0394  0.1831
17173W        W32790   4.659  13.665  10.841 -0.1101  0.0951 -0.1925
17174W        W32791  15.017  14.618   3.102 -0.0679  0.0828 -0.1504
17175W        W32792  12.153  10.144  15.192 -0.0166 -0.0131  0.2802
17176W        W32793  16.484  13.752  13.484  0.3694  0.1617 -0.1939
17177W        W32794  11.468   6.212   4.528  0.2139 -0.2256  0.1715
17178W        W32795   3.224   2.049   2.627 -0.3193  0.3776  0.1068
17179W        W32796  16.855   1.280  15.887 -0.1775  0.0889  0.1652
17180W        W32797   4.148   1.196   4.672 -0.0529 -0.1729  0.3000
17181W        W32798   5.586   8.721  11.052  0.3815 -0.0964  0.0189
17182W        W32799  16.702   1.487   1.031 -0.0756  0.0593 -0.0855
17183W        W32800   6.500   2.426  14.004 -0.1158 -0.2644  0.0231
17184W        W32801   0.472  10.272   0.764 -0.2616 -0.1462  0.0079
17185W        W32802   9.811   3.898   2.861  0.0548  0.0422 -0.2305
17186W        W32803   1.335   1.735  12.781 -0.2248  0.2823  0.1597
17187W        W32804   1.753  16.032  13.371 -0.0341 -0.0224 -0.0168
17188W        W32805   5.229   3.452   4.738 -0.1237  0.1204 -0.0442
17189W        W32806  13.518   7.224   1.000  0.2014  0.4140  0.2061
17190W        W32807  15.384  16.560  13.892  0.1862 -0.1100 -0.1806
17191W        W32808  15.107   7.038   4.373  0.0307  0.1529  0.1555
17192W        W32809   2.864   7.676  12.374 -0.3464  0.1173  0.0795
17193W        W32810  16.215   7.189   2.435 -0.0619  0.0869  0.0652
17194W        W32811   5.899  17.478  12.012 -0.0290  0.0866  0.0919
17195W        W32812  16.960   3.849   3.966 -0.0503  0.4280  0.1565
17196W        W32813  10.176   6.079  12.501 -0.1736  0.1817 -0.1849
17197W        W32814   1.855   3.795  13.336  0.2121 -0.1067  0.0946
17198W        W32815   8.976   2.784   1.363  0.0177 -0.0345  0.3381
17199W        W32816   8.492   0.335   0.994  0.0589 -0.0894 -0.0923
17200W        W32817   2.542   7.742   5.407 -0.0606  0.2163  0.2085
17201W        W32818   9.276   8.585  13.637  0.2221  0.1124  0.0983
17202W        W32819  16.122   9.636   1.155 -0.0975  0.2384 -0.0182
17203W        W32820  14.817   5.824   1.702  0.0038 -0.0312 -0.1881
17204W        W32821   0.596   2.302  15.972  0.1020 -0.2129  0.4584
17205W        W32822   1.118  10.004   0.370 -0.0212 -0.2331  0.2634
17206W        W32823   1.242  16.138   0.755 -0.1603 -0.0007  0.1680
17207W        W32824   1.214   5.093   6.526  0.0091 -0.3271  0.1284
17208W        W32825  14.347  13.964  11.714  0.0120  0.0227 -0.1516
17209W        W32826  14.448   1.456   5.627 -0.1143 -0.1730 -0.0061
17210W        W32827   3.530  15.595   5.526 -0.0401 -0.3205 -0.0452
17211W        W32828   7.991  17.089  12.683  0.4131  0.2581 -0.0540
17212W        W32829  12.815   6.159  14.614  0.0898  0.1873  0.1810
17213W        W32830  13.779   3.861  12.977 -0.2821 -0.3374  0.2639
17214W        W32831  11.633   9.771  12.069  0.1650 -0.0529 -0.2216
17215W        W32832   4.393  15.916  12.316  0.1414 -0.0851 -0.0390
17216W        W32833   9.345   1.081   3.168 -0.0893 -0.1933 -0.0830
17217W        W32834  12.659  11.427   4.634  0.0035  0.0694  0.0657
17218W        W32835   0.653   7.437  16.268  0.0255  0.0027  0.1720
17219W        W32836   0.839   6.634  12.068  0.0859  0.2139 -0.1486
17220W        W32837  15.165   6.541   0.705  0.0123  0.0325 -0.3708
17221W        W32838  12.466   3.551   0.806  0.2807 -0.1811 -0.1352
17222W        W32839   2.938  16.682  16.007  0.0271 -0.0412  0.0861
17223W        W32840   2.626   5.141   4.449  0.1537  0.2197 -0.2163
17224W        W32841   9.293  15.729  13.574  0.0328  0.0321  0.0729
17225W        W32842  17.157   9.235  13.197  0.4835  0.0157 -0.2230
17226W        W32843  14.150  13.860  15.594  0.1054  0.0194  0.0570
17227W        W32844  13.471  15.773   0.489  0.1313  0.1590 -0.1475
17228W        W32845   6.448   0.584  17.268  0.1654 -0.3054  0.2183
17229W        W32846  16.713  11.387   0.951  0.1145 -0.1966  0.0256
17230W        W32847   5.439  17.498  14.617 -0.2603  0.2387 -0.0344
17231W        W32848   6.375   1.861  13.620  0.0615 -0.1695 -0.1004
17232W        W32849   5.349   2.655  14.681  0.1397  0.0193 -0.1240
17233W        W32850   0.650   3.337  12.265  0.0636 -0.2049  0.1045
17234W        W32851   9.018  13.372   2.392  0.2905  0.2115 -0.1440
17235W        W32852  14.171   3.370   2.231  0.0645  0.0415  0.1427
17236W        W32853  13.325   5.643  14.419 -0.3510 -0.1966  0.3295
17237W        W32854   3.657   4.311   6.222  0.0930 -0.4535  0.3379
17238W        W32855  11.245   3.864  17.062  0.0890 -0.2759  0.1740
17239W        W32856   6.734  15.951  15.220  0.1383 -0.1293 -0.2222
17240W        W32857   0.166   9.001   4.142  0.0567 -0.0371 -0.0631
17241W        W32858  15.121  17.442   0.928 -0.2879 -0.1216  0.0009
17242W        W32859   6.143  15.016   1.781 -0.1012 -0.0759 -0.0066
17243W        W32860  14.281  14.959  14.773  0.0722  0.1102  0.0467
17244W        W32861  11.225   3.118  13.157 -0.1117 -0.0541  0.0052
17245W        W32862  10.083   3.135   1.726  0.1190  0.2508 -0.0624
17246W        W32863   0.043  13.697   4.151  0.2806 -0.4223 -0.0108
17247W        W32864  11.045  17.565   3.042  0.3772  0.1400  0.0816
17248W        W32865   3.895   9.902  15.835  0.2441  0.0172 -0.0036
17249W        W32866   4.966  11.256  14.332  0.0194  0.1037  0.2148
17250W        W32867   9.677  10.470  17.264  0.3479  0.0794  0.0094
17251W        W32868  11.947   1.106   5.078 -0.1354  0.2193  0.1072
17252W        W32869   6.109  13.330   2.101 -0.2227 -0.0330 -0.2319
17253W        W32870   8.963   0.334  14.712  0.0561  0.1552  0.0966
17254W        W32871   5.117   7.863   2.771 -0.0616  0.0942  0.0881
17255W        W32872  16.625  14.528   2.781  0.0821  0.2294 -0.3269
17256W        W32873  12.017  13.012   0.421 -0.0817 -0.3038 -0.1029
17257W        W32874  14.674   3.845   0.334  0.0384 -0.1017 -0.0398
17258W        W32875   8.266   4.263   0.458 -0.0237  0.3249  0.1224
17259W        W32876   9.310   0.070  11.801 -0.1676 -0.1702 -0.3934
17260W        W32877  17.034   9.836  16.087 -0.1201 -0.1108 -0.2562
17261W        W32878   8.485   3.885   2.089  0.0208 -0.2674  0.0963
17262W        W32879  14.304   5.220   5.846  0.1794  0.3245  0.1969
17263W        W32880  11.787  15.770   4.652  0.0223  0.1594  0.1220
17264W        W32881   1.709   0.678   3.375 -0.1996  0.0801 -0.0722
17265W        W32882   6.385   8.536   3.177 -0.0405  0.0978 -0.1397
17266W        W32883   7.085   0.999   1.660  0.3080  0.0541  0.2185
17267W        W32884   9.976   4.320   5.693 -0.1927  0.0568  0.0528
17268W        W32885   7.413  13.999   1.659 -0.1032  0.0718  0.0110
17269W        W32886  17.371  13.272   4.113 -0.0894  0.1632 -0.2450
17270W        W32887  13.348   3.438  15.613  0.2028 -0.4874 -0.0410
17271W        W32888  15.480   0.265  15.223  0.0919  0.0409  0.0337
17272W        W32889  14.195  13.038  14.777  0.3053 -0.0320  0.4437
17273W        W32890   9.691  10.800   5.668 -0.3053  0.1569  0.0798
17274W        W32891  15.775  15.289   2.471  0.3417  0.0287  0.0104
17275W        W32892  14.904  13.430   0.233 -0.4700  0.4442 -0.0107
17276W        W32893   0.233   4.471   1.405 -0.0728  0.0744 -0.0840
17277W        W32894   8.665   6.514   2.174  0.4321  0.0752 -0.2413
17278W        W32895  12.530  16.901  11.546  0.1654 -0.1379 -0.3863
17279W        W32896   7.869   5.093  14.636 -0.1222  0.3294 -0.1694
17280W        W32897   4.158   4.728  12.496  0.0545 -0.0326 -0.0283
17281W        W32898   1.518  10.154   4.739 -0.2839 -0.0061  0.0132
17282W        W32899   9.356   5.274  14.991 -0.2780 -0.0348  0.0694
17283W        W32900   6.283   4.999   3.906  0.3473  0.2284  0.1739
17284W        W32901   5.228  16.540   0.935  0.0654 -0.0120 -0.0285
17285W        W32902  14.484  16.866   4.656  0.1722 -0.3054  0.1105
17286W        W32903   9.905   5.218   2.527  0.0144 -0.0737  0.0921
17287W        W32904   5.160   6.056  13.903 -0.2624 -0.2234  0.3383
17288W        W32905  12.770  14.468   1.242 -0.0056 -0.1328 -0.0304
17289W        W32906  15.151  14.249   2.781  0.0775 -0.0209  0.2017
17290W        W32907   5.018   1.960  15.773  0.0146 -0.0726  0.2629
17291W        W32908  12.467  14.997  14.384  0.0214  0.0077  0.1642
17292W        W32909   7.666  17.239  15.610  0.1111  0.1504  0.1767
17293W        W32910   4.769   5.457   1.486 -0.2063  0.2804 -0.0275
17294W        W32911  12.876   5.138  16.121 -0.1694  0.0226 -0.1326
17295W        W32912  12.657   8.049   1.905 -0.1734 -0.1861 -0.0709
17296W        W32913  13.962   8.024  12.710 -0.0842 -0.2853 -0.0352
17297W        W32914   3.578   4.963  14.649  0.4121 -0.0956 -0.1192
17298W        W32915  15.490   3.048  17.264  0.0147  0.0639 -0.5137
17299W        W32916   6.245   0.706  11.882  0.0741 -0.0804  0.0542
17300W        W32917   9.150  15.374   5.809 -0.2098 -0.4750 -0.3528
17301W        W32918   3.755  12.218  16.811  0.1225  0.2769 -0.0511
17302W        W32919   9.912  10.577   4.198  0.0895 -0.2658 -0.1206
17303W        W32920   1.049  17.540   1.165 -0.0728 -0.2958 -0.2577
17304W        W32921   3.816  16.277   2.777  0.4889 -0.0233 -0.0255
17305W        W32922  11.106  11.292  13.919 -0.0406 -0.2060  0.2034
17306W        W32923  15.568  16.919  12.188  0.1790  0.1068 -0.0626
17307W        W32924  16.819  16.659  16.181 -0.3167  0.0741 -0.1220
17308W        W32925  12.177   7.500   1.235 -0.0086 -0.0471  0.0581
17309W        W32926   6.910   7.920  15.415 -0.1944  0.2185  0.0131
17310W        W32927  10.572  17.308   4.765  0.0104  0.2321  0.2178
17311W        W32928   6.255  11.190  13.737  0.2160 -0.2204  0.1631
17312W        W32929   1.864  13.500   3.962  0.0048 -0.1406 -0.1521
17313W        W32930   6.482  12.217  11.613 -0.1156 -0.0069  0.1416
17314W        W32931  10.372  16.665   1.118 -0.1380  0.2290 -0.1110
17315W        W32932   7.331   9.892   0.632  0.0584  0.0132 -0.3079
17316W        W32933  12.888  16.793   5.820  0.2980  0.0308 -0.1329
17317W        W32934  12.129  17.192  14.003  0.1444 -0.1435 -0.0637
17318W        W32935  16.335  15.369   4.217  0.0970  0.0418 -0.1810
17319W        W32936  12.858  11.717   6.449 -0.0597  0.0672 -0.0792
17320W        W32937  10.114   1.104   0.160  0.2547  0.0303 -0.0472
17321W        W32938   1.336   0.464  16.770  0.0901  0.0866  0.2948
17322W        W32939  17.484   8.813   0.086 -0.0045 -0.3299 -0.0943
17323W        W32940   3.746  14.436   2.565 -0.0976 -0.0672 -0.0766
17324W        W32941   0.170   2.512  15.056  0.2196  0.2177  0.0842
17325W        W32942   2.518  10.555   1.281  0.2986  0.0830 -0.0091
17326W        W32943  16.952   5.986  15.959 -0.0126  0.0840  0.2055
17327W        W32944  13.906  14.699   4.541  0.0819 -0.1790 -0.1825
17328W        W32945   9.429  15.843   1.333 -0.0159  0.2589 -0.0724
17329W        W32946  15.074   3.606   5.836  0.1218 -0.2187  0.4241
17330W        W32947   0.392  16.999  16.018 -0.1600 -0.1584 -0.0551
17331W        W32948  10.344   3.305  12.009 -0.0126 -0.2946 -0.0412
17332W        W32949  14.415  14.631   1.690  0.3216  0.0543 -0.0103
17333W        W32950   5.594  10.809   0.338  0.2294  0.2817  0.0479
17334W        W32951   7.027  16.441  15.844 -0.4160  0.0727 -0.0989
17335W        W32952   3.761   5.605  12.740  0.0145 -0.0117 -0.0886
17336W        W32953   1.635   7.145   2.112 -0.1800 -0.2665  0.0992
17337W        W32954   5.216   5.838   3.533  0.0511 -0.2041 -0.2003
17338W        W32955   2.948   3.547   4.938  0.3276 -0.1540  0.1487
17339W        W32956   9.612  16.052   3.006  0.3872  0.0195 -0.2117
17340W        W32957   9.893   2.429  15.530  0.2257 -0.0040  0.0669
17341W        W32958   7.876   5.240   2.444  0.0518  0.2513  0.1389
17342W        W32959  14.177  15.232   3.949 -0.0065 -0.3672  0.0919
17343W        W32960   6.400   4.875  12.577 -0.1610 -0.1166 -0.0731
17344W        W32961   3.908  13.797   6.425  0.0233  0.1588 -0.2392
17345W        W32962  15.553  14.572   5.611 -0.2040 -0.0113  0.1456
17346W        W32963  14.590   9.419   3.860  0.1515  0.1541 -0.1418
17347W        W32964   2.117  12.495  13.075  0.0657  0.0390 -0.0527
17348W        W32965  12.334   6.642   3.927 -0.0169  0.1029  0.1652
17349W        W32966   2.631   1.354   2.364 -0.1008  0.3351 -0.0887
17350W        W32967   8.874  11.671   3.821 -0.1215  0.1379  0.2605
17351W        W32968   1.814   9.118   7.034  0.0231 -0.1505 -0.0387
17352W        W32969   4.880   8.280   1.975 -0.0637 -0.1036  0.1292
17353W        W32970  16.484  17.555   1.650 -0.2105 -0.1771 -0.1330
17354W        W32971   7.773   8.091   5.785  0.2105  0.2357  0.0906
17355W        W32972  12.642   5.675  12.433  0.2399 -0.3080 -0.0662
17356W        W32973   5.205  17.483   0.911  0.0680 -0.1575  0.1484
17357W        W32974   0.417  15.564   3.388  0.2659  0.3802  0.0744
17358W        W32975  16.230   0.920   1.591  0.2024 -0.0335 -0.0165
17359W        W32976   5.709   1.849   1.268  0.2839  0.0125 -0.1134
17360W        W32977  14.191   8.987  12.173  0.0231 -0.0729  0.0763
17361W        W32978   6.081   7.320   1.507  0.0419 -0.0054  0.2530
17362W        W32979   0.220   2.925   5.670  0.0754 -0.1583  0.1677
17363W        W32980   7.117  16.335  12.508  0.3535  0.1618 -0.1581
17364W        W32981   2.676  16.806   0.988 -0.0121  0.2498  0.1923
17365W        W32982  11.893   7.937   4.095 -0.2193 -0.3000 -0.0546
17366W        W32983   7.472   6.812  15.596 -0.0188  0.1901 -0.1265
17367W        W32984  13.212  11.909  14.481  0.0126 -0.2305 -0.2399
17368W        W32985  14.509   8.210   3.932 -0.0045 -0.1439  0.1549
17369W        W32986  14.573  15.016   2.073  0.0966  0.1534 -0.2653
17370W        W32987   0.936   7.052  12.443  0.0851  0.1815  0.2652
17371W        W32988   6.927   4.207  12.938 -0.1340 -0.0802  0.2451
17372W        W32989  10.242   1.368   4.667 -0.0263 -0.2768 -0.0658
17373W        W32990  11.780   0.836  10.210 -0.0360  0.0138  0.0705
17374W        W32991   2.353  10.832  16.318 -0.0784  0.2097 -0.0087
17375W        W32992  10.369  13.979   2.692 -0.0770  0.1657  0.1200
17376W        W32993  10.948   7.398   0.043  0.0098 -0.0722  0.2056
17377W        W32994   7.972   9.517   4.929 -0.1133  0.0840  0.3241
17378W        W32995   8.230   7.617  15.420 -0.0937 -0.0862  0.2596
17379W        W32996   9.224   9.837   5.139  0.0726  0.2356  0.0414
17380W        W32997   9.048   1.418  15.756 -0.1545  0.2136  0.0830
17381W        W32998   8.855   3.680  12.719 -0.0285  0.2381  0.0145
17382W        W32999   2.049  17.483   3.985 -0.0903 -0.1455 -0.1936
17383W        W33000   7.654  14.095  16.248  0.2120 -0.1412 -0.1811
17384W        W33001  10.636  13.145   4.865  0.2740  0.0763  0.0991
17385W        W33002  11.957   9.491  14.430 -0.0205 -0.1263  0.2850
17386W        W33003   8.401   5.251  16.740 -0.0228  0.1176 -0.1805
17387W        W33004   1.560  12.186  16.408 -0.0330  0.2793 -0.1845
17388W        W33005  15.693   4.393  14.940 -0.0885 -0.1258  0.2433
17389W        W33006   5.246  16.398  15.850 -0.2857 -0.3454  0.2548
17390W        W33007   3.392   3.323   0.108 -0.1111  0.0810 -0.3223
17391W        W33008  15.982   7.454   3.948 -0.1675 -0.0602  0.2132
17392W        W33009  17.559   4.085   6.155 -0.0720  0.0812 -0.2369
17393W        W33010   4.883  14.784   0.455  0.3688 -0.0909  0.1236
17394W        W33011   6.581  14.286  16.908 -0.0497 -0.1085  0.1228
17395W        W33012   4.394   9.982  15.015 -0.0435 -0.1560  0.0503
17396W        W33013   5.913   1.525   0.754 -0.2853  0.2563 -0.2020
17397W        W33014  16.698  13.550   5.612 -0.0714  0.0430  0.0008
17398W        W33015   5.725  15.453   5.513  0.3442 -0.1504  0.1567
17399W        W33016   2.237  16.976   4.743 -0.0641  0.0403  0.1712
17400W        W33017   7.753   2.213   6.334  0.1361 -0.3437  0.0441
17401W        W33018   9.540   8.662  12.908  0.5304  0.2158 -0.0314
17402W        W33019  10.153   4.770   5.946 -0.1230  0.0840  0.0614
17403W        W33020  10.614   0.118   4.992  0.1594 -0.2106 -0.1886
17404W        W33021   4.086   7.771   4.685 -0.2939  0.0709  0.2714
17405W        W33022  13.787   2.037   3.971  0.1466  0.1716 -0.3664
17406W        W33023   2.377  13.690  14.345 -0.1989  0.1727 -0.1452
17407W        W33024  14.947  16.311   1.572  0.1748 -0.1417 -0.1473
17408W        W33025  12.165   4.505   3.547  0.2051 -0.1289  0.2227
17409W        W33026   6.081   5.984   5.396 -0.0015  0.0353  0.0630
17410W        W33027   8.245  16.486   3.896  0.3842  0.2509 -0.1000
17411W        W33028   9.373  14.448   4.046  0.0771  0.0336  0.0781
17412W        W33029   3.762  15.497   0.152  0.0408  0.0937  0.1912
17413W        W33030   4.578   9.418   3.008  0.0154  0.2046  0.1059
17414W        W33031   4.933   8.911   1.262  0.2360  0.1698 -0.2069
17415W        W33032  15.783   8.476  15.023 -0.1155 -0.0657 -0.1689
17416W        W33033   3.054   8.831   4.472 -0.2812  0.1425  0.1101
17417W        W33034   6.886   2.883  17.264 -0.2419 -0.0930 -0.3202
17418W        W33035   7.389  10.394  13.886 -0.0174  0.3249 -0.0117
17419W        W33036   2.301  15.956   4.608 -0.1951 -0.1623  0.2489
17420W        W33037   2.490  16.625  17.038  0.1250 -0.0513  0.0823
17421W        W33038   1.279  13.671   6.174 -0.3255  0.0330  0.1228
17422W        W33039   8.677  10.891   1.081  0.0765  0.0619  0.0533
17423W        W33040   0.354   9.161   5.159 -0.1368 -0.0311 -0.0753
17424W        W33041   1.992   9.007  15.823 -0.1480  0.1112 -0.1323
17425W        W33042  13.230   3.706   0.922  0.1936  0.1250  0.0173
17426W        W33043   3.569   8.584   4.227  0.0746  0.0419  0.0499
17427W        W33044   9.343   7.664  12.805  0.1688 -0.0192 -0.2011
17428W        W33045   4.870  15.053   2.899 -0.3194 -0.2918  0.0790
17429W        W33046   2.128   3.054  16.913  0.0213 -0.0122 -0.2775
17430W        W33047  13.149  13.160   5.410  0.1059  0.1266  0.0472
17431W        W33048   5.990   9.224   2.655  0.1259  0.0787  0.0573
17432W        W33049   4.792   6.981   5.671 -0.0020 -0.1642 -0.1395
17433W        W33050   8.003  11.098  12.772  0.2700 -0.2789  0.0605
17434W        W33051  10.591   1.948   1.933  0.0803 -0.2270 -0.0878
17435W        W33052   6.710  15.961   3.435  0.2256 -0.1682  0.1324
17436W        W33053  13.482   5.710  15.470  0.1118  0.1007 -0.3859
17437W        W33054   4.220   3.978   0.839  0.2493 -0.0872  0.0002
17438W        W33055   2.619  11.269  16.490 -0.1097 -0.1804 -0.1958
17439W        W33056   9.769  16.188  11.120 -0.0323  0.0178 -0.1313
17440W        W33057   6.806  11.020   0.857 -0.0349  0.0910 -0.0947
17441W        W33058  11.607  12.556   3.946 -0.1066 -0.1527  0.0146
17442W        W33059   1.363   5.534   0.090 -0.0218  0.2151  0.1877
17443W        W33060   0.083   1.904   1.170  0.0083  0.0939 -0.0689
17444W        W33061   7.169  10.450   0.724 -0.1372 -0.0126 -0.0193
17445W        W33062   5.578  10.984   1.050  0.1566 -0.1667 -0.1911
17446W        W33063  16.303   5.625  17.201  0.0780  0.1320  0.1809
17447W        W33064   2.588   6.477   5.300 -0.0630  0.1520 -0.2470
17448W        W33065  10.507  16.498  12.721  0.0416 -0.0486 -0.2271
17449W        W33066   3.665   8.146  15.198 -0.3392 -0.1144 -0.2838
17450W        W33067   3.281   0.701  14.675 -0.0776  0.0805 -0.0162
17451W        W33068  12.620   9.834  12.486  0.0783 -0.0731 -0.0030
17452W        W33069   5.365   7.989   5.457 -0.1408  0.0684 -0.1294
17453W        W33070   5.244   0.600  12.314 -0.0234 -0.0052  0.0046
17454W        W33071  14.574   1.632   1.451 -0.1233 -0.0988  0.3185
17455W        W33072   3.582  14.285  15.868  0.4032 -0.1352  0.0074
17456W        W33073   7.311   6.240  16.881  0.0536  0.0952  0.0784
17457W        W33074   1.874  13.800  15.071  0.0301 -0.2612 -0.0584
17458W        W33075  16.219  16.660   5.652 -0.1878 -0.0602  0.2948
17459W        W33076   0.692   6.603   3.572 -0.2652 -0.2916  0.2305
17460W        W33077   7.708   4.134  15.280  0.0792  0.0027 -0.1367
17461W        W33078  13.729  10.112  13.301 -0.2161  0.0416  0.1701
17462W        W33079   9.471   5.593   0.037  0.1325  0.1200 -0.1498
17463W        W33080   9.248  11.252   5.290  0.1898 -0.1270  0.0877
17464W        W33081   6.452   9.664  12.717 -0.0136 -0.0823  0.1208
17465W        W33082   9.546   9.398  14.680  0.1434  0.1262  0.0698
17466W        W33083  13.113   5.737  13.385  0.1404 -0.1008  0.0455
17467W        W33084   6.798   9.504   5.490  0.0276 -0.0574  0.1894
17468W        W33085  11.984   7.134   4.196 -0.0367 -0.4875 -0.0146
17469W        W33086   1.587   7.461   6.014  0.2211  0.0213 -0.1674
17470W        W33087  14.555   2.959  16.264 -0.2153  0.3602 -0.0776
17471W        W33088   4.161  13.450   5.396  0.1438 -0.1598  0.2567
17472W        W33089   5.577   3.976   0.238  0.1980 -0.0151  0.3026
17473W        W33090  15.351   1.571   3.599 -0.1136 -0.3065  0.0628
17474W        W33091   6.877  11.862  13.689  0.3025  0.0321 -0.1883
17475W        W33092   6.427  11.908   5.384  0.1491  0.2792  0.1387
17476W        W33093  12.004  14.421   0.781 -0.1635  0.0647  0.1036
17477W        W33094  16.467  12.076  14.090  0.0801  0.3148 -0.2204
17478W        W33095  10.597  15.076  16.311 -0.0306 -0.0329  0.1046
17479W        W33096  12.560   9.697  13.851  0.1915 -0.0532 -0.1051
17480W        W33097   8.608  16.651  14.010 -0.0021  0.1476  0.3743
17481W        W33098  15.420   7.948   5.881  0.0114  0.1679 -0.2308
17482W        W33099   0.672   0.457   2.391  0.0990  0.0561  0.0601
17483W        W33100   9.006   7.186  14.204  0.1256  0.2349 -0.3656
17484W        W33101   2.422  15.699   3.716  0.0043 -0.0821  0.0634
17485W        W33102   4.411  14.340   3.094  0.1079  0.2427 -0.1634
17486W        W33103  14.352   4.787  16.868  0.2263 -0.1458  0.0111
17487W        W33104  10.551   0.735   0.131 -0.1054  0.2164  0.1782
17488W        W33105   3.071   7.547   5.030 -0.0167  0.0687 -0.0007
17489W        W33106   2.804   0.313   1.321 -0.2765 -0.0102 -0.0708
17490W        W33107   9.561   3.661  14.243  0.1146  0.0452 -0.1302
17491W        W33108  12.834   5.856   2.546  0.1549 -0.1027 -0.1374
17492W        W33109   3.931  15.012  15.500  0.1525  0.1035  0.0747
17493W        W33110   9.401   3.819   2.493  0.0516 -0.1481  0.0696
17494W        W33111   3.815   0.564  12.817 -0.0499 -0.2467  0.1443
17495W        W33112   6.752   1.005  13.111  0.2136  0.2240 -0.0557
17496W        W33113  14.160  14.327   3.664 -0.0607 -0.0740 -0.0118
17497W        W33114  11.606  17.305  13.862  0.1804  0.0825  0.0812
17498W        W33115   1.464   6.206   5.172  0.1273  0.1866  0.0111
17499W        W33116   6.549   2.709   3.230  0.1978  0.1191 -0.2074
17500W        W33117  10.759  15.063   0.508 -0.3303  0.3700  0.2190
17501W        W33118   1.253   0.146  12.167 -0.0588  0.0552 -0.2974
17502W        W33119   4.359  11.189   0.102 -0.1657 -0.0325 -0.2494
17503W        W33120  10.510   5.931   2.515 -0.0203 -0.0430  0.0532
17504W        W33121   8.226  15.015   4.166 -0.0649  0.2050  0.3056
17505W        W33122   6.192   2.942   5.892  0.0473  0.1723 -0.0699
17506W        W33123  13.086   6.942  13.494  0.1436 -0.2198  0.0713
17507W        W33124   8.999   1.633  14.938  0.0806  0.1922  0.0269
17508W        W33125  17.398  16.655   0.587  0.1505  0.2411 -0.0601
17509W        W33126  13.061  17.534  14.086 -0.1146 -0.1816  0.3572
17510W        W33127   5.227   6.362  11.958  0.0035 -0.1758 -0.2941
17511W        W33128  10.580  12.803  12.136 -0.0975 -0.2658 -0.3211
17512W        W33129  13.863   7.180   1.904  0.1209 -0.0810  0.0434
17513W        W33130   3.091   8.460   5.211  0.2688  0.0599  0.1511
17514W        W33131   6.361  11.484   5.076 -0.1428 -0.1358  0.1963
17515W        W33132   7.721   3.577   0.654  0.1295 -0.0118  0.0334
17516W        W33133   5.540  14.568  11.942  0.1519  0.0011 -0.3013
17517W        W33134   6.497  16.087   2.950 -0.0170  0.2518  0.2719
17518W        W33135   3.945  17.166  13.104 -0.1352  0.1504  0.0588
17519W        W33136   3.330   6.639  15.124 -0.0828  0.0869 -0.2738
17520W        W33137   5.053  16.111   0.713 -0.0335  0.1188  0.1140
17521W        W33138   8.297  14.403  16.891 -0.0342 -0.0193  0.0242
17522W        W33139  15.502  10.683  14.885 -0.0010 -0.2589 -0.2161
17523W        W33140  16.791   6.445  14.232 -0.1109  0.0711  0.1659
17524W        W33141  12.314  14.750  15.007 -0.1499  0.0126  0.2559
17525W        W33142   6.648   7.548  15.559  0.1423 -0.4126 -0.2698
17526W        W33143  14.441  11.383   0.595 -0.2735 -0.0577 -0.0094
17527W        W33144   1.721  12.500   0.401  0.1079  0.2064 -0.0269
17528W        W33145  10.523   7.463   2.670 -0.2525  0.0290 -0.3806
17529W        W33146   1.749   8.036   2.938 -0.3007 -0.2966 -0.1417
17530W        W33147  16.162   5.348   0.374  0.2245  0.1581  0.3314
17531W        W33148  16.213   2.415  13.923  0.3881  0.1562 -0.1331
17532W        W33149  13.840  13.746  16.049 -0.3374  0.1988  0.0418
17533W        W33150   1.616   3.503  14.574 -0.0374 -0.0235 -0.0258
17534W        W33151  10.575   2.262  16.145  0.2724 -0.2736  0.2166
17535W        W33152  11.738  12.717   3.001 -0.0991  0.0362  0.0493
17536W        W33153  14.105   5.601   0.810 -0.0859 -0.1895  0.0054
17537W        W33154   8.988   8.687   0.074 -0.0935  0.1965  0.0880
17538W        W33155   5.282  12.842   0.287  0.0745  0.2157  0.4385
17539W        W33156  11.664   1.421  11.682  0.0171  0.2252 -0.0560
17540W        W33157   2.178  16.598   3.362 -0.0382 -0.2541 -0.2658
17541W        W33158  17.054   8.732   1.180  0.0205 -0.2865 -0.1428
17542W        W33159   8.698  17.179   0.585  0.2129  0.2495  0.0140
17543W        W33160  10.073   1.170   0.673 -0.1119  0.4767  0.1215
17544W        W33161   1.906   8.516   0.704 -0.1729 -0.0119  0.0357
17545W        W33162   9.392   5.044   4.571  0.1050 -0.0653  0.1914
17546W        W33163   2.851  13.095   4.731  0.0353 -0.2553 -0.3966
17547W        W33164   1.325  10.965   3.737 -0.1216 -0.0337  0.2155
17548W        W33165  15.646  11.847   5.016  0.0611 -0.0383  0.2605
17549W        W33166  16.366  14.831   1.354 -0.1147  0.1238  0.1465
17550W        W33167   5.136   6.474   4.072 -0.1674  0.4139 -0.3150
17551W        W33168  16.145  16.601  15.396 -0.1211  0.3806  0.1096
17552W        W33169   3.994   7.635   0.774  0.0522 -0.2487 -0.0703
17553W        W33170   7.477   4.023   0.358  0.0690  0.3523  0.0220
17554W        W33171   8.694  10.723  15.298 -0.0994 -0.2961 -0.4295
17555W        W33172  11.673   0.253  14.513  0.1607  0.0083 -0.1051
17556W        W33173  16.775   9.101  13.948 -0.2489  0.1643 -0.2514
17557W        W33174   2.831   2.124   6.472  0.1582 -0.4439  0.0440
17558W        W33175   3.058  10.031   4.680  0.2967  0.0028  0.2063
17559W        W33176   7.690  16.200   1.100  0.0638  0.1706 -0.1793
17560W        W33177   7.609   2.760   5.775 -0.2266 -0.0519 -0.0831
17561W        W33178   7.842   6.082  12.059  0.0524  0.2322  0.0474
17562W        W33179   5.924  12.606  17.153  0.1735 -0.0356  0.0707
17563W        W33180   1.677   6.405  16.340 -0.0222 -0.0154  0.0459
17564W        W33181  16.730   9.594   5.377 -0.0014 -0.0752  0.0750
17565W        W33182   6.107   1.591   4.398 -0.0455 -0.0149  0.1357
17566W        W33183   2.084   3.522  15.663  0.2415  0.0782 -0.2242
17567W        W33184  17.252  15.343  14.486  0.2070  0.0529 -0.1533
17568W        W33185  11.332   2.924  15.593  0.2321  0.0573 -0.0257
17569W        W33186   1.001  12.975  16.102 -0.3236 -0.1062 -0.0690
17570W        W33187   5.563  13.206  13.132  0.0834  0.0313 -0.0448
17571W        W33188  16.961  13.724   3.383 -0.3185 -0.0332 -0.1279
17572W        W33189   9.579  15.194   5.371  0.1080 -0.0947  0.2267
17573W        W33190   7.774   8.276   1.384 -0.1011 -0.1173  0.1560
17574W        W33191  13.184  11.218   2.588  0.1772 -0.0180 -0.1694
17575W        W33192   1.723   6.055   3.386  0.2965  0.1330 -0.0118
17576W        W33193  12.085   7.850  11.550 -0.0851 -0.0048 -0.0693
17577W        W33194  16.138   5.387   4.795 -0.0610 -0.1372  0.3647
17578W        W33195  10.295   0.574  13.000  0.2680  0.2186  0.2791
17579W        W33196   6.712   7.017   5.491 -0.1938 -0.1445 -0.3988
17580W        W33197   3.602   7.935   5.549 -0.0316  0.1716 -0.3305
17581W        W33198  13.263  10.588   0.241  0.0092  0.1312  0.2295
17582W        W33199  11.729   4.656   1.016 -0.3132  0.2179 -0.0031
17583W        W33200   0.667   1.946  17.189  0.1769  0.3030  0.2311
17584W        W33201   6.454   2.249   3.358 -0.3993  0.1503  0.1926
17585W        W33202   7.723   2.118  14.987  0.5287 -0.0865  0.0487
17586W        W33203   3.477  14.261   4.412  0.2168 -0.1287 -0.1239
17587W        W33204   1.469   5.396  16.193 -0.0282  0.2681  0.4690
17588W        W33205  12.467   3.446  14.568 -0.1243  0.0922 -0.2838
17589W        W33206   5.479   3.326  13.734 -0.2132 -0.1905  0.0959
17590W        W33207  12.187   0.348   5.574  0.0541 -0.5240  0.2376
17591W        W33208   8.695  16.755  15.314  0.0840  0.1146  0.0986
17592W        W33209   2.962  17.114   2.523  0.0109  0.0965  0.0677
17593W        W33210   8.580  17.232  16.183  0.0156 -0.1442 -0.3517
17594W        W33211   0.532   6.720   5.821 -0.4920  0.1068  0.1590
17595W        W33212   9.130  11.097   0.978  0.1479 -0.2730  0.2148
17596W        W33213   0.926  15.130  14.336  0.0463  0.1848 -0.1441
17597W        W33214   8.861  11.746   1.469  0.3262 -0.0307 -0.0935
17598W        W33215  10.724   3.641   2.989  0.0698  0.0085  0.2008
17599W        W33216   7.509  14.137   0.995  0.0813 -0.1197  0.1862
17600W        W33217   1.018  16.865  16.286  0.3159 -0.0265  0.0555
17601W        W33218  16.198   4.470   5.395  0.3820  0.2390  0.1630
17602W        W33219   1.383   0.807  11.955 -0.0227  0.3433 -0.1524
17603W        W33220   4.888  12.686   1.757  0.1425 -0.3171  0.1322
17604W        W33221   3.190   9.304   0.866  0.0692  0.1382 -0.0473
17605W        W33222  10.824  16.087  12.244  0.0874 -0.0785 -0.1173
17606W        W33223   1.178  13.416   3.563 -0.3882  0.1783  0.1048
17607W        W33224  15.830   9.122   1.934 -0.3428 -0.0776  0.0323
17608W        W33225  15.119  13.446   4.655  0.0095  0.0853  0.0235
17609W        W33226   1.346  13.223   1.202  0.0258  0.2020  0.2035
17610W        W33227   9.404  10.336   2.595 -0.1474  0.0289  0.0562
17611W        W33228  13.253  15.844  14.339  0.0719  0.1517  0.2029
17612W        W33229   5.241  17.204   0.039  0.0770  0.3833 -0.4296
17613W        W33230  16.509   8.295   2.595 -0.0900 -0.0201  0.1727
17614W        W33231   5.856   5.389  14.057 -0.2178  0.0379 -0.0243
17615W        W33232   6.180  13.779  16.285 -0.0097 -0.0278 -0.0802
17616W        W33233  15.743   5.481   4.488 -0.2686 -0.0466 -0.1568
17617W        W33234   7.703   9.863  16.765 -0.2818 -0.1485 -0.1743
17618W        W33235  17.351  17.258   3.794  0.1281 -0.0540 -0.2441
17619W        W33236   9.750  14.800   4.104  0.1744 -0.0192  0.1962
17620W        W33237   9.432   7.732  16.516 -0.2098  0.3575  0.0937
17621W        W33238  17.617   5.893   4.907 -0.0817  0.1860  0.2867
17622W        W33239  13.427   0.798   4.037 -0.3270  0.1435  0.1108
17623W        W33240  13.011  15.530   0.737  0.1275  0.0229  0.1353
17624W        W33241   0.082  12.762   1.866  0.0941 -0.0497 -0.1588
17625W        W33242  14.791  13.164  17.040 -0.0470 -0.1393 -0.2077
17626W        W33243   4.554   8.300  15.747  0.0534  0.1914 -0.0789
17627W        W33244   0.302  12.194   4.056  0.1925  0.1602 -0.0274
17628W        W33245  14.629   7.428  13.168 -0.1815  0.0657 -0.1558
17629W        W33246  16.835   8.104  17.087 -0.1602  0.3862 -0.0775
17630W        W33247   8.778   1.324  14.600 -0.0320 -0.1386  0.1847
17631W        W33248   7.341   3.427  15.142 -0.1067 -0.0671  0.1783
17632W        W33249   1.106   5.685  12.776 -0.1394 -0.1330 -0.1579
17633W        W33250   6.391  17.145  14.882  0.0970  0.5785  0.3035
17634W        W33251   6.624   1.245  14.639  0.1694  0.1425 -0.0327
17635W        W33252  10.527   2.204  13.552  0.1248  0.2727 -0.0321
17636W        W33253  16.702  17.367   5.502 -0.1375 -0.0353 -0.3071
17637W        W33254   0.308   7.145  13.201 -0.0322  0.0752 -0.0174
17638W        W33255   3.790  13.629  12.340 -0.1677  0.2025 -0.1102
17639W        W33256  16.413   0.880  14.557 -0.1573 -0.2145 -0.1157
17640W        W33257   5.852   3.024   3.504  0.0215  0.0754 -0.3400
17641W        W33258  13.254   7.992   0.080  0.0980  0.0365  0.1365
17642W        W33259  10.394   0.396  16.365 -0.1048  0.0076 -0.2227
17643W        W33260   3.989  10.045  14.080  0.1344 -0.0204 -0.0320
17644W        W33261   9.174  13.096  15.415  0.2290  0.2604 -0.2058
17645W        W33262  13.401  10.227  12.957 -0.0202 -0.1586 -0.1704
17646W        W33263   3.971  10.775   4.621 -0.2528 -0.3100 -0.0086
17647W        W33264  14.528  17.538  13.969 -0.0929  0.1286 -0.2716
17648W        W33265   3.239   6.989   3.587  0.2384 -0.0540  0.0627
17649W        W33266   1.207  13.491   2.177 -0.1774 -0.1030  0.2142
17650W        W33267  10.253   7.761  12.183  0.3094 -0.3323  0.2376
17651W        W33268  12.228  17.029   5.301  0.0953  0.0196  0.3352
17652W        W33269  16.000  13.213   2.738  0.0993 -0.0929  0.2406
17653W        W33270  13.191  15.187   5.088 -0.0169  0.1139 -0.0115
17654W        W33271   0.247  11.712   4.287  0.0152  0.0236  0.0341
17655W        W33272   4.582  13.152   1.912  0.0041  0.4001  0.0459
17656W        W33273  11.900  15.650   0.945  0.3544  0.1964  0.0835
17657W        W33274   8.794  12.772   5.377  0.0711 -0.0323 -0.0708
17658W        W33275   2.267  14.834   3.313 -0.2594 -0.0580  0.1754
17659W        W33276  13.633   0.291   4.582 -0.2030  0.2942 -0.2380
17660W        W33277  13.815  15.766   2.186 -0.1217  0.1452  0.0756
17661W        W33278  10.160  13.286   5.249  0.0266 -0.0266  0.2290
17662W        W33279   1.114   6.790   3.784 -0.1552 -0.2284  0.0046
17663W        W33280   7.261   3.157   1.322 -0.0158  0.0807 -0.0216
17664W        W33281   3.268  10.096   1.000 -0.0461 -0.2883  0.0275
17665W        W33282   9.162   0.346  16.316 -0.1021  0.0050 -0.0712
17666W        W33283  12.367   3.288   3.821  0.1089  0.2429 -0.1398
17667W        W33284  17.577  16.302   5.469  0.4415 -0.1096  0.0650
17668W        W33285   5.843  11.433   1.007 -0.1933 -0.1526  0.1841
17669W        W33286   2.583   2.188  15.690  0.0219 -0.0406 -0.0107
17670W        W33287  16.338  17.409   2.117  0.2266 -0.1514 -0.0640
17671W        W33288  13.375   0.027  17.019  0.2164 -0.1022  0.1041
17672W        W33289   5.536  11.300   0.294  0.3513 -0.2442  0.0149
17673W        W33290   6.592  10.188  15.203  0.0080  0.0935  0.1344
17674W        W33291   6.844  10.278  17.236  0.2004  0.1551 -0.1799
17675W        W33292   7.620   5.651  12.318 -0.1326 -0.2150  0.1715
17676W        W33293   4.984   9.128   3.822 -0.2684 -0.3789 -0.2632
17677W        W33294  13.956  17.566  10.899  0.0315  0.1878  0.0520
17678W        W33295  14.637   3.867  17.024 -0.2535 -0.0125 -0.0055
17679W        W33296  10.242   9.006  14.512  0.0670 -0.0611 -0.0066
17680W        W33297   3.381  13.990   3.213  0.0362 -0.2326  0.1455
17681W        W33298   2.380  14.557  16.522 -0.3417 -0.2222 -0.0183
17682W        W33299   5.928  10.290  14.016  0.0304 -0.1148 -0.0256
17683W        W33300   9.007  16.144  12.319  0.0662 -0.1906  0.1551
17684W        W33301   2.741  12.798  16.513 -0.0402 -0.1794  0.2672
17685W        W33302   2.240  14.860  13.215  0.0709 -0.3126 -0.0834
17686W        W33303  16.958   6.257   5.879  0.1156 -0.0128 -0.0151
17687W        W33304  11.864   3.333   2.608  0.0637 -0.0903  0.0945
17688W        W33305  17.194   4.749  13.706 -0.1176 -0.0079  0.2852
17689W        W33306  15.870   4.327   1.019  0.1667 -0.3563  0.1384
17690W        W33307  11.174   6.779  12.765  0.0185 -0.1152  0.0394
17691W        W33308   0.659   8.709   3.632 -0.2928  0.1935  0.1588
17692W        W33309  14.614  13.405   3.827 -0.2030 -0.1574  0.0401
17693W        W33310   0.715  14.294  13.925 -0.1245 -0.0392 -0.1783
17694W        W33311   0.613   3.821   1.915 -0.1611 -0.1807  0.3895
17695W        W33312   3.234   8.499   3.780  0.2855 -0.0749 -0.0370
17696W        W33313  10.097   5.694  16.206  0.1627  0.0630  0.1301
17697W        W33314   3.232   9.584   1.281  0.3650 -0.1712  0.0473
17698W        W33315  16.406  12.487   2.461 -0.0103 -0.0754 -0.1327
17699W        W33316  16.937   8.683   0.098  0.1530 -0.3301  0.1659
17700W        W33317  15.686   2.659   4.649 -0.0396 -0.1605  0.1113
17701W        W33318   1.733   3.742   0.577  0.1117  0.0975  0.0823
17702W        W33319  13.222   6.659   0.158  0.1347 -0.0442  0.0873
17703W        W33320  14.938  12.689  16.931  0.1510  0.5905  0.1417
17704W        W33321   2.793  16.004   2.616  0.0393 -0.2388 -0.0872
17705W        W33322   0.894  13.451   4.571 -0.2379  0.1420  0.2050
17706W        W33323   1.409  15.364  14.474  0.1388  0.3247  0.1752
17707W        W33324   7.699  11.593   1.642 -0.0865  0.1055 -0.0872
17708W        W33325   0.545   2.018  13.797 -0.0919 -0.0331  0.1159
17709W        W33326  12.292  12.402  16.845 -0.1497  0.1065  0.2427
17710W        W33327  14.045   6.305   1.405 -0.0420  0.0583 -0.1047
17711W        W33328   7.299  10.765  17.255  0.1846  0.2207 -0.0744
17712W        W33329  12.318  15.539  17.065 -0.1492  0.0679 -0.1515
17713W        W33330  14.417   5.772  14.705 -0.0606  0.0937  0.2204
17714W        W33331  15.482  15.171  12.210 -0.0439  0.1294  0.2601
17715W        W33332   1.304  12.385   0.708  0.1537  0.1164  0.0895
17716W        W33333   1.876   4.244  16.461 -0.0997  0.1732 -0.0389
17717W        W33334   4.382   3.368   2.569  0.2355  0.2927  0.0964
17718W        W33335   3.464   6.115   3.906  0.1011 -0.0330 -0.0766
17719W        W33336   0.753   2.572   5.148 -0.2391  0.0373  0.0942
17720W        W33337   2.747  15.239  14.032  0.1112  0.0833  0.0595
17721W        W33338  13.607   0.060   0.176 -0.3119  0.1370  0.1146
17722W        W33339   6.232   1.368   5.142  0.1897  0.0139  0.0393
17723W        W33340  15.002   5.292   5.070  0.0494  0.0448  0.2777
17724W        W33341  10.297  10.705   2.699  0.0795  0.1824 -0.0529
17725W        W33342   8.358  10.396   5.114 -0.2651  0.0271 -0.1986
17726W        W33343   5.527   7.597   6.267  0.2051  0.1541 -0.1291
17727W        W33344   0.210   4.565  14.455  0.1069  0.0185 -0.1832
17728W        W33345  10.925   3.386   3.986 -0.0508 -0.1492 -0.0430
17729W        W33346  12.131   5.091  14.202 -0.0134 -0.3242 -0.1563
17730W        W33347   3.032  16.785  11.467  0.4369 -0.1663  0.1520
17731W        W33348  10.503  11.442   5.797  0.2969 -0.0797  0.2825
17732W        W33349   6.967   8.882  16.573  0.1424  0.2949  0.0680
17733W        W33350  12.451  16.863  15.510 -0.3135  0.1629 -0.0405
17734W        W33351   3.207  15.398  11.444 -0.1717 -0.0684  0.1015
17735W        W33352   6.956   9.374   0.057 -0.0297  0.0737 -0.1600
17736W        W33353  11.678  13.249  12.474 -0.2691  0.0987  0.0548
17737W        W33354   6.689  16.078   2.420 -0.0290  0.2861 -0.3065
17738W        W33355   8.677   9.313  14.100  0.3070 -0.1691 -0.1091
17739W        W33356  13.357   8.901   6.761  0.2975 -0.2827 -0.4350
17740W        W33357   1.942   2.612  16.724  0.1462 -0.1067  0.1072
17741W        W33358  15.977   8.351   5.041 -0.4944  0.2653  0.1333
17742W        W33359  15.524  12.813  13.854 -0.2369  0.0848  0.1646
17743W        W33360   6.076   0.326   2.135  0.3836  0.0116 -0.0506
17744W        W33361   8.497   2.101  17.110 -0.0448 -0.1343 -0.2656
17745W        W33362  12.728  14.853  11.371  0.0020 -0.2089 -0.1966
17746W        W33363   8.355   6.745  16.083 -0.4646 -0.0559  0.1269
17747W        W33364  15.262  10.764   2.725  0.2611 -0.0902 -0.0608
17748W        W33365  10.165  10.489   0.295 -0.3915 -0.1836 -0.1693
17749W        W33366   2.100  13.031   4.376  0.3417 -0.0499  0.1631
17750W        W33367   5.294  14.902  15.589 -0.2744  0.2847 -0.0007
17751W        W33368  14.420   5.957  15.187 -0.0989 -0.0593  0.2756
17752W        W33369  13.161   1.898  16.991  0.0082  0.0092 -0.2227
17753W        W33370  11.269  14.085   3.519  0.0152 -0.1203 -0.1446
17754W        W33371   7.335  12.997   4.368  0.0179 -0.0302 -0.0190
17755W        W33372   7.250   0.253  12.036 -0.1396  0.2218  0.0557
17756W        W33373  11.364  12.585  13.057 -0.1442  0.1055 -0.0409
17757W        W33374  15.693   9.655   5.616 -0.0094 -0.2435 -0.0002
17758W        W33375   2.212   6.537   6.501 -0.0620  0.0063  0.1676
17759W        W33376   8.143  16.426   1.779  0.0820 -0.0059  0.2305
17760W        W33377  10.657   2.773  16.799  0.0690  0.3036 -0.0291
17761W        W33378  13.101   4.390   5.872  0.1688 -0.0365  0.2104
17762W        W33379   2.472  11.647   5.415 -0.0809 -0.0141  0.0755
17763W        W33380  17.342  10.323   1.944 -0.0783  0.4266 -0.2649
17764W        W33381  15.616   6.282  14.249  0.0818  0.3504  0.0203
17765W        W33382  17.555  14.483   4.447 -0.0397 -0.0641  0.1920
17766W        W33383   9.847   4.771   0.291  0.0337 -0.0274  0.0055
17767W        W33384  17.371  11.098   3.687  0.0040 -0.0484 -0.1988
17768W        W33385  16.068   0.694   5.949  0.0042  0.1812  0.1552
17769W        W33386  16.703   0.525  14.335  0.2005  0.0051  0.1039
17770W        W33387   7.557   0.195   1.661  0.1937 -0.1095 -0.1030
17771W        W33388   7.762  12.738   2.239  0.0281 -0.1742  0.1029
17772W        W33389   8.454  13.838   1.819  0.0363 -0.1316  0.3965
17773W        W33390   2.379  12.642  16.883  0.0539  0.0135  0.2761
17774W        W33391   1.274  12.504   3.373 -0.0438  0.0193  0.0612
17775W        W33392   9.669  16.529  14.526 -0.0386  0.0771 -0.1307
17776W        W33393  12.397   4.039  12.957 -0.1397  0.3823  0.1424
17777W        W33394  16.677  16.434   5.619 -0.0130 -0.0959 -0.0481
17778W        W33395   0.194  13.810   0.131  0.1940 -0.0718 -0.2137
17779W        W33396  10.070   9.742  13.822  0.1118 -0.1609 -0.2473
17780W        W33397   9.096   6.954   4.578  0.1430  0.0532 -0.0249
17781W        W33398   9.498   1.925   3.201 -0.0026 -0.1568  0.0319
17782W        W33399   1.155  15.218  16.031  0.2524  0.3079  0.3219
17783W        W33400  10.634   7.742  16.895 -0.0787 -0.0461  0.2301
17784W        W33401   7.358   9.327   5.366  0.0079  0.3233 -0.1199
17785W        W33402  13.593   4.791  15.403 -0.0123 -0.0911 -0.4289
17786W        W33403   1.444   5.328  13.359  0.2000 -0.0371 -0.0622
17787W        W33404   9.320   5.155   4.021 -0.2279 -0.2566  0.1208
17788W        W33405  13.581  12.183   0.786 -0.0424  0.3656  0.3432
17789W        W33406  13.155   3.826  11.567 -0.1693 -0.0255 -0.1322
17790W        W33407   3.868  10.861   0.853  0.0053 -0.2600 -0.1233
17791W        W33408   6.013   3.517  16.101  0.1106 -0.2738 -0.2020
17792W        W33409   7.468   0.943  11.629  0.0558 -0.0238 -0.2454
17793W        W33410   9.724  14.700  11.654 -0.1062 -0.2654  0.2692
17794W        W33411  11.959   2.624   3.619  0.1264  0.1968  0.0146
17795W        W33412   2.434   2.874   3.405 -0.1092 -0.5121 -0.2132
17796W        W33413  17.306   5.735  16.338 -0.0739 -0.0459  0.5171
17797W        W33414  13.411   3.302   5.081 -0.0404  0.2357  0.0568
17798W        W33415  10.422  14.987  16.836  0.0121  0.3012 -0.0608
17799W        W33416  15.480   9.972  11.965 -0.3225 -0.1034 -0.0331
17800W        W33417   1.138   5.398  13.800 -0.2288 -0.0323  0.0648
17801W        W33418  16.580  13.453   3.531 -0.0359 -0.0347  0.2565
17802W        W33419  12.099  14.353  16.452  0.0834 -0.0881  0.0615
17803W        W33420  13.825   2.883   4.570 -0.0859 -0.0840  0.2717
17804W        W33421   8.662  14.758  16.430 -0.2330  0.0961  0.1211
17805W        W33422   7.743  14.345  11.298  0.0964  0.4214  0.1074
17806W        W33423   7.414   8.711  13.896 -0.0076  0.0119 -0.1160
17807W        W33424   4.980  13.095   5.073  0.3116 -0.1710 -0.1884
17808W        W33425   9.729  11.774  12.667 -0.0136  0.0741 -0.0255
17809W        W33426   9.094  13.922  14.921  0.3298  0.2456 -0.2247
17810W        W33427   9.141  11.519   3.398 -0.2964  0.0159 -0.0892
17811W        W33428   3.273  14.724   5.155 -0.2072  0.2485  0.1265
17812W        W33429   4.760  12.170  13.246 -0.0967 -0.2125 -0.1464
17813W        W33430  10.204  13.953   5.259 -0.0964 -0.0634  0.1720
17814W        W33431   5.349   0.766  15.728 -0.1581 -0.1778 -0.1486
17815W        W33432   0.089  13.478   2.905  0.0071  0.0010 -0.0405
17816W        W33433   5.926   5.188   0.070  0.2312 -0.3126  0.2429
17817W        W33434  15.081   2.223   1.040 -0.2870  0.4130  0.3910
17818W        W33435   1.342   5.111   3.776 -0.0076  0.1718 -0.1250
17819W        W33436   8.599   1.528   0.617 -0.1583 -0.0074 -0.0443
17820W        W33437   2.614  10.462   4.584  0.0431  0.1253  0.1642
17821W        W33438  15.311  10.791   1.613  0.0296 -0.2079  0.0731
17822W        W33439   8.364  15.168   3.670 -0.1038 -0.0121  0.1809
17823W        W33440  16.975   3.155  16.726 -0.0816 -0.0421  0.0048
17824W        W33441   0.099   5.821   3.719 -0.1778  0.1799  0.1615
17825W        W33442  12.821   4.601  16.090  0.0807 -0.2741  0.0036
17826W        W33443   8.263  10.034   2.034 -0.1851  0.1181 -0.1280
17827W        W33444  10.146  16.054   4.937 -0.0593  0.1108  0.2173
17828W        W33445  15.341   4.980  12.306 -0.0415  0.0078 -0.0221
17829W        W33446  13.629  13.337   0.534  0.0954 -0.1752 -0.1322
17830W        W33447   7.512  16.255  14.595 -0.1074  0.1047  0.0253
17831W        W33448  13.003  10.830  16.998  0.0521 -0.2675 -0.3550
17832W        W33449   8.661   0.029  13.904  0.1857  0.1015  0.1022
17833W        W33450   9.401   8.949  13.328  0.1917  0.1629 -0.0033
17834W        W33451   7.902   4.888  12.766 -0.6106 -0.2425  0.0218
17835W        W33452   1.710   8.266  16.281 -0.2651  0.2143  0.0771
17836W        W33453   1.142  14.419   4.607 -0.0594  0.0827  0.1277
17837W        W33454  16.881  13.087  15.936  0.1295  0.0869  0.3470
17838W        W33455   1.038   4.723   5.602  0.0627  0.2431  0.2318
17839W        W33456   7.558   6.465   2.439 -0.2794  0.2449  0.0571
17840W        W33457   5.907  17.521  16.314  0.2748  0.0515 -0.0051
17841W        W33458  16.569  13.077  11.806  0.0592  0.0264 -0.2722
17842W        W33459   9.636   5.865   4.553 -0.0237 -0.2112  0.1982
17843W        W33460   5.113   9.419  12.354  0.1433 -0.0580  0.1842
17844W        W33461  12.286   1.716  14.166 -0.1452 -0.1733  0.0546
17845W        W33462   6.381   1.560  15.545  0.0360  0.0202 -0.0752
17846W        W33463   3.910   4.403  15.840  0.2424  0.0517 -0.1191
17847W        W33464   3.121  11.954  12.356 -0.4031  0.0143  0.2321
17848W        W33465   6.306  12.797   1.169  0.1350 -0.0022 -0.0619
17849W        W33466   9.524   4.536  12.710 -0.1830  0.2352  0.0052
17850W        W33467   3.561  10.685  15.747 -0.0574  0.2096  0.5955
17851W        W33468   4.579  12.442   1.400  0.2600  0.2926 -0.0743
17852W        W33469  17.023   4.245   5.246  0.1714  0.2020  0.1280
17853W        W33470   2.737  15.817  16.518 -0.1501 -0.0278  0.0348
17854W        W33471   6.902   6.494  13.713 -0.1557 -0.0137  0.1188
17855W        W33472   7.095   6.781   0.275 -0.0990  0.3357 -0.1176
17856W        W33473   6.273   6.405   5.013 -0.1271  0.0190 -0.0446
17857W        W33474  13.568   7.238  12.611 -0.1697  0.0409  0.3073
17858W        W33475   9.022   9.114   3.295  0.1525 -0.0758  0.1254
17859W        W33476   2.705  16.996   3.648 -0.0043 -0.1969  0.2522
17860W        W33477  10.283   3.959  13.468  0.0062 -0.0221  0.1050
17861W        W33478   4.948   1.001   3.371 -0.3476  0.1933 -0.0371
17862W        W33479   6.635   8.730   5.833 -0.2774  0.1257 -0.2528
17863W        W33480  16.283   8.314   6.076  0.1107  0.1068  0.1134
17864W        W33481  16.627   9.990  12.852  0.1293  0.1067 -0.0749
17865W        W33482   5.523   6.384   6.100  0.0615  0.0744 -0.2589
17866W        W33483   4.163   1.611  16.773  0.2698  0.1669  0.1361
17867W        W33484  15.914   7.703   3.234 -0.0485  0.3296 -0.1014
17868W        W33485   6.161  11.290  12.869  0.1341  0.1217 -0.0077
17869W        W33486   4.029   8.793   5.107 -0.0567  0.1062 -0.2791
17870W        W33487   0.132   7.155   0.382 -0.3435 -0.1878 -0.0003
17871W        W33488   5.649   9.706  16.071 -0.0210 -0.0626 -0.3384
17872W        W33489   5.143  16.344  12.487  0.1574 -0.1806 -0.2104
17873W        W33490   1.568   7.630  14.462 -0.1747 -0.2268  0.1419
17874W        W33491  12.856  15.791  14.715  0.1313  0.1551  0.1813
17875W        W33492  11.713  12.571   0.801 -0.2477  0.0746  0.0119
17876W        W33493   5.487  15.832  15.232 -0.0008  0.4171  0.0564
17877W        W33494  16.223   8.560   5.625 -0.0234 -0.1350  0.1082
17878W        W33495  17.162   7.687  12.868 -0.0164  0.0814  0.0682
17879W        W33496   5.688  12.461  13.967 -0.2563  0.1889 -0.0343
17880W        W33497   2.729  13.464   0.040 -0.1532 -0.3245 -0.1763
17881W        W33498  14.878  15.991  13.588  0.3993 -0.0222 -0.2518
17882W        W33499  15.295   1.874   1.974  0.0005  0.0594  0.1282
17883W        W33500   7.759   5.593   6.017  0.1263 -0.0573  0.0704
17884W        W33501   8.901  15.495  12.636 -0.1836 -0.1685  0.0025
17885W        W33502  15.556   6.135   3.503  0.2157  0.3480 -0.0301
17886W        W33503   2.842   0.054  13.985  0.2248  0.0110  0.0255
17887W        W33504  16.282   1.322  13.917 -0.0016  0.0398 -0.0807
17888W        W33505  10.962   9.701   3.553  0.0959 -0.0937  0.0979
17889W        W33506   6.895   8.247   0.821 -0.1419  0.1462 -0.1853
17890W        W33507  16.719   5.072  16.247  0.1677 -0.4596 -0.0587
17891W        W33508  17.565   2.037  15.932  0.2800 -0.3436  0.2418
17892W        W33509  13.930  14.856   3.734 -0.0863  0.0147 -0.1658
17893W        W33510  11.968   1.436  14.975 -0.2636  0.2320 -0.1323
17894W        W33511   3.666  13.814   4.624 -0.1841  0.1012  0.3330
17895W        W33512  16.054   7.790   0.683 -0.3023 -0.1321  0.0165
17896W        W33513  13.579  14.866  16.294 -0.1137  0.1012 -0.0912
17897W        W33514   7.537  16.155   5.600  0.1502 -0.0725 -0.3991
17898W        W33515   7.106   2.957   4.950  0.1225 -0.1743  0.1127
17899W        W33516   2.617  16.384  13.122 -0.1027  0.1266 -0.2299
17900W        W33517   4.067   7.696  12.404 -0.2565 -0.1230  0.0563
17901W        W33518  16.997  10.668   1.543 -0.1637 -0.1691 -0.0248
17902W        W33519   7.003   9.701  14.372  0.1529  0.0520 -0.2147
17903W        W33520  13.256   1.497  13.483 -0.0723  0.0140  0.2442
17904W        W33521   5.464  13.477   0.940 -0.0147 -0.0665  0.3337
17905W        W33522   5.724   7.204   6.523  0.2209  0.1823 -0.4079
17906W        W33523   5.294  15.764   5.505  0.1036  0.2668  0.2493
17907W        W33524  12.517   1.815   1.266  0.1470 -0.0907 -0.5530
17908W        W33525   0.309   9.755  16.369  0.0297 -0.2379  0.0247
17909W        W33526   4.664  10.211  16.995  0.0479 -0.2175 -0.0105
17910W        W33527  10.146  11.842   1.848 -0.0706 -0.2092  0.1602
17911W        W33528   6.559  13.356   0.199 -0.0034 -0.0962  0.1440
17912W        W33529   5.567  15.804   1.746  0.0795 -0.1518 -0.1103
17913W        W33530   0.167  16.623  16.365 -0.0229 -0.1219  0.2657
17914W        W33531   2.965   0.619   0.129 -0.0188  0.1616 -0.0399
17915W        W33532  10.315  11.501   4.094  0.3953  0.1737  0.0472
17916W        W33533   3.668   9.513   4.045  0.3318  0.0717  0.1574
17917W        W33534  12.456   2.757   3.547 -0.1992  0.1916 -0.2189
17918W        W33535  13.752  12.975  15.627  0.0025  0.0080 -0.1265
17919W        W33536  17.072   7.919  12.209  0.0290 -0.0121 -0.0575
17920W        W33537   8.266   9.071  16.816  0.3129 -0.0176 -0.1097
17921W        W33538  11.708   1.151  16.020  0.1579  0.0344 -0.1218
17922W        W33539  14.718  11.636   0.261  0.1162  0.3434  0.2160
17923W        W33540  12.568   7.365   0.938  0.3159  0.3186 -0.0079
17924W        W33541   6.396  11.939  14.467  0.0481  0.1705 -0.0909
17925W        W33542   2.326  15.172   4.053 -0.0831 -0.0264  0.2358
17926W        W33543   6.037   5.342   2.681  0.1443 -0.0065  0.0666
17927W        W33544   8.523   7.931  12.485  0.3091  0.1333 -0.2059
17928W        W33545  11.855  13.737  12.666  0.1845  0.0596 -0.3285
17929W        W33546   4.191  11.379   1.632 -0.0802  0.1433  0.0116
17930W        W33547  10.523  14.703   1.505 -0.0696 -0.0703  0.0934
17931W        W33548  15.712   2.640   1.573  0.0623  0.0980  0.0237
17932W        W33549  15.723   5.631   0.523 -0.0379 -0.0967  0.1031
17933W        W33550  17.468   9.551   1.210 -0.0232 -0.0535 -0.1652
17934W        W33551  15.280   3.672  14.526  0.1932 -0.1811 -0.0555
17935W        W33552   2.881   5.979  16.956  0.1473 -0.1614  0.1545
17936W        W33553  14.663   0.761  16.679 -0.1312  0.1204  0.1444
17937W        W33554   8.709  15.279  12.066 -0.1854 -0.1846 -0.0842
17938W        W33555   5.759  10.936  12.838 -0.1574  0.0990  0.1618
17939W        W33556  13.985   6.834   3.639 -0.0419 -0.1946  0.0920
17940W        W33557  11.489  12.500  11.834  0.2856 -0.2193 -0.0557
17941W        W33558   0.528   8.184  13.077 -0.1799  0.0761 -0.0365
17942W        W33559  15.627  13.229   3.547 -0.1549  0.4448 -0.0140
17943W        W33560   6.659   5.015   5.152 -0.2008  0.0293  0.0523
17944W        W33561   1.344  11.895  13.290  0.2372 -0.1415 -0.0535
17945W        W33562  11.910  14.092  13.518  0.1523 -0.2932 -0.0221
17946W        W33563   2.397   0.594   5.094  0.2364  0.1930 -0.2981
17947W        W33564   2.738   9.617   2.169 -0.0567 -0.0607  0.1880
17948W        W33565   3.033   5.637  17.260  0.0892  0.2487  0.1416
17949W        W33566   6.162  10.829  11.669 -0.0891 -0.0873  0.0989
17950W        W33567   2.755   6.924   3.162  0.0336  0.2919  0.2997
17951W        W33568  15.783   6.636   1.924  0.0077 -0.1169 -0.1126
17952W        W33569  13.592  17.152  13.663  0.1316 -0.2941 -0.2008
17953W        W33570   6.056   5.483   1.741  0.0721  0.0581  0.0894
17954W        W33571  17.019   7.800   3.551  0.2428  0.0722  0.0316
17955W        W33572   5.060   3.952   2.288 -0.8473  0.1778 -0.1828
17956W        W33573  12.246  16.525   1.571  0.3283  0.0407  0.3287
17957W        W33574  14.081  17.054  12.231  0.1835 -0.0264  0.1284
17958W        W33575  10.164   5.295   0.745 -0.0884 -0.3965  0.0494
17959W        W33576   7.922   4.143   2.269  0.1088  0.2683 -0.1334
17960W        W33577   4.600  10.557  13.870  0.0977  0.0141 -0.0351
17961W        W33578   8.422   3.906  12.862 -0.0523 -0.2958 -0.0335
17962W        W33579  13.140  15.578  15.719 -0.0945  0.3460 -0.0033
17963W        W33580   5.436  14.736  16.964  0.0855  0.5104  0.0258
17964W        W33581   1.250   0.027   2.321 -0.0808  0.2202  0.0570
17965W        W33582  13.681  15.122  12.124 -0.2168  0.0848 -0.2205
17966W        W33583  12.974  16.694  16.469 -0.0513 -0.2086 -0.0844
17967W        W33584  12.874   4.956  14.521  0.1333  0.1204 -0.1517
17968W        W33585   5.849  16.035  17.190 -0.0779 -0.0117  0.0237
17969W        W33586  11.884  16.562  13.276 -0.2968 -0.1852 -0.1024
17970W        W33587   2.780   2.414   5.208 -0.0716 -0.1217  0.2142
17971W        W33588   0.183   3.211   1.503  0.1604 -0.1583 -0.1402
17972W        W33589   5.296   2.956   2.120 -0.0071 -0.2437 -0.2742
17973W        W33590   0.986  14.323  11.651 -0.2261 -0.3816  0.2525
17974W        W33591   6.408   1.993  13.126 -0.1388  0.5592  0.1773
17975W        W33592  16.331  14.848   5.158 -0.1756  0.0556 -0.2246
17976W        W33593   3.244   7.268  12.335 -0.0810  0.4402  0.1881
17977W        W33594   4.846   7.423   6.080 -0.2326 -0.0411 -0.2521
17978W        W33595   2.598   6.734   4.138 -0.2665 -0.1554 -0.2643
17979W        W33596   9.655  12.546   6.285  0.2508 -0.2479 -0.1371
17980W        W33597  10.640   4.455  16.364  0.0680  0.0055 -0.0273
17981W        W33598   8.436   2.115   2.588 -0.1539  0.1525 -0.0618
17982W        W33599  11.491   0.498   5.286  0.1674  0.2643  0.1472
17983W        W33600   1.618  13.322   1.675  0.1903 -0.1887  0.0113
17984W        W33601   7.293  16.108  11.550 -0.1685  0.0468  0.0373
17985W        W33602  14.165   6.389   4.263  0.0432 -0.0197 -0.1218
17986W        W33603   3.445   6.211  15.500  0.1922 -0.1381  0.0528
17987W        W33604  13.120   6.809   4.979  0.1967  0.1139  0.0875
17988W        W33605  14.063   3.136  11.816 -0.1936  0.1175 -0.1845
17989W        W33606  16.311   8.405   2.022 -0.0944 -0.0025  0.1016
17990W        W33607  10.457  10.139   3.936  0.0693  0.2638 -0.0400
17991W        W33608  13.683   1.754  12.227  0.0150 -0.2244  0.3287
17992W        W33609  15.980   6.196   2.172 -0.2540  0.3601  0.0698
17993W        W33610  12.635   9.088   1.124  0.3235  0.3202  0.2163
17994W        W33611  16.803   6.123   5.202 -0.2660  0.1488 -0.1577
17995W        W33612  11.885   2.964   0.378 -0.1176 -0.1077  0.1476
17996W        W33613   4.976  10.646  16.567  0.0189  0.3839 -0.1266
17997W        W33614   7.910  10.021  12.025  0.2157 -0.0319 -0.0706
17998W        W33615   9.454   6.107   3.046  0.1107  0.0519 -0.2719
17999W        W33616  14.862   4.662  14.556 -0.0824  0.2432 -0.4335
18000W        W33617   4.658   3.392  17.169 -0.0758  0.2548 -0.0476
18001W        W33618   2.418  13.288  13.044  0.1181 -0.2334  0.0579
18002W        W33619  12.733   6.089   0.742 -0.0073 -0.1064 -0.1965
18003W        W33620  13.713   4.668  16.364  0.1902 -0.0417  0.0443
18004W        W33621   9.708   4.997  12.391  0.2101 -0.0218  0.0935
18005W        W33622   9.558   1.834   0.337 -0.0071  0.0887  0.2832
18006W        W33623   5.690  17.069   3.224 -0.0820 -0.0598 -0.1790
18007W        W33624   5.907   1.912   3.869  0.0816 -0.0857  0.1529
18008W        W33625  10.249   0.856   1.337  0.1610 -0.2588 -0.1882
18009W        W33626  17.017   9.796   1.070 -0.2897  0.1837  0.2076
18010W        W33627  13.558  11.864   5.126 -0.0528 -0.0381  0.0188
18011W        W33628   7.103   5.332  11.683 -0.2722  0.0907  0.1446
18012W        W33629  10.079   2.850   3.084 -0.2087 -0.1913  0.0686
18013W        W33630   0.580  11.935  16.439  0.3383  0.1586 -0.0290
18014W        W33631  12.475  15.766   0.702 -0.3885  0.2367  0.2128
18015W        W33632   1.837  17.019  14.891  0.1942  0.3478  0.0560
18016W        W33633  12.259   1.827  16.795  0.0360 -0.2037 -0.0888
18017W        W33634  12.682   8.808   1.938  0.2130  0.0593 -0.0180
18018W        W33635   4.820   5.735   5.762  0.2578  0.0815  0.0930
18019W        W33636   9.359   4.440  13.714 -0.0725 -0.0631 -0.0202
18020W        W33637  15.788  11.385   2.640  0.0691 -0.2633 -0.2174
18021W        W33638   7.575  16.960   3.991  0.2765 -0.1260  0.3663
18022W        W33639  11.869   0.296   4.878  0.1990 -0.0780 -0.2064
18023W        W33640  15.611  15.699  16.775  0.0320  0.0575 -0.0699
18024W        W33641  13.430   3.882  15.394 -0.1065  0.0354 -0.3075
18025W        W33642  15.761   6.183  13.823 -0.1268 -0.0102 -0.0621
18026W        W33643   1.994   9.411  16.832 -0.3171  0.1333 -0.1867
18027W        W33644  12.961   1.672   0.118 -0.2569  0.0637 -0.1263
18028W        W33645   1.711   7.214   2.651 -0.0720 -0.1618  0.0995
18029W        W33646  10.315  17.544  14.035  0.2882 -0.1176  0.1841
18030W        W33647  15.997  17.548   3.060 -0.1305  0.3093 -0.1145
18031W        W33648  16.966  16.579  14.195  0.1595 -0.0579  0.0346
18032W        W33649  12.559   5.956   2.125  0.0078 -0.0115 -0.0110
18033W        W33650   1.027   8.340  12.358 -0.0996  0.0425 -0.2049
18034W        W33651   9.995  17.125   1.195  0.2268 -0.1625  0.2785
18035W        W33652  11.167   5.485  12.038 -0.1320 -0.2340  0.0671
18036W        W33653   6.790   7.217  16.034  0.0659 -0.0922  0.0583
18037W        W33654   2.652  10.901   5.806  0.0572  0.0647  0.1672
18038W        W33655  11.832   6.150  17.109  0.0761 -0.1538 -0.0855
18039W        W33656  11.175  12.163  15.931 -0.0082  0.2503  0.0789
18040W        W33657  10.994   7.770  12.794 -0.0580 -0.0385 -0.1382
18041W        W33658   6.645   9.303  13.125 -0.2561  0.0317  0.2346
18042W        W33659   9.876   7.720   2.627 -0.0074 -0.5627 -0.0845
18043W        W33660   4.460  17.478   0.700 -0.2840 -0.1379  0.0287
18044W        W33661   2.576   3.600  12.022  0.1019 -0.0206 -0.0195
18045W        W33662  11.083  14.638   3.757 -0.0681 -0.0843  0.0339
18046W        W33663  11.902   0.527  11.946 -0.1015  0.1612  0.1757
18047W        W33664  16.368   3.540   3.306 -0.0409 -0.0014  0.3066
18048W        W33665   7.676  12.721   0.816  0.1320  0.0241  0.0579
18049W        W33666   4.897   3.379   2.415 -0.0921 -0.0194 -0.1211
18050W        W33667  16.436  13.669  16.557  0.2420  0.0400  0.3886
18051W        W33668   8.300  12.013  14.844  0.0628  0.2785 -0.1361
18052W        W33669  13.938  13.654  11.850 -0.0587 -0.2016 -0.0260
18053W        W33670   1.406  13.244  12.588 -0.0468  0.1023  0.4549
18054W        W33671   4.380  15.002  12.458  0.2063 -0.0081 -0.3201
18055W        W33672  15.313  15.257  16.948  0.3459  0.2687 -0.1411
18056W        W33673   7.694  15.874   2.513 -0.0118  0.0256 -0.0698
18057W        W33674   7.411  12.564   4.174 -0.1729 -0.0346  0.1262
18058W        W33675   9.703   9.649   1.374  0.2076  0.0900  0.0239
18059W        W33676   6.458   0.438   5.205  0.1745  0.1028 -0.4859
18060W        W33677  13.287  10.325   3.472 -0.2443 -0.0397 -0.1175
18061W        W33678  14.078  10.211  12.604  0.2038 -0.1908 -0.3799
18062W        W33679   4.392   3.203   5.656 -0.1543  0.0606  0.1010
18063W        W33680   6.048  16.508   1.803  0.0573 -0.0861 -0.0592
18064W        W33681  11.100   6.790   0.963  0.2325  0.1803 -0.0607
18065W        W33682   2.963   9.002  15.841 -0.0202  0.0056 -0.1677
18066W        W33683  13.838  10.684  12.025 -0.0500  0.2132 -0.2190
18067W        W33684  15.971   2.483   3.709 -0.0069 -0.2876 -0.2584
18068W        W33685   0.553  14.890  14.569  0.0472  0.1846 -0.0572
18069W        W33686   0.330   9.172   3.238  0.2409  0.1072  0.3745
18070W        W33687   6.755  12.502   2.235  0.1223 -0.1011  0.1371
18071W        W33688  16.714   3.804   5.388  0.4139 -0.0467  0.4052
18072W        W33689  12.572   1.890   0.752 -0.0843 -0.2566 -0.0058
18073W        W33690   9.370  12.305   0.686 -0.1081 -0.1732 -0.2344
18074W        W33691  16.593   8.692  13.666 -0.1062 -0.0976 -0.0556
18075W        W33692  15.306  14.257   1.258  0.1990 -0.1928  0.0204
18076W        W33693   6.242   6.640   2.007  0.0257 -0.0947 -0.1504
18077W        W33694   7.913   0.441  12.116  0.0992 -0.1763  0.1821
18078W        W33695  15.146   1.262  16.006 -0.1441 -0.1461  0.2269
18079W        W33696   9.470   5.576  12.099 -0.2484  0.2117 -0.1058
18080W        W33697  17.102   3.765   2.228  0.0854 -0.0243  0.0921
18081W        W33698  14.354   1.497   0.220  0.1238 -0.2201  0.0429
18082W        W33699  13.749   4.225   3.121  0.0449  0.1095 -0.0630
18083W        W33700   9.119   5.383   2.408 -0.3639 -0.1473 -0.3377
18084W        W33701  14.575  16.179   1.155 -0.0931  0.0969  0.0237
18085W        W33702  12.593  12.006   0.015  0.1479  0.0960 -0.1570
18086W        W33703   9.679   4.193   4.510 -0.0716 -0.1039  0.0036
18087W        W33704   9.197   4.434   4.434  0.0474 -0.0878  0.2115
18088W        W33705   6.602   9.212  15.216  0.2180  0.0398  0.1711
18089W        W33706   2.966  16.703  13.991  0.1073 -0.1055  0.2727
18090W        W33707   7.054   3.244  11.991  0.2580  0.3669 -0.0818
18091W        W33708   9.173   4.013  12.291 -0.0777  0.0329 -0.0757
18092W        W33709   3.982   9.520  13.887  0.1343 -0.2482 -0.0505
18093W        W33710   8.331  13.635  14.464  0.3545  0.2767  0.3518
18094W        W33711  14.767  10.268   2.354  0.1003  0.0337  0.1789
18095W        W33712  12.927   5.348  16.587  0.2566 -0.0235  0.1766
18096W        W33713   4.341   6.022   3.023  0.1420 -0.0495 -0.3896
18097W        W33714   9.075   4.674  11.846 -0.1508 -0.2586  0.1001
18098W        W33715   7.825   1.171  15.621 -0.0674 -0.1236 -0.0952
18099W        W33716   8.063  12.171  11.637 -0.2063 -0.1250 -0.2376
18100W        W33717  12.778  13.973   0.399  0.1432  0.1078  0.0872
18101W        W33718   5.981  11.997  17.008  0.1755  0.0471  0.2379
18102W        W33719  15.337  12.926   4.096 -0.0774  0.0460  0.1011
18103W        W33720  13.822   6.412  16.874 -0.0504 -0.1978 -0.1463
18104W        W33721  16.195   5.470   2.680  0.0029  0.1713 -0.1673
18105W        W33722   0.521  13.299   4.199  0.0469 -0.1398  0.0470
18106W        W33723  16.722   3.510  16.086 -0.1550 -0.1932  0.3950
18107W        W33724  10.735   5.581   3.465 -0.2365 -0.0953  0.2548
18108W        W33725  15.018   1.461  12.383 -0.1401 -0.1059  0.3729
18109W        W33726   1.378   1.724   4.320  0.1308 -0.1293  0.1698
18110W        W33727  14.801   2.514  15.075  0.2777 -0.1302 -0.1179
18111W        W33728   3.806   5.868  15.693 -0.0116 -0.0355  0.0648
18112W        W33729  11.642   1.841  14.866 -0.0779  0.0637 -0.2874
18113W        W33730   8.041  13.822  12.523 -0.1601  0.0565 -0.0761
18114W        W33731  14.721  10.946  13.605 -0.0320  0.0070 -0.1870
18115W        W33732  16.061   6.700   2.336  0.1394  0.2602 -0.0930
18116W        W33733   8.229  16.879  14.310  0.0629 -0.0166  0.1784
18117W        W33734   6.169   2.494  16.756 -0.1342  0.2249 -0.0547
18118W        W33735   7.868   1.612   5.460  0.0638  0.0775  0.1435
18119W        W33736   2.803  14.713  16.366 -0.0168  0.1447 -0.0767
18120W        W33737   4.484  15.416   1.320 -0.1127 -0.3115 -0.2611
18121W        W33738   8.902   4.126  11.946  0.0616 -0.0955  0.0527
18122W        W33739   2.197   7.845   3.167 -0.1128 -0.1236  0.3068
18123W        W33740  11.417   5.194  16.095 -0.0798  0.2695 -0.2513
18124W        W33741  14.923  11.402  15.071  0.0892 -0.2488 -0.1979
18125W        W33742   9.683   1.554   4.551  0.1987 -0.0370 -0.1146
18126W        W33743   6.318  17.285   4.022  0.0344 -0.2083 -0.1415
18127W        W33744   6.974  16.706  16.317  0.2412  0.2492  0.2113
18128W        W33745   2.945  15.679  15.935 -0.1158 -0.3780  0.1628
18129W        W33746   4.575  14.165  12.013  0.0851 -0.1372 -0.2775
18130W        W33747  15.490   5.604  14.754 -0.0344 -0.1052 -0.0917
18131W        W33748  12.772  12.707   4.576 -0.2172  0.0897 -0.1031
18132W        W33749   7.980  10.075  12.894 -0.1631 -0.1086 -0.0215
18133W        W33750  10.213  15.284  14.477 -0.1970 -0.0241  0.1204
18134W        W33751  13.047   7.949  15.309 -0.0385 -0.1422 -0.3119
18135W        W33752  17.071  14.621  12.229 -0.0326  0.1760 -0.0079
18136W        W33753   7.913   0.560  13.828  0.2979 -0.0577 -0.2271
18137W        W33754  14.656   3.376   2.019 -0.0150  0.1781  0.3397
18138W        W33755   2.163   6.604   5.120  0.1670  0.1245 -0.1655
18139W        W33756  15.413  16.034   0.094 -0.0189 -0.2287  0.0158
18140W        W33757   5.905  12.436   3.085 -0.1676  0.0155  0.1566
18141W        W33758   0.473   0.996  16.867  0.1754  0.3423  0.3720
18142W        W33759   3.635   5.534  14.862 -0.0368 -0.0229  0.1846
18143W        W33760   4.355   4.392  12.827 -0.0546  0.1104  0.3892
18144W        W33761   7.919   8.826  15.574  0.2222  0.0280 -0.2719
18145W        W33762  11.851   6.711   1.057 -0.1463 -0.0765  0.0899
18146W        W33763  14.893   0.343  14.950  0.1920 -0.2111  0.0623
18147W        W33764   8.482  17.128  15.032 -0.1629  0.0367 -0.1258
18148W        W33765  10.829  14.100   0.054 -0.0467 -0.0767 -0.0447
18149W        W33766  11.952  12.526  16.429  0.0463  0.1350 -0.1742
18150W        W33767   7.816   6.149   1.059  0.2279 -0.2378 -0.1384
18151W        W33768  10.333  15.131   2.649  0.2016 -0.1546 -0.3013
18152W        W33769  16.888  11.876   3.957 -0.1082  0.3054  0.0193
18153W        W33770   8.128  13.511   4.941 -0.0174 -0.0341  0.0119
18154W        W33771  17.414   5.721   3.272 -0.2653 -0.0383  0.1150
18155W        W33772   0.826   7.892  16.816  0.1680  0.1135  0.1748
18156W        W33773  12.827  12.891  15.346  0.1475 -0.1905 -0.0665
18157W        W33774  12.182  13.840   4.483 -0.1881  0.0868 -0.0777
18158W        W33775  17.383  14.505   1.688 -0.0396  0.4258 -0.0518
18159W        W33776  16.759  16.070  12.595  0.1701 -0.0618 -0.0103
18160W        W33777   0.043  15.832   4.198 -0.1828 -0.0270 -0.2721
18161W        W33778   7.555   5.890  16.124  0.2774 -0.1104  0.1380
18162W        W33779   3.096   4.827  13.460 -0.1351  0.0381  0.0246
18163W        W33780  12.185  12.760   0.817 -0.0870 -0.2150  0.1072
18164W        W33781  13.455   4.958   3.888 -0.5723 -0.2469 -0.0686
18165W        W33782   1.559   0.815  15.482 -0.0808 -0.1808  0.1070
18166W        W33783   4.397   1.565   4.896 -0.2895 -0.0999  0.2841
18167W        W33784  14.129   8.032   5.526  0.2758 -0.2535  0.1200
18168W        W33785  11.849  13.535   1.136 -0.1135  0.2152  0.1223
18169W        W33786   7.952   7.892  14.660 -0.1142 -0.3775  0.0784
18170W        W33787  12.249  17.599   2.824  0.0930  0.1364  0.0749
18171W        W33788   2.587  15.159   0.952 -0.1609 -0.0207  0.2492
18172W        W33789  14.070   9.056  13.557  0.2592  0.0342 -0.0892
18173W        W33790  11.066  15.174   5.178 -0.0537 -0.0889  0.0476
18174W        W33791   3.053   2.086   3.536 -0.2781  0.0475 -0.1626
18175W        W33792  12.032   6.443  10.918  0.0961 -0.2164 -0.0404
18176W        W33793  11.243   3.910  13.920 -0.1880 -0.1886  0.4443
18177W        W33794   2.108   0.830  13.726 -0.2849 -0.0038 -0.0512
18178W        W33795  12.945  11.983   2.148  0.2029  0.2637 -0.1234
18179W        W33796   1.863  11.437   6.640  0.3551 -0.0526  0.1647
18180W        W33797   6.380  15.516  16.309 -0.0968 -0.0110  0.1409
18181W        W33798  17.308   3.518  12.077  0.4383  0.1295  0.1325
18182W        W33799   2.764  12.106   5.051 -0.4166  0.0519 -0.0728
18183W        W33800   1.517   2.671   5.359 -0.0327  0.0891 -0.1706
18184W        W33801  14.291  11.547   2.091  0.4386  0.3759  0.1519
18185W        W33802   9.900   7.802  12.796  0.0568  0.0231 -0.2652
18186W        W33803   7.813   7.063   3.541  0.0348  0.0268  0.1101
18187W        W33804  13.043  16.892   0.511  0.2369  0.4118 -0.1082
18188W        W33805   7.930   1.432   3.168  0.0232 -0.1573 -0.3289
18189W        W33806   4.022   0.440  16.133 -0.0889 -0.0457 -0.1052
18190W        W33807   7.494   1.441   0.793 -0.0456 -0.2191 -0.1651
18191W        W33808   0.638   9.909   0.438  0.1009 -0.0868  0.0354
18192W        W33809  14.471  13.064  16.575  0.1390  0.0162  0.1622
18193W        W33810  11.793   2.669   4.485  0.1171  0.0226  0.2164
18194W        W33811  15.295   7.068   0.080  0.0491 -0.0436  0.3736
18195W        W33812   7.106   3.617  14.072 -0.1468 -0.0150 -0.1423
18196W        W33813   8.677   2.086   1.001 -0.2394  0.2930  0.1196
18197W        W33814   1.925   2.637   1.379 -0.0307  0.0595 -0.3584
18198W        W33815   6.105  11.011   4.030 -0.3731 -0.1570  0.1683
18199W        W33816   6.761   6.188   0.305  0.1606  0.2428 -0.1368
18200W        W33817  13.743  14.954  15.396 -0.0754  0.1389 -0.1532
18201W        W33818   6.299   1.603   3.939 -0.0027  0.1456  0.1336
18202W        W33819   7.591   6.840   2.023  0.1689 -0.1897  0.0943
18203W        W33820   0.848   4.285  12.495  0.1147 -0.2594  0.3323
18204W        W33821  15.153   6.616   5.101  0.1326  0.3562 -0.2116
18205W        W33822  16.910   1.794  13.552  0.0853  0.1407  0.1051
18206W        W33823   1.483   5.240  14.323 -0.0186  0.0337 -0.0521
18207W        W33824   8.461   3.486   2.933 -0.2402 -0.0160 -0.2170
18208W        W33825   9.050   7.986  14.572  0.0974  0.1165 -0.2490
18209W        W33826   2.610   7.307  15.443 -0.1219 -0.3749  0.1598
18210W        W33827  14.511  15.622   0.507 -0.0992  0.0369 -0.0221
18211W        W33828   1.862   5.466   1.537 -0.0168  0.0322  0.3505
18212W        W33829   4.428   9.792   3.775 -0.1758  0.0534 -0.0909
18213W        W33830   2.232   4.909  13.556 -0.4072 -0.0661  0.0904
18214W        W33831  17.001   3.492  17.175  0.1265 -0.4410 -0.0560
18215W        W33832   7.206   7.224   0.332  0.0475 -0.2412  0.0201
18216W        W33833   6.375   2.469  11.855 -0.1536 -0.0008  0.0664
18217W        W33834  11.726   3.600  13.648 -0.1665 -0.1502  0.1191
18218W        W33835  15.382   8.298  16.638 -0.0343  0.0229 -0.0452
18219W        W33836  12.695   2.477   3.143 -0.2125  0.0011  0.0084
18220W        W33837  16.608   3.708  13.654 -0.0094  0.2551 -0.2413
18221W        W33838  14.314   9.966  15.899  0.2181  0.1627  0.0777
18222W        W33839  16.900   9.944   6.697 -0.1861 -0.0706 -0.3544
18223W        W33840   3.260  11.364  13.578 -0.2004 -0.1309  0.1368
18224W        W33841  10.597  13.568   5.107 -0.2909  0.3047 -0.0945
18225W        W33842  12.903   4.545  14.173 -0.1685 -0.0961 -0.2780
18226W        W33843  11.863   4.958  13.661 -0.0827 -0.0686 -0.2554
18227W        W33844  16.707   8.907   6.038 -0.0294  0.0389  0.1344
18228W        W33845   6.258  14.807  14.557  0.0892 -0.1658 -0.0342
18229W        W33846   0.848  13.101  13.410  0.2671  0.0524  0.4120
18230W        W33847  16.031   4.359  16.525 -0.1401  0.2096  0.2086
18231W        W33848  17.265   2.255  12.706 -0.0554 -0.1562 -0.0686
18232W        W33849   3.167   8.002  12.745  0.0757 -0.0930 -0.1082
18233W        W33850   3.404  16.395  14.333  0.0361  0.2831 -0.2407
18234W        W33851  10.782  16.888   0.889 -0.1530  0.1625  0.2181
18235W        W33852   0.308   5.801   3.173 -0.0391 -0.1385  0.0194
18236W        W33853  11.770   8.772  14.924  0.2855 -0.2417  0.1030
18237W        W33854   0.001  16.850   5.625  0.0716 -0.0387 -0.1259
18238W        W33855   0.860   4.437  14.649  0.1709 -0.0808 -0.0977
18239W        W33856  15.059  10.487   1.016 -0.2806 -0.2517 -0.0299
18240W        W33857  10.937   3.387  12.295 -0.0220 -0.0629 -0.1823
18241W        W33858  12.717   4.258   4.936 -0.0000 -0.0309 -0.0499
18242W        W33859   6.180   6.500   5.534  0.0597  0.2235  0.2133
18243W        W33860   5.060  17.301  12.315  0.1340 -0.1906 -0.0585
18244W        W33861  14.726   0.114  16.055  0.0248 -0.0151  0.1850
18245W        W33862   8.056   7.286   2.746 -0.4258 -0.2796 -0.0175
18246W        W33863  17.186   8.716  15.942 -0.1143 -0.1009  0.5797
18247W        W33864   2.295   7.458  16.104  0.0311 -0.2278 -0.0272
18248W        W33865  10.558   9.973  16.283  0.3373 -0.1641  0.0848
18249W        W33866  15.676   1.763   0.587 -0.1802  0.0107 -0.0885
18250W        W33867   0.344  11.794   2.719 -0.1185 -0.2297  0.4996
18251W        W33868  14.545   4.170   5.881 -0.1557 -0.3590 -0.0067
18252W        W33869   6.893  10.675  16.222  0.2490  0.0736 -0.1000
18253W        W33870   1.710  16.728   5.573 -0.0091  0.3396 -0.1506
18254W        W33871   6.150   2.445  15.929 -0.0901  0.1064  0.4115
18255W        W33872   8.644  16.482   4.187 -0.4243 -0.2687  0.5066
18256W        W33873   6.153   1.090   5.572  0.0256 -0.2215  0.2309
18257W        W33874   9.069  11.103   1.991  0.0305 -0.0922  0.1273
18258W        W33875  15.010   6.924  12.804  0.0984  0.2535  0.0928
18259W        W33876  17.272   8.158   1.791  0.0329  0.1473 -0.1499
18260W        W33877  13.721   8.519  12.794 -0.0108 -0.0920  0.0109
18261W        W33878  13.829  10.294  14.160 -0.0603  0.0717 -0.1635
18262W        W33879   6.390   6.298   0.046  0.0158  0.0106 -0.4025
18263W        W33880   9.857   6.783  15.275 -0.0978 -0.1399  0.2633
18264W        W33881   8.031   4.066   1.721 -0.2806  0.1972  0.2244
18265W        W33882   2.683   1.937   4.930 -0.0874 -0.0046 -0.0471
18266W        W33883   9.410   7.248  16.382 -0.2292 -0.1045  0.0501
18267W        W33884  16.843  10.482   2.560 -0.0596  0.0405 -0.4792
18268W        W33885  16.308  13.407  17.003 -0.1552  0.2647  0.2028
18269W        W33886   1.652   1.798  16.826  0.2602 -0.2038 -0.2122
18270W        W33887  14.849  14.727  16.283  0.3221 -0.1930 -0.3721
18271W        W33888   3.780  16.077   1.870  0.0121 -0.0505  0.0430
18272W        W33889  16.787  12.816  15.085 -0.1452 -0.2893 -0.0239
18273W        W33890  13.758   4.236  11.677  0.0132 -0.0896 -0.2129
18274W        W33891  11.104  13.675  13.142  0.2249 -0.0530 -0.2598
18275W        W33892  15.799  16.233   0.450  0.0572  0.1873 -0.1512
18276W        W33893   0.883   8.463  14.692 -0.0109  0.2066  0.1545
18277W        W33894  12.975  14.395   6.544  0.1694 -0.0641  0.2220
18278W        W33895   1.842  11.741   1.083  0.2562 -0.1558  0.1155
18279W        W33896   1.647   7.935   4.857 -0.1033 -0.1544  0.0143
18280W        W33897   3.746   2.466  15.815  0.1680 -0.2067  0.0443
18281W        W33898   6.918  13.776  14.613  0.2947 -0.1586  0.1519
18282W        W33899   2.793  13.235  16.815 -0.3197  0.0264  0.0505
18283W        W33900   5.216   6.342  15.142 -0.0380 -0.1971 -0.3636
18284W        W33901   9.949   3.575  12.162 -0.2838  0.1869  0.1395
18285W        W33902  12.592  15.052   6.179  0.0884  0.2029 -0.3200
18286W        W33903  16.996  16.048   2.665 -0.1959 -0.0238 -0.1172
18287W        W33904   8.208  12.985  12.298  0.3974  0.2078  0.0466
18288W        W33905   4.859   1.565  12.497 -0.1040 -0.2416 -0.4091
18289W        W33906   1.983   8.373   3.237 -0.1629 -0.0156  0.0564
18290W        W33907   6.210  10.999  15.179 -0.1025 -0.0643 -0.0054
18291W        W33908   5.911  16.845  11.704 -0.0981 -0.1807  0.2390
18292W        W33909   3.137   8.756  12.319  0.2455  0.0918  0.0047
18293W        W33910  12.508  17.011  14.289 -0.0827  0.0268 -0.1178
18294W        W33911   9.600  12.104   3.884  0.1810  0.0787  0.1154
18295W        W33912   8.691  15.287   6.095  0.1731  0.1177 -0.1010
18296W        W33913  11.178   0.384  17.036  0.0148  0.0592 -0.0054
18297W        W33914   3.715   0.674  13.290 -0.0981  0.3422 -0.1028
18298W        W33915  12.010   8.464   1.014 -0.2394  0.1148 -0.0414
18299W        W33916   3.750   0.348   4.278 -0.2864  0.0711 -0.0166
18300W        W33917   2.857  13.209   1.008  0.5301 -0.1659 -0.0689
18301W        W33918  15.434   5.599  15.952 -0.3245 -0.2551  0.0614
18302W        W33919  13.582   2.718   2.081 -0.2852 -0.0825  0.0447
18303W        W33920   4.141   2.754   2.122 -0.2427 -0.1436  0.0534
18304W        W33921  16.497  10.357  15.139  0.0958  0.0599  0.0288
18305W        W33922   5.744   7.574   1.778 -0.0998 -0.0615 -0.0182
18306W        W33923   1.705  12.779   4.165 -0.0862  0.0824 -0.0110
18307W        W33924  11.998  12.514   4.310  0.0479  0.0902 -0.0561
18308W        W33925   5.167  14.255  14.350  0.1163  0.1087  0.0099
18309W        W33926   4.815  10.024  13.341 -0.4395 -0.1648 -0.1481
18310W        W33927  10.610  13.352   0.637  0.1389 -0.0750  0.0652
18311W        W33928   1.972  13.461  13.352  0.1626  0.3007  0.0154
18312W        W33929   6.820   0.535   2.343 -0.0348 -0.1588  0.0964
18313W        W33930   9.693   9.918  12.040  0.0231  0.0956 -0.1704
18314W        W33931  17.439  10.534  13.184 -0.4978  0.2322 -0.2361
18315W        W33932   0.549  16.196   3.167  0.2466 -0.3462 -0.0460
18316W        W33933   6.842   5.691   3.833  0.2636 -0.1519 -0.0681
18317W        W33934  15.261   6.443  11.340  0.2508 -0.1307  0.0164
18318W        W33935   0.488   5.452   1.834  0.0690  0.0145 -0.0092
18319W        W33936  12.155  17.017  17.192  0.1515 -0.0953  0.3409
18320W        W33937   9.750   9.538  12.360 -0.0078 -0.2475 -0.0500
18321W        W33938  16.431  10.706   2.332 -0.1627  0.0540 -0.3257
18322W        W33939  16.994   1.488   1.867  0.1669 -0.0177  0.1813
18323W        W33940  12.558  10.542   4.585 -0.1716 -0.1791 -0.0351
18324W        W33941   9.450   5.818   3.550 -0.0467 -0.0436 -0.2107
18325W        W33942  10.099   6.499  15.867 -0.0244  0.1572  0.0809
18326W        W33943   2.814   3.568   4.475 -0.0774 -0.0729 -0.2437
18327W        W33944  17.020  13.719   0.586 -0.1864  0.0129  0.5611
18328W        W33945   2.029  14.414  16.796  0.3042  0.3561  0.0069
18329W        W33946  17.154  12.616   5.822 -0.1737  0.2828 -0.2765
18330W        W33947  11.483  14.438   0.773  0.0743  0.2155  0.1678
18331W        W33948   3.921   1.827  15.199  0.1241  0.1083 -0.4249
18332W        W33949   2.061  14.620   2.895 -0.1943 -0.3748 -0.2188
18333W        W33950  13.448   0.976  15.914 -0.0180  0.3606 -0.0086
18334W        W33951  14.966   2.445  12.220  0.2029 -0.4420 -0.1760
18335W        W33952  13.940  17.143   2.963  0.1424  0.2163  0.0210
18336W        W33953   5.763  13.593  14.532 -0.2697  0.0242  0.0773
18337W        W33954   5.073   7.154  13.828  0.0292 -0.0556 -0.0015
18338W        W33955   3.860   9.227  13.503  0.0297 -0.1786 -0.0378
18339W        W33956  14.308  16.883  16.007  0.1190  0.4191 -0.1577
18340W        W33957   4.982  10.120  16.613 -0.2453  0.0661  0.0246
18341W        W33958  10.913   2.559  13.801  0.1431 -0.1208  0.0271
18342W        W33959   5.945   0.027  15.140 -0.1331 -0.2047 -0.0548
18343W        W33960   3.903  13.657   2.979  0.1958 -0.2662 -0.0597
18344W        W33961  13.788   1.331  14.956 -0.2195  0.0524  0.1986
18345W        W33962  16.596  11.007   0.653 -0.0035 -0.2244 -0.1958
18346W        W33963  14.542   4.825   0.939 -0.1562  0.1302 -0.1352
18347W        W33964   3.690   5.535   2.557 -0.0958 -0.1330 -0.1572
18348W        W33965   7.547  12.700   2.924 -0.0887 -0.1321 -0.0707
18349W        W33966   8.108   9.542  12.761  0.0143 -0.2914 -0.1224
18350W        W33967  17.091   6.791   2.954 -0.0823  0.2190  0.0940
18351W        W33968   5.023  10.913   3.157  0.2630  0.1291  0.0775
18352W        W33969  15.480   0.553   0.930  0.1571 -0.1042 -0.0271
18353W        W33970   7.378  12.466   4.678  0.0877  0.1849 -0.0077
18354W        W33971   4.972   5.893  15.255  0.1490  0.0032  0.2476
18355W        W33972  12.382  10.069  17.089 -0.0741 -0.0303 -0.0227
18356W        W33973  15.525  13.745   4.712 -0.0823 -0.0621  0.0743
18357W        W33974  16.798   4.600   4.920  0.1221 -0.1583 -0.3069
18358W        W33975   7.577  11.084   5.825 -0.0809 -0.5204  0.1243
18359W        W33976   6.189   8.757  14.966  0.0248  0.0009 -0.0524
18360W        W33977  17.417  16.974  16.617  0.1635 -0.1058  0.1278
18361W        W33978  10.878   8.778  17.094 -0.0984  0.2365  0.0918
18362W        W33979  13.788   6.369  13.839 -0.1252 -0.0298 -0.1794
18363W        W33980   7.182   4.922   1.164 -0.1132 -0.0019  0.0484
18364W        W33981   6.918   9.962   0.958 -0.0021  0.0417  0.4049
18365W        W33982   7.344   0.325  15.924  0.3205  0.3404 -0.1029
18366W        W33983  10.660   8.109  13.528  0.2106 -0.0019  0.3778
18367W        W33984  17.229   8.155  12.631  0.2275 -0.3681  0.0643
18368W        W33985   3.003   2.071   0.203 -0.2939 -0.0683 -0.2230
18369W        W33986  16.651   0.358   0.318 -0.2265 -0.3042 -0.1357
18370W        W33987   5.461  13.531  10.576  0.0179  0.1730  0.1285
18371W        W33988  14.082   0.239   4.142 -0.0310 -0.2401 -0.0125
18372W        W33989  13.285   3.352   1.296  0.1861 -0.0031 -0.1970
18373W        W33990  16.111   6.313  14.272  0.0316  0.1323  0.3965
18374W        W33991  12.538   6.801  16.747  0.1642  0.2596  0.1156
18375W        W33992   9.305  12.666  13.627 -0.0592 -0.3405 -0.1157
18376W        W33993   0.416  13.801  16.297 -0.1763  0.1238  0.0687
18377W        W33994  16.735  14.783  13.522 -0.0582 -0.0443  0.0921
18378W        W33995   0.299  14.703   0.983  0.0484  0.3603 -0.0615
18379W        W33996   5.215   1.798  14.730  0.1433 -0.3873 -0.0189
18380W        W33997  10.012   8.159   2.456 -0.2228  0.1598  0.2056
18381W        W33998   1.760  17.186  17.246  0.0926  0.1536 -0.0974
18382W        W33999   5.286  17.562  13.583  0.1891 -0.3723  0.0037
18383W        W34000   4.737   7.602   1.200 -0.1344 -0.2365 -0.2841
18384W        W34001   4.040  11.792   6.169  0.1656  0.1605  0.0815
18385W        W34002   5.657   7.512   1.168 -0.1846  0.0758  0.0174
18386W        W34003  14.068  12.286   0.516 -0.1427  0.2813  0.1119
18387W        W34004   9.045  13.890   3.641  0.2026  0.2788 -0.2872
18388W        W34005   1.638   1.395   1.162 -0.0595  0.0943 -0.0140
18389W        W34006   1.351   9.141   4.722  0.2384 -0.1366 -0.0883
18390W        W34007   3.610   4.759   3.658  0.2031  0.0753 -0.1119
18391W        W34008  14.377   3.713   3.487 -0.1351  0.3545 -0.1650
18392W        W34009   0.935   4.531   1.406 -0.2448  0.0384 -0.0753
18393W        W34010  13.557  14.031   1.835 -0.0970  0.0418 -0.0514
18394W        W34011   1.798  15.579  14.810 -0.1518  0.0492  0.0006
18395W        W34012   4.044  11.128  15.750  0.0724 -0.2307 -0.1368
18396W        W34013   9.601  13.539   0.264 -0.0128 -0.4042 -0.1166
18397W        W34014   5.903  17.570   5.556 -0.1064 -0.1370 -0.2759
18398W        W34015  14.799   1.621  14.288  0.0866  0.0381 -0.0810
18399W        W34016   4.980   5.871  14.356 -0.3630  0.0542  0.2384
18400W        W34017  12.758  12.110   2.639  0.1329  0.0762 -0.1224
18401W        W34018   1.077  15.070  12.945 -0.1592 -0.0754  0.0936
18402W        W34019  10.095   0.485  11.507  0.2078  0.8369 -0.1220
18403W        W34020  15.237   7.248   3.427  0.0225  0.0403  0.2483
18404W        W34021   0.741  16.325   4.551  0.1290  0.0307  0.2692
18405W        W34022  16.966  15.428  11.710 -0.0927 -0.2546  0.2667
18406W        W34023   5.799  16.633   3.428  0.1159 -0.0546 -0.0221
18407W        W34024   3.871   0.976  14.148 -0.1778 -0.0396 -0.0260
18408W        W34025  10.409  16.093   3.987  0.2189 -0.1399  0.1035
18409W        W34026   8.453  10.213   6.536 -0.0169 -0.3466 -0.1773
18410W        W34027  13.498   8.690  15.370  0.0836 -0.1245  0.0057
18411W        W34028  15.767  13.994  13.425  0.1575  0.0092 -0.1377
18412W        W34029  12.081  16.578   0.534 -0.0423  0.1046  0.1314
18413W        W34030   3.200   9.990   4.156 -0.2011 -0.0283  0.3499
18414W        W34031  16.722  12.374  13.712 -0.1375  0.3204  0.4715
18415W        W34032   8.032   9.104  11.956  0.3633  0.2439 -0.0891
18416W        W34033   1.598  16.866   0.305 -0.0262  0.0249  0.3010
18417W        W34034   8.475   0.508   0.430  0.1240 -0.1523  0.0329
18418W        W34035   4.490   2.169  14.570  0.0473  0.0852  0.0319
18419W        W34036  13.232   4.372   2.875 -0.1335  0.1557 -0.2093
18420W        W34037  15.617   4.910  12.817  0.0691 -0.2200 -0.0639
18421W        W34038  13.395  12.150  13.212 -0.1505 -0.0701 -0.1227
18422W        W34039   8.703  10.744   3.819  0.2179 -0.1231 -0.0610
18423W        W34040  14.166  13.357   5.524 -0.0731 -0.0937 -0.0227
18424W        W34041  11.601   6.859   6.786 -0.0101  0.0197 -0.0110
18425W        W34042   7.120   7.497   1.405 -0.0056  0.1988  0.0631
18426W        W34043   1.931   2.935   3.992 -0.2475  0.1274  0.1441
18427W        W34044  15.695   1.122   3.749 -0.0090  0.0927 -0.1620
18428W        W34045   2.229   5.643  12.929 -0.1094 -0.3742 -0.1217
18429W        W34046  12.909   1.825   4.604 -0.1577 -0.0949  0.1184
18430W        W34047   4.975  13.284   3.602 -0.0386  0.0358 -0.0187
18431W        W34048   5.280  14.352   3.953  0.0671  0.0562  0.1436
18432W        W34049  13.700   9.738   0.256 -0.2026  0.0391 -0.0851
18433W        W34050  16.124   4.458  14.035 -0.1901  0.1177 -0.0282
18434W        W34051  17.360  16.545  16.925  0.1481  0.2120  0.0758
18435W        W34052   4.338  11.393   6.183  0.0697  0.5995  0.1138
18436W        W34053  17.151  11.411  15.623 -0.2237  0.1477  0.0590
18437W        W34054   8.987  10.493  14.429 -0.1765 -0.2125  0.1995
18438W        W34055   4.056  13.243   0.990 -0.0650 -0.1231  0.0725
18439W        W34056   5.853  15.454   3.931  0.2420  0.1753 -0.2215
18440W        W34057  15.296  13.645   5.148 -0.0759 -0.0724  0.2011
18441W        W34058   8.650   9.460   0.768  0.1141 -0.2809 -0.1193
18442W        W34059  12.482   8.211  16.904  0.0972  0.0153 -0.0598
18443W        W34060  15.908  13.189  15.073 -0.2886  0.0843 -0.0095
18444W        W34061  10.392   0.664  10.758  0.0458  0.1608 -0.0685
18445W        W34062  14.257   4.039   6.257  0.0510 -0.1710  0.0230
18446W        W34063   1.388   0.118  15.976  0.1893 -0.1273 -0.1010
18447W        W34064   6.069   0.886  15.309 -0.3750  0.2033 -0.2745
18448W        W34065  13.634   5.714   1.100  0.1451 -0.1478 -0.0504
18449W        W34066   3.456   4.299  13.957  0.4335 -0.1718  0.3766
18450W        W34067  16.438  15.663  16.669 -0.0872  0.0058 -0.0575
18451W        W34068   7.749  16.308  11.200 -0.1422  0.1466 -0.0023
18452W        W34069   1.603  14.107   4.663 -0.0814 -0.0110 -0.2133
18453W        W34070   5.101   6.154   0.801 -0.0732 -0.0527  0.0642
18454W        W34071  10.305  10.332   3.000  0.3349 -0.1611 -0.3535
18455W        W34072  14.664  16.759   1.852 -0.0324  0.1198 -0.1423
18456W        W34073  17.231  14.845  15.668  0.0884 -0.0710  0.3034
18457W        W34074   8.856   6.746  14.400  0.0068  0.0646 -0.1392
18458W        W34075   9.997   8.575  16.792  0.1107  0.1753  0.0079
18459W        W34076  14.382   1.361  14.148  0.0119 -0.0280 -0.2821
18460W        W34077  17.209   8.732  14.732  0.1615  0.3609  0.0800
18461W        W34078   7.926  17.351   5.276  0.1620  0.2375  0.2660
18462W        W34079   1.845  16.674  12.344 -0.1762  0.3249 -0.1154
18463W        W34080  13.039  14.621   2.840  0.2278 -0.1504  0.1430
18464W        W34081   6.278  13.713  15.822  0.1287  0.0623 -0.2828
18465W        W34082  12.552   6.562   0.376 -0.0267  0.0823 -0.0853
18466W        W34083   8.336  12.449  15.767  0.0881  0.0690  0.0622
18467W        W34084   0.526   4.046  16.498  0.3269 -0.0581  0.0932
18468W        W34085  17.279   8.964   1.936 -0.2844 -0.0826 -0.2174
18469W        W34086   9.590  15.568   4.059 -0.3928  0.0590 -0.0025
18470W        W34087   4.744  14.622  17.265 -0.0612 -0.2356 -0.0984
18471W        W34088  15.891  12.394  15.266  0.4309  0.3393 -0.2445
18472W        W34089  10.248   4.356   1.536 -0.0782  0.2286  0.0576
18473W        W34090  11.640   6.004   2.633  0.0156  0.0565 -0.1126
18474W        W34091   9.572   3.838  15.647  0.2859 -0.2271 -0.0002
18475W        W34092  13.109   7.226  12.228 -0.2867 -0.0743  0.0251
18476W        W34093  17.551   1.468  12.271 -0.0629 -0.1447  0.1107
18477W        W34094   2.284  15.720  14.673  0.0379 -0.4129  0.4787
18478W        W34095   1.272  17.213   3.585  0.0607 -0.0552  0.0161
18479W        W34096   7.352  16.731  14.876 -0.1904 -0.1726 -0.2580
18480W        W34097  12.285   8.664   5.199 -0.0082 -0.0224 -0.2528
18481W        W34098   6.533   8.693   1.160  0.3450 -0.0807  0.1587
18482W        W34099  12.707   0.132   3.793  0.0478 -0.1276 -0.0136
18483W        W34100   9.155   9.128  13.730  0.1102  0.0225  0.0588
18484W        W34101  15.456   6.685   3.604 -0.0158 -0.1134  0.1398
18485W        W34102  12.753  11.846   5.163  0.0286 -0.1947  0.0989
18486W        W34103   7.914   0.188  15.471 -0.2800  0.1444 -0.0120
18487W        W34104   4.507   0.689   0.463  0.1799 -0.2853 -0.1936
18488W        W34105  16.742   7.574  16.924 -0.0772 -0.1349  0.1762
18489W        W34106  12.580   6.636   5.399 -0.0579  0.0836  0.1261
18490W        W34107  15.473  13.817   2.928  0.2923  0.0940  0.1384
18491W        W34108  16.902  13.498  12.792 -0.1349  0.2249  0.1322
18492W        W34109   4.606  13.506   1.086 -0.0254 -0.0299  0.0599
18493W        W34110   0.621   6.210  13.344 -0.0659  0.1212 -0.1582
18494W        W34111  16.872  15.657   3.945  0.1663 -0.3563 -0.1670
18495W        W34112  15.566   3.232  16.764 -0.2805  0.0665 -0.0049
18496W        W34113   9.175   0.781   4.008 -0.3766  0.0403 -0.0939
18497W        W34114   4.679   0.004   3.336  0.1764 -0.0087  0.0719
18498W        W34115   4.996  13.109  13.476 -0.0217  0.0602  0.0585
18499W        W34116   1.596  12.861   3.037  0.0748  0.2891 -0.4309
18500W        W34117   9.963   2.143   1.822 -0.0861 -0.3273  0.0911
18501W        W34118   5.316  11.201  15.683 -0.0087 -0.0311 -0.3073
18502W        W34119  15.291  16.827  16.076 -0.0954  0.0686  0.2123
18503W        W34120  11.617  16.359  14.229  0.1342 -0.0474 -0.0547
18504W        W34121  15.952  15.031   1.099 -0.1062 -0.1718  0.0497
18505W        W34122   7.709   1.512   4.287 -0.1793 -0.2608 -0.2889
18506W        W34123  11.500   2.062   2.383  0.2431  0.0439 -0.0716
18507W        W34124   1.011  13.655   4.154 -0.0039 -0.0554 -0.0785
18508W        W34125  14.259   6.611   4.754 -0.0931  0.0526 -0.1870
18509W        W34126   3.723  14.004  12.800  0.0309 -0.3503  0.0802
18510W        W34127   9.749   2.635   2.646  0.1428  0.0982 -0.0875
18511W        W34128   6.602   1.812   4.329  0.1992 -0.0541 -0.1458
18512W        W34129   6.842   2.705  12.803  0.2928 -0.0872 -0.3897
18513W        W34130   6.121   0.601   5.566 -0.2486  0.0435 -0.0721
18514W        W34131   0.301  13.070  13.728  0.0918 -0.3901  0.2214
18515W        W34132   9.116  15.679  12.125 -0.1280  0.0882  0.1779
18516W        W34133  13.485  11.019  12.923  0.1324 -0.1255  0.0726
18517W        W34134   4.420   5.167  16.318  0.0426 -0.0316  0.1395
18518W        W34135  17.496   4.048  13.194  0.0223 -0.1009  0.0752
18519W        W34136  13.920   8.732   0.799  0.4025  0.1925 -0.0318
18520W        W34137   9.667  16.809   1.444  0.2171  0.0347  0.0382
18521W        W34138   6.681   0.072  15.165 -0.0747 -0.0077 -0.3088
18522W        W34139  14.039   0.847   1.220 -0.0865 -0.1633  0.2545
18523W        W34140  17.075  13.647  13.259 -0.0374 -0.0314  0.0567
18524W        W34141  12.407  14.858   4.870 -0.0482 -0.0925 -0.1927
18525W        W34142  10.628   1.668   4.841 -0.0856  0.2252  0.1552
18526W        W34143  14.626  11.258  15.954 -0.4066  0.1881 -0.0218
18527W        W34144   7.133   4.550  11.330 -0.1987  0.3956  0.0467
18528W        W34145   9.923   7.575   5.053  0.1039  0.1605 -0.1260
18529W        W34146  16.870   5.736  13.490 -0.1318 -0.1878  0.0677
18530W        W34147   0.066   5.422   4.837 -0.0902  0.0235 -0.1443
18531W        W34148   6.879  15.661  13.709  0.0581 -0.1744  0.0235
18532W        W34149  10.485   0.851  13.922  0.0953  0.0044  0.2227
18533W        W34150   1.850   2.832   6.739 -0.1585  0.2048 -0.1766
18534W        W34151  11.880   5.979  12.221 -0.2335 -0.0035  0.2638
18535W        W34152  10.851   5.601  14.893 -0.0503 -0.0060 -0.2180
18536W        W34153   6.157   8.645   0.778  0.1877  0.1886 -0.2426
18537W        W34154   3.571   8.620  13.779 -0.0965 -0.1537 -0.3004
18538W        W34155  14.314   8.421  16.618  0.1954 -0.0219 -0.0823
18539W        W34156   7.940   6.763  15.292  0.2806 -0.4039 -0.1933
18540W        W34157   6.710  11.811   3.079  0.0832 -0.0879 -0.2369
18541W        W34158  17.383  17.564   1.255  0.1646 -0.0847 -0.0693
18542W        W34159  13.962   1.443  15.397  0.0821  0.3175 -0.1975
18543W        W34160  13.835  14.917   0.502  0.2582 -0.0805 -0.1889
18544W        W34161   1.459  10.560   1.430  0.0218  0.1903 -0.1728
18545W        W34162   7.847  10.337   1.816 -0.0526  0.1210  0.1134
18546W        W34163   7.380   1.013   1.215  0.1979 -0.1881 -0.1448
18547W        W34164   2.021   6.151   3.816 -0.2410  0.0776  0.3457
18548W        W34165  12.780   8.671   4.461 -0.0368  0.1001  0.0885
18549W        W34166  14.838   9.621   0.663  0.3112  0.0520 -0.0462
18550W        W34167  14.102   5.690  13.784  0.0451 -0.3060  0.0210
18551W        W34168   2.396  16.294   1.569  0.3095  0.0124  0.1651
18552W        W34169  15.640  12.007   2.109 -0.1614 -0.2012  0.1187
18553W        W34170  11.561   0.255  13.307 -0.0909  0.2123  0.0553
18554W        W34171   6.193   0.720  15.777 -0.1146 -0.0574 -0.0753
18555W        W34172   6.453   7.163  16.815  0.2119 -0.0274  0.1066
18556W        W34173   7.073   7.484   4.542  0.3417 -0.2539  0.0608
18557W        W34174  16.893  11.068  12.293 -0.1949 -0.0007  0.0523
18558W        W34175  12.366   0.361   4.644 -0.0772  0.0599  0.0809
18559W        W34176  17.436  12.642  15.923 -0.0932  0.0639  0.1031
18560W        W34177  13.183   6.267  16.986  0.0380  0.0732 -0.0770
18561W        W34178  14.053   4.282   0.444  0.3572  0.0101  0.0012
18562W        W34179  12.996  17.107  14.924  0.2543 -0.2181  0.1333
18563W        W34180   2.154   5.812   4.769 -0.3010  0.0889  0.0711
18564W        W34181   0.993   6.013  16.886 -0.0477 -0.0461 -0.0901
18565W        W34182   7.840   5.198   4.455 -0.0281  0.2720 -0.3373
18566W        W34183   6.475  16.316   4.674 -0.0473 -0.2283 -0.0498
18567W        W34184   1.235  11.328  16.681 -0.3443 -0.1450 -0.3178
18568W        W34185  17.221   0.669  12.866  0.4047 -0.3322 -0.4231
18569W        W34186  13.109  10.597   1.195  0.2288  0.2286  0.1167
18570W        W34187   6.352  16.324   0.371 -0.3554 -0.2628  0.0240
18571W        W34188  13.773  14.083  12.762 -0.0894  0.2325 -0.0133
18572W        W34189   0.937  13.504  14.815  0.0585  0.1763  0.0144
18573W        W34190  17.095  10.173  15.205 -0.0818  0.1758 -0.3667
18574W        W34191  12.470   7.269  16.994  0.1349 -0.3146 -0.2392
18575W        W34192   3.190  12.267   4.903 -0.1107  0.0138  0.1097
18576W        W34193   1.584   5.096   1.752  0.2759 -0.1836  0.0756
18577W        W34194   4.196   5.782  14.209 -0.0587  0.2130 -0.3012
18578W        W34195  10.163  11.735   4.587  0.0307 -0.3781  0.0532
18579W        W34196  11.297   5.340  12.963 -0.1128 -0.0173 -0.1432
18580W        W34197  12.650   3.369  14.020  0.2251  0.2092 -0.0830
18581W        W34198  17.514   2.713   6.061 -0.2392 -0.0220 -0.2618
18582W        W34199   1.426   0.939  16.794  0.2283 -0.0504  0.0217
18583W        W34200   5.757  14.679   6.078  0.0441 -0.0464 -0.0635
18584W        W34201   9.916  11.604  15.526 -0.1306 -0.1890  0.2479
18585W        W34202   4.264   6.638  15.288 -0.1847  0.2058 -0.1966
18586W        W34203  16.689  15.414   4.570 -0.0318  0.0785 -0.0176
18587W        W34204   1.052   9.081  13.506 -0.0095 -0.4030 -0.0718
18588W        W34205   6.120   9.665  16.278  0.0463 -0.2326 -0.2941
18589W        W34206  15.555  12.105  10.867  0.0220 -0.3772  0.1283
18590W        W34207   5.528   6.920   0.415 -0.0602 -0.0379 -0.0299
18591W        W34208   3.935   3.557   1.714 -0.3496 -0.1364  0.2363
18592W        W34209   7.006   0.933  12.646  0.2619 -0.1617  0.2469
18593W        W34210   0.317  10.906  12.133  0.2770  0.1693 -0.0695
18594W        W34211   0.175   8.465  17.296 -0.1240  0.1087  0.0076
18595W        W34212  12.764   6.008  13.662 -0.0616  0.4648 -0.0142
18596W        W34213  14.158  10.613   6.813 -0.1430  0.1740 -0.0682
18597W        W34214  12.371  11.754   1.423 -0.2075  0.1109 -0.1580
18598W        W34215  15.280  12.437  15.228 -0.1498  0.1761 -0.1316
18599W        W34216   3.924   4.406   4.376 -0.2322  0.2352  0.3437
18600W        W34217   3.829   3.589   4.162 -0.0317 -0.1120  0.0747
18601W        W34218   6.326  12.290   3.912 -0.1876  0.5807 -0.1766
18602W        W34219  12.964   6.387  14.055 -0.0948  0.0210  0.1128
18603W        W34220   0.332   9.369   4.638 -0.0332  0.0331  0.1278
18604W        W34221  17.197  12.961   1.125  0.2646  0.1996  0.1400
18605W        W34222   7.771   6.203  17.087  0.0373 -0.1206  0.1507
18606W        W34223  13.762   5.369  14.679 -0.1514 -0.1833 -0.5717
18607W        W34224  11.817  16.473   3.474 -0.2021  0.1746 -0.0560
18608W        W34225  13.372  11.646  15.787 -0.1011  0.0322  0.3333
18609W        W34226  11.550  14.334   3.947  0.0120  0.1765  0.2224
18610W        W34227   0.917  16.386  13.207 -0.1887  0.0201 -0.0145
18611W        W34228  17.289  14.117   1.000 -0.1043  0.4524 -0.3509
18612W        W34229  11.561   3.628   4.591  0.2187  0.3529 -0.0449
18613W        W34230  14.557   2.557  14.596 -0.0618 -0.2279  0.1328
18614W        W34231  16.214   0.347   1.484  0.0866  0.0519  0.1079
18615W        W34232   6.406   1.990   5.241 -0.1301  0.0729  0.2133
18616W        W34233   6.658  11.103  16.159  0.1096 -0.2490  0.2073
18617W        W34234  12.776  10.056   2.641  0.1614  0.1354  0.0604
18618W        W34235   9.312   0.889  11.428 -0.0901  0.4914  0.2043
18619W        W34236   8.794   2.971  11.352  0.1619  0.1053  0.0042
18620W        W34237  13.445   6.380  15.592  0.1802  0.1315 -0.1188
18621W        W34238   7.832  11.332  16.735  0.0692 -0.0734  0.2782
18622W        W34239  14.845   6.471   2.466 -0.0995 -0.1388 -0.1872
18623W        W34240   4.715  17.091   1.570 -0.0366 -0.1975  0.3385
18624W        W34241   0.713   1.813  16.112 -0.2859  0.0378  0.0463
18625W        W34242  11.185   1.305   6.155  0.1138  0.0497  0.1467
18626W        W34243   8.958  14.003  15.407 -0.0784  0.0608  0.0509
18627W        W34244  15.338  12.012  14.805 -0.1595 -0.0091  0.0380
18628W        W34245   9.128   9.784  16.031  0.1484 -0.2617 -0.0125
18629W        W34246   5.291  17.046   0.517  0.0525 -0.1707  0.0429
18630W        W34247   0.540  10.778   1.854  0.1992  0.2865  0.0201
18631W        W34248   4.904   9.685   3.765  0.0876 -0.0047  0.0852
18632W        W34249  14.270  14.609   0.609 -0.0057  0.1061 -0.0015
18633W        W34250  14.632  14.864  11.801  0.1900 -0.1735  0.0130
18634W        W34251   8.647   4.745  14.437  0.2765 -0.1308 -0.2722
18635W        W34252   6.059  12.305  12.482  0.0140 -0.1514 -0.0557
18636W        W34253   1.591  16.055   2.217 -0.1232  0.1602  0.0157
18637W        W34254   4.528  11.005  15.872  0.0281  0.2953 -0.0714
18638W        W34255  14.830   2.276  16.272  0.0489 -0.1779 -0.0281
18639W        W34256  12.248   5.770  16.108  0.0384 -0.1010  0.2864
18640W        W34257   3.406   1.325  16.274  0.0093 -0.1248 -0.0883
18641W        W34258  15.129   6.950   2.355  0.0518 -0.2473  0.0901
18642W        W34259  15.625   3.932   4.638  0.2125  0.1097  0.2143
18643W        W34260  10.340  16.133  15.009  0.0000  0.0916  0.0975
18644W        W34261   3.951   6.283   3.777 -0.2819 -0.0773  0.0188
18645W        W34262  13.474   1.622   2.265 -0.1772 -0.0838 -0.2144
18646W        W34263   3.185  12.708   4.668 -0.0204  0.3729  0.0379
18647W        W34264   3.875   1.933   3.936  0.2216  0.3925 -0.2237
18648W        W34265   8.296   5.779   0.499 -0.0201  0.1160  0.0815
18649W        W34266   3.023   1.061  14.326  0.2858  0.3100 -0.1810
18650W        W34267  16.792   2.817   0.589  0.0086 -0.0929  0.2280
18651W        W34268  10.690  14.428  14.037 -0.2227 -0.1272 -0.0340
18652W        W34269   2.963  14.475   1.207 -0.0266 -0.0259 -0.1997
18653W        W34270  12.367   5.975  12.787  0.1173  0.1801  0.0050
18654W        W34271   8.794  14.790  13.905  0.4077  0.0653 -0.4479
18655W        W34272  11.966  16.673  12.583  0.1024 -0.2112  0.1524
18656W        W34273  13.088   1.923   2.448 -0.1696 -0.4443  0.1126
18657W        W34274  11.477  13.047  14.846  0.1661  0.0277  0.0462
18658W        W34275  14.599  12.615   4.170  0.3272  0.1612  0.1379
18659W        W34276   7.091  13.055  16.845  0.0777 -0.0335 -0.1481
18660W        W34277  14.928   4.856  13.436  0.0774  0.0736  0.4112
18661W        W34278  10.095  13.081   3.408 -0.1572 -0.0007  0.0540
18662W        W34279  12.595   6.879  15.299  0.4318 -0.0162 -0.1714
18663W        W34280  16.834   6.880  14.685  0.3093  0.0746  0.0208
18664W        W34281  16.988   4.904   3.947 -0.0490 -0.1289 -0.0629
18665W        W34282   7.836   0.594  15.876 -0.2280 -0.0534  0.1034
18666W        W34283   2.933  15.621   2.306  0.0921 -0.2147 -0.1430
18667W        W34284   2.083   8.562   4.515  0.2003 -0.1609  0.0779
18668W        W34285   6.486  13.187   2.899 -0.0827  0.0872  0.1973
18669W        W34286  10.602   9.308   3.578 -0.0010  0.1538 -0.1480
18670W        W34287   5.926  14.584  13.588  0.1099  0.3254  0.4508
18671W        W34288   2.319   6.024  15.512  0.1465  0.0022  0.0629
18672W        W34289  12.948  17.510  10.748 -0.0992 -0.0237  0.0705
18673W        W34290   9.848   6.903  11.139  0.0361  0.1835  0.1804
18674W        W34291   5.243   1.803   2.160  0.0594 -0.1348 -0.0073
18675W        W34292   3.239   9.616  16.472 -0.2038  0.1263 -0.1510
18676W        W34293   3.664   4.037  14.809 -0.0946 -0.4007 -0.1107
18677W        W34294   8.674   1.076  14.133  0.1385  0.1219  0.3425
18678W        W34295  17.183   0.100   2.148  0.2132  0.0797  0.0036
18679W        W34296   3.392   2.398   1.879  0.1628  0.1798  0.2445
18680W        W34297   3.392  17.055   4.417  0.3359  0.0551 -0.0232
18681W        W34298  10.768  13.425  15.720 -0.0338  0.1299 -0.0099
18682W        W34299  16.299   1.989   2.653 -0.1305 -0.2890 -0.1235
18683W        W34300   5.070   1.699  13.682  0.1262 -0.0589 -0.1000
18684W        W34301  15.199   2.809  12.030  0.2909  0.1229  0.2186
18685W        W34302  12.925   2.339  16.720 -0.1842 -0.0714 -0.0695
18686W        W34303   7.602  14.855  16.436 -0.1124 -0.2602 -0.2748
18687W        W34304   0.899  14.582  14.324  0.0480 -0.0887  0.4567
18688W        W34305   2.392   3.869  14.125 -0.0748  0.2376  0.0519
18689W        W34306  10.837   9.286   4.042  0.2046  0.0238  0.0751
18690W        W34307   0.717   3.141   2.548 -0.3886 -0.3584  0.0034
18691W        W34308   2.729  16.235  11.684 -0.0179  0.0332 -0.1620
18692W        W34309   9.665   3.410  13.733  0.0045  0.0219  0.0068
18693W        W34310  10.080  12.106   2.282 -0.1260  0.0819  0.0544
18694W        W34311  17.209   1.180  11.982  0.3374 -0.0655  0.1751
18695W        W34312   7.781   9.140  13.341 -0.0174  0.0789  0.0276
18696W        W34313   2.930   0.526   4.571 -0.0306  0.1122  0.1624
18697W        W34314  14.385  11.495   4.426  0.0762  0.3122 -0.0476
18698W        W34315   7.909  14.090  13.461 -0.1726 -0.3504  0.3471
18699W        W34316  14.176   8.906  14.516 -0.4157 -0.1406 -0.0529
18700W        W34317  14.413  15.437   2.783  0.0387 -0.0058  0.2628
18701W        W34318  15.900   0.280  14.896 -0.0109 -0.0328 -0.1180
18702W        W34319   4.409  12.178   4.920 -0.1876  0.1937  0.0084
18703W        W34320   0.688   6.228  15.056  0.2623  0.0049  0.3512
18704W        W34321  17.203  13.658  16.763 -0.0210 -0.2075  0.2089
18705W        W34322   0.794   0.259  16.873 -0.3411 -0.1466 -0.0313
18706W        W34323  15.881   6.701   3.397 -0.3638 -0.0073 -0.1002
18707W        W34324  15.866  13.226  17.172 -0.1283  0.0865  0.0486
18708W        W34325   7.532   5.282  13.104  0.3471 -0.0662  0.1538
18709W        W34326  16.933   3.602   0.910 -0.0686  0.0384 -0.0624
18710W        W34327   2.298   3.000  13.280 -0.0305  0.0066  0.1836
18711W        W34328  17.523   2.207  16.669 -0.3093  0.2960 -0.0672
18712W        W34329   2.605   4.111   1.571 -0.1763 -0.1635  0.1821
18713W        W34330  15.320   7.004   0.564 -0.0806  0.0127 -0.0447
18714W        W34331   7.420  12.753  16.622  0.2563 -0.0934 -0.1781
18715W        W34332   9.105   3.377  15.671  0.0623 -0.1548 -0.0713
18716W        W34333  11.259  11.505  17.221  0.2908 -0.0551  0.0707
18717W        W34334   4.436   5.145   4.727  0.0088  0.2829 -0.0862
18718W        W34335   1.320   0.752  14.328  0.2387  0.2537 -0.0896
18719W        W34336  11.900   8.842   4.935 -0.0320  0.0075 -0.2346
18720W        W34337  15.626   6.734   5.121 -0.2564  0.1075  0.1717
18721W        W34338   0.037   1.506  16.122  0.2601  0.1037 -0.0578
18722W        W34339  12.405  16.531  12.015  0.0571  0.2416  0.0499
18723W        W34340  14.716   1.520  11.858  0.3424 -0.0818 -0.1333
18724W        W34341  15.968  15.599  16.404 -0.3401 -0.3676  0.0711
18725W        W34342   7.360   3.863  16.776 -0.0693  0.2027 -0.2496
18726W        W34343   1.925  16.604   5.135  0.3558 -0.0740  0.0229
18727W        W34344   2.584   3.179  15.576 -0.0434 -0.0968  0.3899
18728W        W34345   6.511  17.410   6.276 -0.1015  0.1860  0.0022
18729W        W34346   0.752  10.642   2.862 -0.2376  0.3459 -0.4412
18730W        W34347   2.041  11.479   5.338  0.4139  0.0242  0.0955
18731W        W34348   6.682   1.826   0.417  0.0568  0.4689 -0.0309
18732W        W34349   4.232   0.746  17.075  0.1032 -0.4318 -0.1122
18733W        W34350   1.408   4.974  12.714  0.0073  0.1810  0.0735
18734W        W34351   7.338   7.105   4.911 -0.0555 -0.0759  0.2027
18735W        W34352  11.782   9.739   3.961  0.2834 -0.0037 -0.1163
18736W        W34353  14.704  16.450  10.758 -0.2140 -0.2786 -0.0808
18737W        W34354  15.593  15.243  12.713 -0.2218  0.1866 -0.0060
18738W        W34355  13.048   3.920   0.022 -0.2668  0.2085  0.3575
18739W        W34356   4.494   7.098   1.218 -0.2271 -0.1610 -0.3495
18740W        W34357   9.491   2.117  14.335  0.2517 -0.1052  0.0506
18741W        W34358  16.537  13.390  14.410  0.1160  0.2312  0.1797
18742W        W34359  14.241   7.835  15.400  0.0014  0.2236  0.0294
18743W        W34360  13.945  15.845  15.831 -0.0850 -0.2334 -0.1631
18744W        W34361  10.453  11.422   0.376 -0.0007  0.0314  0.3132
18745W        W34362   5.587  12.473   0.769 -0.2707 -0.1920  0.2530
18746W        W34363  14.635   8.217  13.307  0.2579  0.0931 -0.3679
18747W        W34364  14.295   0.625   3.924  0.0611 -0.0165  0.1216
18748W        W34365  13.170   2.005  13.475 -0.0108 -0.3116  0.0621
18749W        W34366   2.050  13.984  17.116 -0.0243  0.1836 -0.1454
18750W        W34367  13.693  15.119   4.168  0.1486 -0.0456  0.0348
18751W        W34368   5.165   0.638   1.499 -0.1294 -0.1955 -0.0003
18752W        W34369   7.177  15.602  17.108 -0.1687  0.0705 -0.1670
18753W        W34370  10.098  15.408   5.511 -0.1845 -0.1726 -0.2155
18754W        W34371   8.159   6.701  13.402  0.0833 -0.1178  0.2229
18755W        W34372   1.692  13.376   0.708  0.1575 -0.0280 -0.1270
18756W        W34373   2.865   4.569  16.663  0.1722  0.0574  0.1928
18757W        W34374  14.345   1.793  12.850 -0.2926 -0.1192 -0.1495
18758W        W34375  13.202  14.259   0.202 -0.1235 -0.0604  0.1778
18759W        W34376   7.549   0.806   3.581 -0.0335 -0.1721  0.0684
18760W        W34377   9.730  12.648   5.121  0.0254  0.2533  0.0454
18761W        W34378  12.080  13.966  16.120  0.0297 -0.0761 -0.3163
18762W        W34379   3.823   6.452   2.308  0.1143 -0.0486 -0.3608
18763W        W34380   3.005  16.042  13.083 -0.0115  0.0886 -0.0474
18764W        W34381  12.925  15.592  13.206  0.0698 -0.0849 -0.0960
18765W        W34382   9.234   2.700   1.764  0.0391 -0.0463 -0.1460
18766W        W34383  15.628   0.428  13.687 -0.3062  0.3358 -0.0926
18767W        W34384   9.053   0.689  10.930 -0.0890 -0.0000  0.1348
18768W        W34385  14.096   9.132   5.281 -0.1008  0.2767  0.2759
18769W        W34386  14.398  15.241  12.429  0.0442  0.1057 -0.1050
18770W        W34387   2.625   1.945  14.300 -0.2818 -0.0474 -0.1001
18771W        W34388  15.100   0.778  13.779  0.2709  0.0397 -0.0100
18772W        W34389  15.419  13.427  12.803  0.0405  0.0318 -0.0280
18773W        W34390  14.488  12.209   0.213  0.2051  0.0024 -0.0066
18774W        W34391  11.857  10.561   3.280 -0.0978 -0.2015 -0.0776
18775W        W34392   9.826   7.027   4.094 -0.1744  0.1189 -0.0384
18776W        W34393   4.242   0.445   4.111  0.1705  0.0229 -0.1996
18777W        W34394   1.505  12.613  13.702  0.2045 -0.3237 -0.2191
18778W        W34395  11.746   2.893   6.046 -0.1410 -0.2818 -0.2433
18779W        W34396  13.187   2.144  14.988 -0.4601 -0.0086 -0.2143
18780W        W34397   6.673   8.124   3.183 -0.1139 -0.1013 -0.1346
18781W        W34398  17.180  12.554  12.299 -0.1222  0.2100 -0.1436
18782W        W34399  11.553  10.135   5.398 -0.0211 -0.2883  0.2535
18783W        W34400  11.280   9.267   4.234 -0.2966  0.1009 -0.0460
18784W        W34401   4.563  12.177  17.130 -0.0131  0.2783 -0.0594
18785W        W34402  14.849   6.853  15.110  0.2743  0.0923 -0.1915
18786W        W34403   8.328   6.014   0.932 -0.0295  0.1584 -0.1618
18787W        W34404   5.981   7.675   5.430 -0.2175 -0.2489  0.1845
18788W        W34405   0.989  16.204  12.199  0.0503 -0.0823  0.1694
18789W        W34406   0.088   7.308   5.291  0.1054  0.1806 -0.0329
18790W        W34407   2.596  10.076   3.479 -0.2141  0.3756  0.2919
18791W        W34408  15.745   6.028   1.358 -0.1663  0.2767  0.5236
18792W        W34409   2.150  15.658   4.990  0.2793  0.2240 -0.0572
18793W        W34410   4.639   2.627   3.731 -0.0329  0.4144 -0.1605
18794W        W34411   3.488   4.017  15.814  0.0690 -0.2485 -0.2051
18795W        W34412   0.422   9.438   0.067  0.1326  0.0293 -0.1493
18796W        W34413   8.840   5.103  15.678  0.1809 -0.3391 -0.0429
18797W        W34414   9.809   0.688  16.886 -0.0822 -0.0241 -0.0275
18798W        W34415   2.137   3.890   1.553 -0.0936 -0.0214 -0.1192
18799W        W34416   0.301  11.657   2.212  0.2236 -0.0433 -0.1096
18800W        W34417  15.638   1.782   4.571 -0.0299  0.1403  0.0101
18801W        W34418  13.061  16.567   1.004 -0.0955  0.1538  0.0274
18802W        W34419   5.114  15.011   1.919 -0.1171 -0.1234 -0.0247
18803W        W34420   7.335   3.011  17.052 -0.4161 -0.0390 -0.1168
18804W        W34421  17.543  16.371  13.572 -0.0843  0.4000 -0.0942
18805W        W34422   0.524  17.278   4.047 -0.0538 -0.2616 -0.1627
18806W        W34423  15.400   8.517   2.368  0.2971 -0.0662  0.0423
18807W        W34424   2.854  10.497   1.784 -0.0919  0.0001  0.1937
18808W        W34425   7.150  16.686   1.704  0.1499  0.0548 -0.0487
18809W        W34426   2.763  17.007   3.035 -0.1871 -0.1372 -0.2084
18810W        W34427   1.443   6.100  16.684 -0.1807 -0.1173  0.1916
18811W        W34428  16.316   7.109  13.637 -0.2020  0.1939  0.0549
18812W        W34429   6.647   0.634  12.518 -0.3701 -0.0043 -0.1522
18813W        W34430  15.220   5.607   2.621  0.3134 -0.0016  0.1870
18814W        W34431  13.754  11.479   6.537 -0.3495 -0.0848 -0.1663
18815W        W34432  16.977  11.208  16.062  0.0113  0.0111  0.0806
18816W        W34433   1.558  10.990   1.658 -0.0718  0.0632 -0.0095
18817W        W34434  11.139   8.551   0.336 -0.4369 -0.2207  0.1558
18818W        W34435   8.601   2.916   3.606 -0.0810 -0.1157  0.3260
18819W        W34436  13.963   2.931  13.261  0.0870 -0.2676 -0.0763
18820W        W34437  13.336   2.916  14.497 -0.0541 -0.2158 -0.0636
18821W        W34438   7.751   2.023   4.283  0.2250  0.1902 -0.0699
18822W        W34439  11.516   9.535  12.502 -0.2541  0.2330  0.2265
18823W        W34440   7.235   9.722   1.799 -0.2463  0.0045  0.1757
18824W        W34441  15.113   2.913   2.719  0.1834 -0.0845  0.1579
18825W        W34442  15.325  11.838   2.660  0.1997  0.0883  0.0319
18826W        W34443   9.946   8.473   1.134  0.0369  0.0645  0.3233
18827W        W34444   2.066  13.288   2.278 -0.3680 -0.0903  0.0985
18828W        W34445   7.064   8.838  12.870 -0.2086 -0.1065  0.1977
18829W        W34446  13.698   8.744  14.470  0.1593  0.0278  0.2655
18830W        W34447   5.641   2.978  15.585 -0.0436  0.0454 -0.0785
18831W        W34448   4.599   4.791  13.288 -0.0711  0.0277 -0.1791
18832W        W34449   5.958   3.651   3.997  0.0871  0.0013 -0.1488
18833W        W34450   3.440   5.540   1.574  0.0621 -0.4718  0.1245
18834W        W34451  12.924  15.567   5.293 -0.0084 -0.2078  0.0856
18835W        W34452   6.361   5.358   5.306 -0.2129 -0.1191  0.1464
18836W        W34453   8.696   7.295  16.707  0.0334 -0.1125 -0.0739
18837W        W34454   3.443   8.518  13.224 -0.0584 -0.2102  0.2936
18838W        W34455  10.539  13.711  13.723 -0.1157  0.1173  0.0560
18839W        W34456  17.161   9.233   2.696 -0.2059  0.0063 -0.0917
18840W        W34457  12.091  13.068  13.552  0.0636  0.0837 -0.0454
18841W        W34458   9.935  11.496   4.971  0.3164  0.0550 -0.1494
18842W        W34459   3.439   0.189  12.392  0.4690  0.1945 -0.1534
18843W        W34460  12.544   1.339  11.652 -0.2510 -0.3217  0.0141
18844W        W34461  10.796  17.524  13.790 -0.1270 -0.1450  0.4349
18845W        W34462   6.972  16.023  11.976  0.0988  0.1340 -0.4414
18846W        W34463  10.037   5.107   3.395 -0.2378  0.2202  0.0684
18847W        W34464   8.575   2.566  15.281 -0.1517 -0.1657 -0.0376
18848W        W34465  16.218   8.481  16.832 -0.4735 -0.1045  0.2343
18849W        W34466  16.366   5.535   6.318  0.2190  0.3618 -0.3411
18850W        W34467  15.290  15.268   0.343  0.1197  0.0235  0.3341
18851W        W34468  14.984  16.737   4.626 -0.0879  0.1214  0.2946
18852W        W34469   0.970   6.513  15.826 -0.1391  0.2699  0.0258
18853W        W34470   1.568  17.260   3.148 -0.2253 -0.2434 -0.0119
18854W        W34471   2.543   8.667  15.342 -0.0344  0.0621 -0.0849
18855W        W34472  15.064  16.475  16.293  0.2142  0.2194 -0.3040
18856W        W34473  10.287  11.325  17.128 -0.0400  0.0455 -0.0400
18857W        W34474   6.486  11.559  16.404 -0.2899 -0.0316 -0.2763
18858W        W34475   0.614  12.011   1.341  0.0398  0.0923 -0.1878
18859W        W34476  12.404   1.566   3.348 -0.0158  0.0228  0.0744
18860W        W34477   6.463  12.591  13.270 -0.0562 -0.3988 -0.0934
18861W        W34478   9.121   7.614  12.283  0.2113 -0.0864  0.1614
18862W        W34479  16.485  11.834   1.007  0.0848  0.1108 -0.1774
18863W        W34480   3.087  11.373  15.117 -0.0009 -0.3017  0.1967
18864W        W34481  11.266   2.337   5.248  0.0881 -0.0149 -0.1169
18865W        W34482   8.304  14.032   2.220 -0.0687  0.0148 -0.4774
18866W        W34483  11.454   8.553   4.842 -0.2397 -0.3505  0.0621
18867W        W34484  15.383  17.103  15.212 -0.1929  0.2273  0.0115
18868W        W34485  11.824  10.161   2.886  0.3224 -0.0522 -0.0704
18869W        W34486  13.308   0.620  11.697  0.0590 -0.1924  0.5105
18870W        W34487   6.787  10.701  15.733 -0.1660 -0.2288 -0.1758
18871W        W34488   7.578   4.536   0.489 -0.0745 -0.0298  0.3899
18872W        W34489   4.635   7.522  16.528  0.3480  0.0542  0.1198
18873W        W34490  12.496  10.068   0.872 -0.0939  0.1486  0.1671
18874W        W34491   0.507   3.274   4.321  0.3199 -0.1289 -0.2994
18875W        W34492  14.749   2.865  14.236  0.0143  0.1632  0.1670
18876W        W34493  12.183  10.840  13.646 -0.0623  0.0225 -0.0162
18877W        W34494   8.972  12.574   0.851  0.3261 -0.0556  0.0472
18878W        W34495  15.143   4.545   2.697  0.1416  0.1827  0.2301
18879W        W34496   8.340   9.023  13.220 -0.2451 -0.2014  0.0199
18880W        W34497  15.838  13.740  14.218  0.0119 -0.0438  0.1322
18881W        W34498   7.324   0.408  13.836  0.4273 -0.1300 -0.3620
18882W        W34499   7.320   2.679   2.214  0.0050  0.1720  0.0379
18883W        W34500  11.785   5.644  15.186 -0.2850 -0.1674  0.0455
18884W        W34501   7.392   9.848  16.068  0.2929 -0.0415  0.0036
18885W        W34502  10.483  17.071   3.700 -0.2631 -0.0059 -0.0295
18886W        W34503   3.837   4.061   1.175 -0.0895  0.1151  0.2110
18887W        W34504  10.263   7.277   1.422 -0.1273  0.2803  0.1122
18888W        W34505  15.965  12.855  15.473 -0.0202  0.0296  0.0989
18889W        W34506   6.099   5.800   5.879 -0.1617 -0.0951  0.1160
18890W        W34507  17.178   6.070  13.664 -0.1092 -0.1574  0.2743
18891W        W34508   5.759   3.821   4.803 -0.2257  0.2312  0.0403
18892W        W34509  11.591   6.339   3.212  0.2195  0.0558 -0.3166
18893W        W34510  16.855   3.094   1.032 -0.3156 -0.1918  0.0042
18894W        W34511  17.300  16.073  15.651 -0.0602  0.0467  0.2446
18895W        W34512   6.996   8.158   5.206  0.0562  0.0379 -0.3208
18896W        W34513   6.652  14.467   0.657  0.1823  0.1133 -0.0771
18897W        W34514  14.981  10.848  16.959  0.1640 -0.1257 -0.0906
18898W        W34515  16.943   8.982  16.548 -0.1223  0.0074  0.0381
18899W        W34516  10.767  12.317   4.256  0.1483 -0.1803 -0.1538
18900W        W34517  13.221   6.763  15.929 -0.0510 -0.1589  0.1072
18901W        W34518  12.625   0.559   3.455 -0.2912  0.1582  0.1338
18902W        W34519   4.969  12.139  14.757  0.0797 -0.0705  0.3000
18903W        W34520   4.673   1.455  13.971 -0.3225 -0.2487 -0.1037
18904W        W34521   5.771  10.334   3.918  0.0780  0.1750 -0.0500
18905W        W34522   5.831   5.642   2.178  0.0528 -0.0229 -0.0046
18906W        W34523  10.352   6.921  13.280 -0.0513 -0.0831 -0.1498
18907W        W34524   4.595   1.528   2.816  0.1155  0.0132  0.0298
18908W        W34525   6.090   2.786   3.981 -0.1800 -0.1148  0.0461
18909W        W34526   0.001   5.794   1.865 -0.1574  0.0529 -0.0615
18910W        W34527   3.952  12.834  16.262 -0.1399  0.0249 -0.0592
18911W        W34528   6.424  15.440   1.866 -0.1006 -0.0403  0.0218
18912W        W34529   8.482  17.075   1.255  0.3742  0.0678 -0.0420
18913W        W34530  11.422   3.342  15.272  0.0452  0.0452  0.2757
18914W        W34531   4.186   4.749   2.401  0.4949  0.0718 -0.0828
18915W        W34532  10.448   5.387   4.902  0.0961  0.0150  0.3792
18916W        W34533   6.334   1.645  16.412 -0.0399  0.0393  0.4480
18917W        W34534   3.157   2.985  12.398  0.2832 -0.0612 -0.2402
18918W        W34535   9.204  17.376   5.307 -0.0158  0.0667 -0.1158
18919W        W34536   8.243  13.684  13.248 -0.0055 -0.2001 -0.2156
18920W        W34537   4.426   3.062  15.734 -0.0452  0.0649 -0.2632
18921W        W34538   5.243   9.396   0.588 -0.0110  0.1735  0.1741
18922W        W34539  17.000  16.747   4.534 -0.1410 -0.1133 -0.1775
18923W        W34540  15.025  14.291  15.922  0.0249  0.0621  0.0997
18924W        W34541  17.283  16.955  14.576 -0.2422 -0.0136 -0.4503
18925W        W34542   6.460  10.045  13.066 -0.2173  0.0831  0.3508
18926W        W34543   5.021  12.985  16.615  0.4228  0.0968  0.0916
18927W        W34544   6.537   9.940  13.577 -0.0791 -0.2692  0.0751
18928W        W34545   5.673   5.995  13.948 -0.1677  0.0575  0.0813
18929W        W34546   2.737   9.529   1.019 -0.1772  0.4476  0.1491
18930W        W34547   2.572  11.351   2.520  0.3068  0.0802  0.2007
18931W        W34548   4.481  12.879   4.111 -0.2808  0.1274  0.2560
18932W        W34549   2.678   1.491   5.101  0.1249  0.2745 -0.2549
18933W        W34550  10.837  10.308   2.781  0.3982 -0.1575  0.0506
18934W        W34551  14.797  13.854   3.992  0.1487 -0.0435  0.0043
18935W        W34552   5.075   5.276  16.886 -0.3225 -0.1025  0.1800
18936W        W34553  17.481  14.588  14.153  0.2662 -0.1454  0.1753
18937W        W34554  15.492  12.362   4.077 -0.2418  0.1371 -0.3264
18938W        W34555  15.493  16.710   3.443  0.2722  0.1233 -0.5457
18939W        W34556   1.875  14.182   2.624 -0.0384  0.3365  0.1270
18940W        W34557  15.547   1.807  14.045 -0.1485 -0.1194 -0.0616
18941W        W34558   7.097   2.823  13.225 -0.0120 -0.0152  0.0165
18942W        W34559   7.308   9.739   1.242  0.2314  0.1432  0.1256
18943W        W34560  11.534   0.905  11.502  0.1314 -0.1161 -0.0262
18944W        W34561   2.688  15.618   1.171  0.1067  0.0231  0.1224
18945W        W34562  15.156   7.750  13.152 -0.0208  0.2064 -0.1811
18946W        W34563   8.119   9.116   3.561  0.1986 -0.0044  0.0522
18947W        W34564   0.198  11.535  16.676 -0.0256  0.3802  0.1917
18948W        W34565  16.440  17.321   0.798  0.1707 -0.0053  0.0944
18949W        W34566   9.268  12.794   3.127  0.3691  0.0206 -0.2370
18950W        W34567   6.737   6.751   1.843  0.2713  0.1178  0.2442
18951W        W34568  13.880   1.180  14.200 -0.0675  0.0373  0.0198
18952W        W34569   2.157   6.591   4.592  0.1323 -0.1912 -0.0561
18953W        W34570   4.260   5.420  15.039  0.1710 -0.1770 -0.2392
18954W        W34571  17.105   0.189   4.824  0.0736 -0.0485 -0.0240
18955W        W34572   3.114  13.580  13.424  0.2400 -0.1891  0.1885
18956W        W34573  14.425   7.886  12.959 -0.1812  0.1398 -0.0566
18957W        W34574  14.423   1.610   2.741 -0.0538 -0.1747  0.1648
18958W        W34575   3.464   7.339   2.746 -0.1058 -0.2081  0.2410
18959W        W34576   4.607   0.098  14.248  0.0424 -0.0972  0.1728
18960W        W34577  15.241  11.704   0.386 -0.1911 -0.0478 -0.0388
18961W        W34578  14.345   8.268   1.455  0.2073  0.0721 -0.0660
18962W        W34579  12.251   5.210   2.707  0.0936 -0.4373  0.0911
18963W        W34580   9.947   4.815  15.958 -0.0370  0.0897 -0.0135
18964W        W34581   4.807  14.394   4.777  0.1561  0.2307 -0.0262
18965W        W34582  11.695   8.881   2.606 -0.0097  0.0020  0.2527
18966W        W34583   6.557  17.309   2.301 -0.0334  0.0730 -0.3677
18967W        W34584  12.026   3.039  14.708  0.1646  0.0029 -0.2280
18968W        W34585   5.358   6.610  13.111  0.0186  0.0247 -0.1469
18969W        W34586  16.129  13.329   5.700 -0.0489  0.0033  0.0418
18970W        W34587   5.024  11.748   1.584 -0.3081  0.1223 -0.0677
18971W        W34588  12.544  15.143  13.085 -0.3367  0.0394 -0.2095
18972W        W34589   1.605  15.160  11.733 -0.0365  0.0808  0.2801
18973W        W34590   7.756   8.782   3.659  0.1052  0.1283  0.5213
18974W        W34591   8.769  16.255   0.156 -0.1795 -0.3437 -0.0864
18975W        W34592   2.920   3.090   6.688  0.2139  0.5177 -0.1502
18976W        W34593  13.326  16.483  13.018 -0.1057 -0.1706 -0.1432
18977W        W34594   8.585   6.519   1.145 -0.0587  0.0302 -0.0780
18978W        W34595   4.060  12.547   3.778 -0.1017 -0.2479  0.0171
18979W        W34596  10.391   8.930   0.961  0.1079  0.0237  0.0691
18980W        W34597  14.221   1.364  10.978  0.2060 -0.0664 -0.1085
18981W        W34598   8.184   6.240  10.820  0.0299 -0.0748 -0.0732
18982W        W34599   0.891  16.136  14.889 -0.4078  0.0452 -0.1597
18983W        W34600  13.481  10.994   5.610  0.0181 -0.0750 -0.0425
18984W        W34601   6.428  14.758   2.220 -0.0492 -0.1012  0.0638
18985W        W34602  12.811  12.529   3.632  0.3395  0.0550 -0.2695
18986W        W34603  12.839   8.865  11.582 -0.2504 -0.0478 -0.1399
18987W        W34604   7.141  13.499   5.140 -0.0890  0.0478 -0.0444
18988W        W34605   6.488   8.251   3.686 -0.0180 -0.0530  0.0246
18989W        W34606   1.284   0.764   3.750  0.1641 -0.0725  0.0094
18990W        W34607  16.442  16.588   2.108  0.2671 -0.1643  0.1121
18991W        W34608   5.418   9.433  11.977  0.0749 -0.2440  0.3643
18992W        W34609   0.301   1.141   1.874 -0.1355  0.0338 -0.3000
18993W        W34610   3.580   7.042  14.962 -0.0297  0.0998 -0.0419
18994W        W34611  15.281  12.513  16.601  0.0250 -0.3372  0.0680
18995W        W34612   0.145   2.172  17.249 -0.1783  0.1194 -0.1388
18996W        W34613   2.754   5.603   2.717  0.1764  0.0115  0.2925
18997W        W34614   9.397  16.039  16.619 -0.0356 -0.0058  0.1210
18998W        W34615   1.582   0.622   5.341 -0.0402 -0.0234  0.1463
18999W        W34616  11.343   6.859  12.057 -0.0728  0.0775 -0.1462
19000W        W34617  11.367   6.448   1.273 -0.1028  0.0710 -0.1033
19001W        W34618  14.687   6.310   4.558  0.0944 -0.0459 -0.0309
19002W        W34619  16.339  15.215   0.213  0.0450 -0.0890 -0.0099
19003W        W34620   3.354  12.625   1.472  0.0176  0.1014 -0.4340
19004W        W34621   6.924  16.841   5.724 -0.3093  0.2143 -0.5281
19005W        W34622   5.217  10.523   3.363 -0.1615 -0.0237 -0.0025
19006W        W34623   0.015  10.458   2.469  0.2021  0.1772  0.0441
19007W        W34624  15.758   8.724   5.268  0.3069 -0.0192  0.0500
19008W        W34625  17.202   5.629  12.807  0.0663 -0.1284  0.3662
19009W        W34626   3.796   8.089   3.381 -0.0826  0.0946 -0.1899
19010W        W34627   3.474  11.792   0.270 -0.1548 -0.0057 -0.1645
19011W        W34628   4.382  15.180   3.825  0.0704 -0.1868 -0.1456
19012W        W34629   4.709   3.173   1.254 -0.0283 -0.2949 -0.4055
19013W        W34630   6.878   8.099   4.228 -0.1098 -0.1764  0.1296
19014W        W34631   0.613   4.607   3.846 -0.2475  0.2839 -0.1532
19015W        W34632   9.934   2.681  13.178 -0.1985  0.0493  0.0047
19016W        W34633  14.202  12.381   1.476  0.2511 -0.0071  0.1303
19017W        W34634  14.468   8.238  16.167  0.1581  0.1251 -0.0857
19018W        W34635   1.342  16.076   1.273 -0.0381 -0.2565 -0.0565
19019W        W34636   3.282  17.566  16.328 -0.1365 -0.0953 -0.1498
19020W        W34637   2.207   4.375   4.568 -0.0707 -0.1042 -0.1729
19021W        W34638   9.224  16.517  13.223 -0.4390 -0.0822  0.1001
19022W        W34639  13.601  11.667   2.891  0.0982 -0.0805 -0.1552
19023W        W34640   6.095  10.060   3.095 -0.0178 -0.2149 -0.0194
19024W        W34641  16.485  14.190   0.319 -0.1833  0.0883 -0.0255
19025W        W34642   6.046   0.912   4.333 -0.2627 -0.1659  0.0154
19026W        W34643   9.227  15.740  14.720 -0.2195  0.0606  0.0494
19027W        W34644   5.699   6.371   2.119  0.2102  0.0773 -0.1643
19028W        W34645  16.602  10.258   1.611  0.2232  0.0023  0.0484
19029W        W34646   5.196   2.594   5.266 -0.0646  0.0813  0.0721
19030W        W34647   5.046   7.376  15.095  0.2228  0.0100 -0.0485
19031W        W34648  16.025   4.264  14.465  0.0247  0.2083 -0.0374
19032W        W34649  14.176   0.434  14.662 -0.0692  0.0465  0.1933
19033W        W34650  11.228  11.515   5.468  0.2587 -0.0440 -0.2305
19034W        W34651  12.858   8.711  14.312 -0.1911 -0.0828  0.2290
19035W        W34652   4.028  15.581  15.619  0.0818  0.1504 -0.1053
19036W        W34653   2.069   4.189   5.540  0.4894 -0.2972 -0.0917
19037W        W34654  13.317  14.608  13.206  0.0830  0.0704  0.0467
19038W        W34655   8.506   1.176   2.625 -0.1737 -0.2057  0.0067
19039W        W34656   6.188   2.430  15.173  0.2799  0.3074 -0.0495
19040W        W34657   7.844   6.466   5.625 -0.0981 -0.1899 -0.1826
19041W        W34658  15.994   2.944  15.895  0.1423 -0.3149  0.2635
19042W        W34659   9.406   9.546  12.725  0.3368  0.0550 -0.0040
19043W        W34660  11.404   2.025  14.070 -0.0316 -0.1076  0.0473
19044W        W34661  13.213   7.517  15.104  0.1784  0.3747  0.2114
19045W        W34662  11.546   1.842  12.618  0.1645 -0.2022  0.1175
19046W        W34663   9.593   8.840  16.684  0.0869  0.1071  0.0994
19047W        W34664  11.049  15.942  14.688  0.2694 -0.0536  0.1158
19048W        W34665  10.803   2.528   1.880  0.2297  0.3131 -0.1605
19049W        W34666   0.937   6.460  12.886  0.3088  0.3025 -0.0362
19050W        W34667   5.830  15.902   4.176  0.1845 -0.1140 -0.2509
19051W        W34668   9.941  10.026   5.809 -0.0673 -0.1753  0.0330
19052W        W34669  14.336  12.254  13.637  0.1465 -0.3095 -0.0922
19053W        W34670  16.611   0.626   1.367 -0.0707  0.2334 -0.1158
19054W        W34671  17.357   7.275   2.074 -0.0532 -0.1685 -0.0860
19055W        W34672   6.123   4.993   5.504 -0.1062 -0.1245 -0.0133
19056W        W34673  12.744   8.858   3.359  0.1476 -0.1694 -0.2363
19057W        W34674   0.095  16.387  14.969 -0.2117 -0.0230  0.0192
19058W        W34675   8.206   3.750   5.588  0.0131  0.0018 -0.0999
19059W        W34676  12.897  13.222   1.508 -0.2281  0.1545  0.1433
19060W        W34677   0.566   1.220  14.738 -0.1800  0.0597  0.0908
19061W        W34678   2.314  14.178  14.342 -0.2645  0.2025  0.0709
19062W        W34679   3.320   4.453   5.181 -0.2875  0.3219 -0.0635
19063W        W34680   1.983   8.143  13.940 -0.0068  0.1276 -0.0152
19064W        W34681   5.638   0.117   2.899 -0.1594  0.0235 -0.0766
19065W        W34682   1.577  10.868  16.737 -0.3835 -0.2374  0.2614
19066W        W34683   6.808  12.336   3.161 -0.1660 -0.1641 -0.0168
19067W        W34684   3.218   3.708   4.144  0.1914 -0.0059  0.2070
19068W        W34685   1.832  17.213  16.472 -0.0778 -0.1172 -0.0013
19069W        W34686   3.759  16.545   4.497  0.2791 -0.1073 -0.0779
19070W        W34687  13.127  15.729  16.151 -0.3833 -0.1476  0.2587
19071W        W34688  10.423   6.347  12.021 -0.1446 -0.1369 -0.1069
19072W        W34689  12.326  14.383  13.870 -0.0535 -0.2619 -0.2507
19073W        W34690  14.746   4.459  15.410  0.0959 -0.1246  0.0372
19074W        W34691  16.425  16.161  12.176  0.0296  0.3916  0.2591
19075W        W34692  12.926   2.985  13.589  0.1584  0.3896  0.1638
19076W        W34693  13.301   5.817   4.102  0.0399  0.0163  0.0164
19077W        W34694  14.412  16.838   0.922  0.0895 -0.1758 -0.1928
19078W        W34695  12.750   4.976   1.498 -0.2563  0.1263  0.0074
19079W        W34696   7.745  11.098   0.756  0.3309  0.0332  0.0136
19080W        W34697   3.945  12.361   2.860 -0.0694 -0.1098  0.2708
19081W        W34698  17.255   7.312  15.913 -0.1922 -0.1070 -0.2621
19082W        W34699   0.777   1.403  13.742  0.1409  0.2186 -0.0159
19083W        W34700   8.287   2.375   0.200  0.2060 -0.1090 -0.2351
19084W        W34701   0.816   0.882   4.545 -0.0254 -0.0460  0.0942
19085W        W34702  17.278  16.374   5.073 -0.2626  0.4255 -0.1042
19086W        W34703  13.834  11.504   1.838  0.0635 -0.1994 -0.5739
19087W        W34704  16.195  13.017  12.211  0.0180 -0.1811  0.0106
19088W        W34705   2.643   2.060  16.234 -0.1303  0.1385  0.1439
19089W        W34706   0.205  17.510   0.939  0.3506 -0.1661 -0.1296
19090W        W34707   8.572   7.667  12.012  0.0650 -0.5017  0.0934
19091W        W34708   5.869   7.239   2.556  0.4018  0.2961 -0.0127
19092W        W34709   0.339  15.808   2.952 -0.1589  0.2986 -0.0018
19093W        W34710   7.161  16.972  16.783  0.0125  0.3543 -0.1453
19094W        W34711  10.419  13.953  15.725 -0.2269 -0.0744  0.0195
19095W        W34712   7.810  16.060  15.346 -0.0722 -0.4560 -0.0595
19096W        W34713   6.007  13.935  12.999 -0.2628  0.2916  0.0710
19097W        W34714  14.596   6.751  15.936  0.0668 -0.2085 -0.0043
19098W        W34715   4.148   3.573   1.195  0.1804  0.0547  0.2786
19099W        W34716  16.365   1.623   6.153 -0.0762  0.0940  0.1964
19100W        W34717  15.109  15.014  15.031  0.2072 -0.0358 -0.3755
19101W        W34718   0.208  12.053   5.447  0.2749  0.3397  0.2484
19102W        W34719  14.434  15.219  13.601 -0.0415 -0.1699 -0.1253
19103W        W34720   2.585  15.945   5.133 -0.0630 -0.3348 -0.0434
19104W        W34721   0.486  16.130  12.016 -0.0156 -0.4727  0.1212
19105W        W34722   5.651   7.602  13.971 -0.0106  0.2683 -0.1326
19106W        W34723   5.048  13.710  14.949  0.0849 -0.0650  0.1946
19107W        W34724   3.095  16.988   1.207 -0.0921 -0.0899  0.1363
19108W        W34725   5.849  15.650  13.464  0.1930 -0.1138  0.0996
19109W        W34726   3.084   9.746   0.663 -0.1730  0.3573 -0.1661
19110W        W34727  16.667   4.096  12.405  0.1580 -0.3382 -0.0250
19111W        W34728  12.596   4.225   3.295  0.0681 -0.2396 -0.0381
19112W        W34729  14.451  12.875  14.176  0.4004 -0.2956 -0.0016
19113W        W34730  11.521  15.696  14.726  0.1892  0.0282  0.0223
19114W        W34731  12.970  11.318  17.043 -0.2829  0.1027  0.2960
19115W        W34732  13.782  16.022   3.435 -0.1115 -0.0410 -0.3230
19116W        W34733   7.145   3.487  17.035 -0.0995 -0.1678  0.0191
19117W        W34734   7.544  13.696   1.286 -0.1922 -0.0409  0.2818
19118W        W34735   7.154   0.927   2.626  0.0317 -0.1209  0.2249
19119W        W34736  10.995  11.018  14.329 -0.2871  0.0003 -0.0269
19120W        W34737   9.779   4.328  15.770  0.2460 -0.2203  0.0246
19121W        W34738  16.482  11.916  12.033 -0.0012  0.1036  0.1606
19122W        W34739  13.289   8.523   1.397 -0.3416 -0.1041  0.1266
19123W        W34740  12.071  17.183  13.094  0.1424 -0.0651  0.1287
19124W        W34741  10.619  14.441  14.975  0.0301  0.0686 -0.0530
19125W        W34742   5.413   4.184   5.534 -0.0615  0.2234 -0.3214
19126W        W34743   2.567   1.121   5.569  0.2947  0.2301 -0.1973
19127W        W34744  11.725   7.672   3.426 -0.0324  0.0271  0.0110
19128W        W34745   0.979  10.699   4.209  0.0080  0.0055 -0.2906
19129W        W34746  13.479  11.618  14.822  0.1000  0.1101  0.0926
19130W        W34747  14.915  15.994   0.137 -0.4042 -0.1298 -0.0976
19131W        W34748  10.861  14.373   3.417  0.1142 -0.2422 -0.0491
19132W        W34749  12.182   6.252   1.829 -0.3213 -0.0412  0.1430
19133W        W34750   5.177  10.552   2.849  0.0307  0.5327 -0.0719
19134W        W34751   1.570  11.508   1.962 -0.0316  0.2120  0.0345
19135W        W34752   2.562   1.522   0.868  0.1709  0.0187 -0.1000
19136W        W34753   1.136   3.190  17.177  0.5152  0.1922  0.1937
19137W        W34754  12.570   8.309  13.851 -0.2590 -0.1543 -0.0617
19138W        W34755   9.502   3.039   1.436  0.0935  0.0361 -0.0082
19139W        W34756  14.330  14.377  13.205 -0.3062 -0.0592  0.1016
19140W        W34757   3.724   6.582   4.602 -0.2883 -0.0654  0.2442
19141W        W34758   7.957   3.302   5.603 -0.0185 -0.3762 -0.3087
19142W        W34759   6.692   7.531  16.421 -0.3216 -0.3216 -0.1811
19143W        W34760   4.875  11.840  15.148  0.0600 -0.1833  0.2215
19144W        W34761   1.384  12.668  14.573 -0.3562  0.1181  0.0225
19145W        W34762   4.433   9.114  15.441 -0.3396  0.0411  0.0186
19146W        W34763  10.782   5.298   3.016 -0.0057 -0.1497 -0.0214
19147W        W34764   4.175   1.106  16.691 -0.0100  0.2898  0.1276
19148W        W34765  12.678  16.314  14.269 -0.0127  0.0727  0.0540
19149W        W34766  14.751   2.304   0.069 -0.2091 -0.0498 -0.1638
19150W        W34767  12.133   8.617  17.133  0.0406  0.0209  0.0553
19151W        W34768  17.247   6.940  13.814 -0.2335 -0.2515  0.0868
19152W        W34769  10.552   0.481  14.264  0.1097  0.2332  0.2481
19153W        W34770   4.646   8.760   2.882 -0.2045 -0.2498 -0.0682
19154W        W34771   2.516   5.477   0.886 -0.1132 -0.1687  0.1775
19155W        W34772   5.019  16.173   4.014  0.0505  0.0905 -0.1520
19156W        W34773   4.707  15.948   2.208  0.2236  0.0107 -0.2046
19157W        W34774  10.590  14.181   0.965  0.0556 -0.0580 -0.0898
19158W        W34775  13.917  12.355   3.898  0.1496 -0.0807 -0.1715
19159W        W34776   2.137   7.281   1.501  0.0398  0.2451 -0.2154
19160W        W34777  11.564  16.076  11.557 -0.1120  0.0290  0.0216
19161W        W34778   1.518   8.201   0.619  0.2476  0.2219  0.1456
19162W        W34779  15.379   8.031  12.436  0.3983  0.2953  0.1135
19163W        W34780  15.147  13.759  15.175  0.1457 -0.2609 -0.2299
19164W        W34781  13.039  16.949  11.553 -0.0455  0.0727  0.3275
19165W        W34782   7.187  15.948  13.199 -0.0290  0.0841  0.1695
19166W        W34783   5.473  16.912   4.968  0.0862 -0.4000  0.3403
19167W        W34784   7.922  12.368   1.187  0.3565  0.2254 -0.0633
19168W        W34785   6.706  17.497   0.519  0.0412  0.1563  0.1446
19169W        W34786  14.080   4.233  13.238 -0.1006  0.1160  0.1890
19170W        W34787   4.936   8.402  14.210  0.3833  0.1707 -0.2595
19171W        W34788  12.524   4.582  17.129  0.2145 -0.0668 -0.0424
19172W        W34789  14.758  17.032   4.275 -0.1200  0.2894  0.1388
19173W        W34790   1.474  16.373   0.251 -0.1251 -0.0069 -0.3482
19174W        W34791  15.547   3.409   3.343  0.1790  0.0044 -0.0429
19175W        W34792   0.625  14.519   3.165  0.0520 -0.1719 -0.3413
19176W        W34793   1.783  10.859   2.632  0.0139 -0.1369 -0.2755
19177W        W34794  14.892  12.859   0.990 -0.3267  0.1176 -0.3018
19178W        W34795  17.303   9.319  15.231 -0.0179  0.0976 -0.0065
19179W        W34796   3.997   7.962  16.859  0.2653 -0.0417  0.2128
19180W        W34797   4.453  15.816   6.199 -0.0705  0.0165 -0.1044
19181W        W34798  15.766   3.851   0.243 -0.0129  0.1448  0.2615
19182W        W34799  14.100   0.609   5.237  0.0590 -0.0437  0.1457
19183W        W34800  17.166   1.649  16.095 -0.1551 -0.2363  0.0201
19184W        W34801  12.159   9.040   0.995 -0.0223 -0.1140 -0.0394
19185W        W34802   2.936   6.708   2.397  0.1370  0.0511  0.0947
19186W        W34803   4.059   8.819   1.122  0.2076 -0.0608 -0.3412
19187W        W34804  11.227   9.737  13.405 -0.0160  0.1582 -0.1548
19188W        W34805   8.657  10.973  14.538 -0.3436  0.0174 -0.0961
19189W        W34806  14.590  15.140   4.269 -0.0737 -0.0398 -0.0303
19190W        W34807  12.412   4.157   4.349 -0.0650  0.2354 -0.2332
19191W        W34808  15.295   7.940   2.946  0.1337  0.0426 -0.0363
19192W        W34809  10.511   8.882   4.993 -0.0534 -0.0722 -0.3356
19193W        W34810   3.217   7.050  13.186 -0.0253  0.0174  0.0550
19194W        W34811   5.085  16.988   4.068  0.2778 -0.2280 -0.2305
19195W        W34812  10.100   0.162   2.621 -0.0594 -0.1133 -0.0933
19196W        W34813   1.383   4.625   3.963  0.0852  0.0075 -0.2498
19197W        W34814  12.130  16.604  15.124  0.0565 -0.2154 -0.2132
19198W        W34815   2.901   4.362   5.491  0.2031  0.3601 -0.0427
19199W        W34816   6.779   5.166   3.735  0.1391 -0.2896  0.0668
19200W        W34817  13.325  10.159   6.190 -0.1188 -0.1210  0.0497
19201W        W34818   9.882   5.681   0.913 -0.1221 -0.2557  0.1177
19202W        W34819   2.275  16.093  16.504  0.1046  0.0828 -0.2574
19203W        W34820   7.901  16.805  13.488  0.0118 -0.2301  0.1843
19204W        W34821  13.687  11.804  14.256 -0.3275 -0.1681 -0.1744
19205W        W34822   8.053  14.262   0.662  0.1420 -0.0469  0.2472
19206W        W34823  11.760   2.510  12.799 -0.1794 -0.2461 -0.0315
19207W        W34824   7.053   0.795   3.613 -0.5225  0.0711  0.2604
19208W        W34825  15.174  13.413   3.726 -0.1233  0.5261  0.0974
19209W        W34826  16.670   0.056   5.101  0.0198  0.0596 -0.0778
19210W        W34827   0.683  12.408  12.267  0.5051 -0.2476  0.2334
19211W        W34828   3.584  10.714  13.409 -0.0101 -0.2094 -0.3176
19212W        W34829  12.645  11.474  12.832 -0.0064  0.1628 -0.0413
19213W        W34830   8.956   6.105   5.082 -0.1067  0.2270 -0.0177
19214W        W34831  12.191  12.244   3.288 -0.0115  0.2803 -0.1766
19215W        W34832   0.158  12.298  16.356 -0.0011  0.0188 -0.0750
19216W        W34833   5.772  11.749  13.041 -0.1367  0.1494  0.1403
19217W        W34834  13.122  10.254  15.406 -0.2122 -0.0163  0.0122
19218W        W34835   0.172   1.593   1.661 -0.1487 -0.0133  0.1811
19219W        W34836  14.847  16.255  15.862  0.0874  0.0142  0.1563
19220W        W34837   4.217   5.073  13.483 -0.4718 -0.0130  0.0701
19221W        W34838   9.763   4.727  13.572  0.1944 -0.0317 -0.2491
19222W        W34839   9.933   8.447   4.638 -0.1084 -0.1270 -0.2768
19223W        W34840  10.228  14.357   4.976 -0.2011 -0.1913 -0.2129
19224W        W34841   1.826   7.126  15.971 -0.1506  0.2644  0.4667
19225W        W34842   9.334  12.412  12.723  0.2162  0.0361  0.1410
19226W        W34843  13.576   8.362   0.212  0.1637 -0.3186 -0.1289
19227W        W34844  16.126   5.984   4.599 -0.0863 -0.1770 -0.1324
19228W        W34845   0.304  10.870   5.470 -0.0937  0.0194 -0.0776
19229W        W34846  17.188  11.548   5.056 -0.1055  0.1795  0.2527
19230W        W34847   6.231   4.839   0.850  0.1098  0.0153  0.2729
19231W        W34848   6.149  12.177   6.500 -0.1757  0.0912 -0.1863
19232W        W34849   0.902   3.619  15.189  0.0061  0.1776 -0.1728
19233W        W34850  15.965  15.605   0.186  0.1823 -0.3176  0.2271
19234W        W34851   8.530  14.406  14.076  0.3165 -0.1484  0.0076
19235W        W34852  11.395   9.393   1.414 -0.3296 -0.1778  0.2596
19236W        W34853   2.599  14.184  16.190 -0.0068 -0.2033 -0.1430
19237W        W34854   9.619   4.561  16.298  0.1867 -0.1425  0.2335
19238W        W34855   2.408  14.776   6.423 -0.0734  0.0808  0.1069
19239W        W34856   8.295   2.232  13.611 -0.2261  0.1394  0.1452
19240W        W34857   3.645   8.308  14.377  0.0820 -0.1183  0.0456
19241W        W34858  17.474  15.407   2.016  0.1008 -0.1067 -0.1572
19242W        W34859   0.573   0.907  10.909 -0.1455 -0.3295 -0.3817
19243W        W34860  12.081  10.579  12.002  0.1749  0.1849  0.0300
19244W        W34861   1.126   0.965  14.845 -0.1505 -0.1986  0.2810
19245W        W34862  13.778   0.293  15.150  0.0500  0.1970  0.0079
19246W        W34863  10.959  11.278   4.327 -0.3906  0.1221  0.2437
19247W        W34864  10.966   0.701   3.259  0.3401 -0.0211 -0.0508
19248W        W34865   8.053   5.533  14.821 -0.0454  0.3331  0.1111
19249W        W34866  15.968  13.512   4.833 -0.1750  0.1191  0.1244
19250W        W34867   6.927   9.787  16.886  0.3496 -0.1027 -0.3707
19251W        W34868   8.914  12.706   0.357 -0.3072  0.3141  0.3467
19252W        W34869  14.584  10.294  15.199  0.0734 -0.4167  0.1959
19253W        W34870  15.171   1.369   1.869  0.4034  0.1129  0.1378
19254W        W34871   3.168  12.681   2.522  0.0432  0.3091  0.0207
19255W        W34872  13.748  11.173   3.033  0.0444 -0.1824 -0.2244
19256W        W34873  10.460   3.715   0.133 -0.0514  0.3339  0.0351
19257W        W34874  15.500  10.687  15.525  0.1323 -0.2114  0.0694
19258W        W34875   9.781  13.156   1.783  0.1935 -0.1811 -0.0061
19259W        W34876  10.330   6.012   3.462  0.2218 -0.1127  0.0635
19260W        W34877   3.057   6.676   0.200  0.5442 -0.1219 -0.1140
19261W        W34878  15.092   8.536   4.564  0.0558 -0.0387  0.1527
19262W        W34879   8.677  15.919  14.837  0.0676 -0.0583 -0.0671
19263W        W34880  15.157   2.432   5.259 -0.1435 -0.0845 -0.0326
19264W        W34881  16.749  14.437  16.087  0.1283  0.0221 -0.2721
19265W        W34882  14.903  12.395   2.120  0.2164 -0.4358 -0.1964
19266W        W34883  11.558  16.384   5.379 -0.1310 -0.0845  0.0525
19267W        W34884   2.273   9.646   3.671  0.0489  0.1985 -0.3671
19268W        W34885   4.296   1.314  14.404 -0.1176 -0.2384  0.0447
19269W        W34886  14.341   1.428   3.615  0.0239 -0.2275 -0.0829
19270W        W34887  12.795   1.719  14.302 -0.3926 -0.0129  0.1515
19271W        W34888   2.032  15.056   1.158  0.1473 -0.1004  0.0874
19272W        W34889   8.893  10.216  14.852  0.0060 -0.0517 -0.4070
19273W        W34890   6.087  13.074   4.788  0.1009  0.2012  0.0068
19274W        W34891  10.507  17.598   2.815 -0.0714 -0.1951 -0.3273
19275W        W34892  16.314   5.360  16.263 -0.1376  0.1087 -0.2726
19276W        W34893  10.749  14.039   0.528  0.1350 -0.0280  0.2386
19277W        W34894  16.238  13.805  14.567  0.0959 -0.1754  0.0065
19278W        W34895   5.997   0.398  15.483  0.0688  0.0861 -0.1784
19279W        W34896  13.363  13.670  16.133 -0.0174  0.1692 -0.0975
19280W        W34897   3.522  14.699  13.983  0.0402  0.1874  0.1073
19281W        W34898  12.019  13.366   2.566  0.0597  0.0426 -0.0071
19282W        W34899  16.245  13.226   0.722 -0.0229  0.1803 -0.2394
19283W        W34900   9.904   6.346  11.983 -0.0813 -0.0465 -0.1488
19284W        W34901   6.410  15.577  14.323  0.1329 -0.1330 -0.1698
19285W        W34902   6.113   6.616  10.975  0.0760  0.2642 -0.2759
19286W        W34903   9.424   5.637   3.098  0.2300  0.1544 -0.2833
19287W        W34904   9.492  10.796   2.792 -0.2427 -0.0254  0.2838
19288W        W34905  12.794   4.724  16.586 -0.1834 -0.2728  0.3610
19289W        W34906   3.668  11.312   3.176 -0.2823  0.0371  0.2815
19290W        W34907  12.522   2.107  11.420 -0.1176  0.0219  0.0756
19291W        W34908   2.159  10.256  14.696 -0.1184 -0.1352 -0.3550
19292W        W34909   9.574   0.259  16.986  0.1578 -0.2861  0.0081
19293W        W34910   8.144   5.680   3.349 -0.0154  0.0263 -0.2150
19294W        W34911   2.127  15.224   4.699 -0.0501  0.0784  0.1705
19295W        W34912   9.386  11.049  16.297  0.1229 -0.1265  0.1688
19296W        W34913  15.494   6.638   0.247  0.1000  0.1719  0.0645
19297W        W34914   1.321   0.881   4.736 -0.1516 -0.3816 -0.0772
19298W        W34915  12.330   8.261   0.254 -0.0805 -0.0968  0.2459
19299W        W34916   1.923   1.253   3.112 -0.0332 -0.0432  0.0957
19300W        W34917  15.051   0.509  12.391 -0.0334 -0.0182  0.0508
19301W        W34918  10.800  16.389   0.849 -0.2249 -0.0289  0.2898
19302W        W34919   4.827   6.066   3.951  0.2045 -0.2310 -0.0841
19303W        W34920  11.034   9.237   1.743 -0.0800  0.0603  0.2470
19304W        W34921  16.616   0.804  15.866  0.1088 -0.0339 -0.1697
19305W        W34922   3.524   3.493  14.845 -0.1334  0.1463 -0.2003
19306W        W34923  10.946   5.684   0.115  0.1308  0.0213  0.1290
19307W        W34924  14.536   6.980  12.199 -0.2293 -0.0106 -0.4148
19308W        W34925   0.667   5.121  15.722 -0.1933  0.0356 -0.1816
19309W        W34926   0.951  10.002   2.118  0.0268 -0.0959  0.1625
19310W        W34927  14.423   1.901   2.304 -0.3606  0.1700  0.1397
19311W        W34928   9.404   3.626   1.704  0.0842 -0.3794 -0.0571
19312W        W34929   0.052  11.679   3.795 -0.0398 -0.0978  0.2086
19313W        W34930  13.862   6.979   2.419  0.0847  0.3533  0.4779
19314W        W34931   1.920  13.197   3.216  0.0680 -0.0026  0.0870
19315W        W34932   3.878  17.354   4.450  0.0602 -0.0380 -0.1791
19316W        W34933  11.015  14.947   1.306  0.0140 -0.1861  0.0635
19317W        W34934   3.325   2.608   1.435 -0.1333 -0.0364 -0.0789
19318W        W34935  12.215   2.916   2.602  0.0820 -0.1621  0.0047
19319W        W34936   2.142  10.759   5.917 -0.2614 -0.1645 -0.2264
19320W        W34937   5.741   2.205   2.976  0.0647 -0.1585 -0.1319
19321W        W34938   7.504  13.834  12.582  0.0615 -0.0016  0.0125
19322W        W34939   8.040   4.003   3.627 -0.0841  0.0047 -0.1094
19323W        W34940   4.621  15.657   3.656  0.2310 -0.1458  0.3648
19324W        W34941  10.617   8.131   5.641  0.0959  0.4263  0.0972
19325W        W34942   1.608  16.222   5.298  0.0183 -0.0260 -0.2160
19326W        W34943   6.917  14.879   4.039  0.1434  0.1166  0.0065
19327W        W34944  11.713   1.930   4.942 -0.2192  0.1972 -0.1713
19328W        W34945   8.070  11.509  13.326 -0.5047  0.1414 -0.2241
19329W        W34946  15.395  14.789   4.728 -0.0270 -0.0291  0.0534
19330W        W34947  17.387   1.927  11.990 -0.1909 -0.0328  0.1679
19331W        W34948   4.087   6.834  13.797 -0.1581 -0.2451  0.0640
19332W        W34949   7.225   9.674   5.683 -0.2237  0.0168  0.2097
19333W        W34950  12.058  13.963   0.975 -0.2391  0.0927  0.0522
19334W        W34951   4.245   2.338   4.080  0.0692  0.3534  0.1892
19335W        W34952   4.030  12.967  12.943 -0.3737 -0.0137 -0.1030
19336W        W34953   7.148   0.239   2.057 -0.0156 -0.0207 -0.0867
19337W        W34954   6.543   7.327   3.802  0.0187  0.0120 -0.0632
19338W        W34955  16.955   5.506   2.537 -0.0334  0.0656  0.0874
19339W        W34956   2.821  12.756  17.009  0.2519 -0.1031  0.0425
19340W        W34957   8.996   6.746  14.927  0.4878 -0.4678  0.1228
19341W        W34958  15.864   2.283  15.219 -0.4120 -0.0951 -0.1137
19342W        W34959  11.334  11.682   0.931  0.2043 -0.0079 -0.0423
19343W        W34960  13.245  11.031   4.079  0.0319  0.1093  0.4247
19344W        W34961  12.866   6.588  12.567 -0.1016  0.0479  0.1458
19345W        W34962   7.429  12.787   1.775 -0.1669 -0.1253 -0.0107
19346W        W34963   1.677   3.158  16.546 -0.2201  0.1090  0.4011
19347W        W34964   9.218  10.222   2.160 -0.0735 -0.1496  0.1602
19348W        W34965   3.090   7.514   1.891 -0.1889  0.2447  0.1599
19349W        W34966  17.422   7.065   2.603  0.0225 -0.1337  0.1623
19350W        W34967   6.484  11.832   4.044  0.0266 -0.0184  0.0188
19351W        W34968   8.580  15.888  13.234 -0.2106  0.0822 -0.0214
19352W        W34969   9.950   8.930   4.265 -0.1366  0.1562 -0.0813
19353W        W34970   5.118  14.125   1.421 -0.0702 -0.0193 -0.2167
19354W        W34971  13.420   3.725  13.405 -0.1238 -0.1461 -0.1202
19355W        W34972   9.169   7.210  12.745  0.2372 -0.1011 -0.1982
19356W        W34973   6.253   4.998   4.402  0.1719 -0.1312 -0.1648
19357W        W34974  17.431   0.959  17.096  0.1709 -0.0188  0.0719
19358W        W34975  12.639  12.324   4.065 -0.1598 -0.2717 -0.0430
19359W        W34976  16.373  13.099  14.787 -0.0549  0.3141 -0.0379
19360W        W34977  16.924   7.629   0.134  0.2537  0.2963  0.1055
19361W        W34978  13.923  12.308  15.937  0.1272  0.1527  0.1281
19362W        W34979   2.688  15.962   4.125  0.0721  0.1992 -0.2365
19363W        W34980  14.215  10.250   2.316  0.1408 -0.0079  0.1897
19364W        W34981   8.269   5.511   4.447 -0.1369  0.1283 -0.2235
19365W        W34982  17.390  13.335   2.510  0.1603  0.6152 -0.1632
19366W        W34983  17.035  12.082   0.488  0.1653  0.3115  0.0777
19367W        W34984   6.633   3.616  12.065  0.1848  0.2769  0.0337
19368W        W34985   9.565   2.740   0.564  0.0975  0.1221  0.1208
19369W        W34986   7.164   4.116   6.098 -0.2825  0.0478 -0.1596
19370W        W34987   1.774   3.036   1.138  0.2585 -0.2544  0.3071
19371W        W34988  11.749   0.853  13.690 -0.0327  0.1369  0.1294
19372W        W34989   8.256   3.467   6.047 -0.1080 -0.1155 -0.1903
19373W        W34990   7.599  16.347   1.819 -0.1795 -0.2345  0.0445
19374W        W34991   9.308   0.719   0.804  0.0556  0.1946  0.0031
19375W        W34992  11.905  10.060   1.059 -0.0851 -0.2208  0.5499
19376W        W34993   1.634  14.906   4.022 -0.2399  0.0398 -0.1993
19377W        W34994   7.262   2.415  15.060  0.1159 -0.1936  0.2640
19378W        W34995  17.214   4.634   0.530 -0.1569 -0.2304  0.0325
19379W        W34996   7.201   5.354  14.058 -0.1965  0.2108 -0.0671
19380W        W34997   4.564   1.067   3.043 -0.0419 -0.1705  0.3495
19381W        W34998   2.201   1.896  15.548 -0.1900  0.0676 -0.1247
19382W        W34999  12.543   7.744  16.158 -0.1979 -0.0328 -0.0792
19383W        W35000  13.915   8.993  12.626 -0.0194  0.3745 -0.0023
19384W        W35001   0.194  16.908  14.660 -0.0823  0.2053 -0.1689
19385W        W35002   7.517   1.885  15.889  0.1072  0.2507  0.0126
19386W        W35003  10.318   2.122   3.281  0.0738 -0.1363  0.2448
19387W        W35004  14.682  10.191  14.449 -0.0647 -0.1714  0.0523
19388W        W35005   7.461   3.432   1.674 -0.1972 -0.0345  0.0466
19389W        W35006   5.103  10.595  12.565  0.1109 -0.2619 -0.0331
19390W        W35007  11.236  11.083  12.507 -0.0818  0.0302  0.2378
19391W        W35008   9.240   5.204   6.440 -0.1803 -0.0602  0.0415
19392W        W35009   7.437  11.937   5.595 -0.0218 -0.0567 -0.2532
19393W        W35010   0.113   9.276   0.888 -0.1910 -0.1896  0.0183
19394W        W35011   6.984  14.850   1.435  0.2155  0.3115  0.4309
19395W        W35012   1.422  15.513   2.726  0.0056  0.4957 -0.2028
19396W        W35013  10.149   6.786  12.101  0.0396  0.3038  0.1912
19397W        W35014  16.067   0.314   2.361 -0.4963 -0.0860 -0.0974
19398W        W35015   8.809  14.760   0.873  0.0516 -0.1449 -0.1120
19399W        W35016   2.342   9.702   0.729 -0.4897 -0.0274  0.3192
19400W        W35017  10.615   1.716  12.457 -0.0923  0.1942  0.3811
19401W        W35018  10.135   9.453  17.020 -0.3945  0.2767 -0.0496
19402W        W35019   6.506   2.254  14.810  0.0262  0.0908 -0.1078
19403W        W35020   9.476  16.694  12.390  0.1617  0.3149 -0.0651
19404W        W35021  12.609  13.669   0.785 -0.1381 -0.0374 -0.1175
19405W        W35022   6.299   6.807   3.837  0.1015  0.1008  0.0185
19406W        W35023   3.060   4.589   3.631 -0.0576  0.1532  0.1945
19407W        W35024   3.705   4.110   1.638  0.1680 -0.3485  0.2310
19408W        W35025  10.331   9.007   2.830  0.0939 -0.3485  0.2606
19409W        W35026  15.578  15.773   1.134 -0.2002 -0.0772 -0.2570
19410W        W35027   7.872   2.173   0.446 -0.0036 -0.0894 -0.0605
19411W        W35028   4.035   3.462  13.054 -0.2060  0.1449 -0.2218
19412W        W35029   8.384   8.041   6.449 -0.0305 -0.1321 -0.3810
19413W        W35030  10.154   5.995  15.836  0.4152  0.0061  0.1437
19414W        W35031   3.579  15.182  13.718  0.1650 -0.1681  0.4717
19415W        W35032   7.129  17.031   1.334  0.0847  0.0359  0.0497
19416W        W35033   0.859   1.040   5.416  0.4527  0.2177  0.1592
19417W        W35034  11.212  15.646   3.667  0.2295  0.2507  0.1992
19418W        W35035  14.289   2.061   1.603 -0.3169 -0.0441  0.2120
19419W        W35036   4.789   9.794   0.327  0.0742  0.0227  0.0471
19420W        W35037  14.825   1.245   3.722  0.1001 -0.0316 -0.0139
19421W        W35038   9.033   5.413   5.954 -0.1984  0.0011  0.0247
19422W        W35039  10.830  13.760  15.315  0.1021 -0.0224  0.3528
19423W        W35040   0.440   2.447   5.593 -0.2646 -0.0185 -0.1574
19424W        W35041   6.513   9.008  16.662  0.0038  0.0095 -0.0968
19425W        W35042  13.032   5.283   4.575  0.0952  0.0720 -0.1643
19426W        W35043   3.044   6.263   2.149  0.2494  0.0565  0.0702
19427W        W35044   6.653  16.540  15.066  0.5043  0.1313  0.1888
19428W        W35045   5.150   7.574  16.699  0.1226 -0.1553  0.3831
19429W        W35046  15.732   6.749  15.462  0.1678 -0.1060  0.0351
19430W        W35047  14.693   3.714   1.595 -0.1390  0.1339  0.1566
19431W        W35048  17.062  15.757   0.509  0.0850  0.0288  0.0753
19432W        W35049  10.902   8.842   3.768 -0.1046 -0.0906  0.2546
19433W        W35050  15.276  12.190  15.775 -0.1264  0.1141  0.0336
19434W        W35051   3.826  17.026   1.641  0.2147 -0.0914  0.0445
19435W        W35052  10.887   6.097   3.767  0.1225  0.2550  0.3758
19436W        W35053   0.150  16.928   4.334  0.0409  0.1565 -0.1918
19437W        W35054  14.376  11.530  14.488 -0.1280 -0.1388  0.0436
19438W        W35055   6.558   7.466   4.684 -0.1042 -0.1055  0.0122
19439W        W35056   3.649   3.889   2.905  0.3362  0.1187 -0.0319
19440W        W35057   2.842   6.931  13.491 -0.0407 -0.2971  0.2157
19441W        W35058   9.405  15.880  13.105 -0.4508 -0.1726 -0.1951
19442W        W35059   0.946   0.932  15.817  0.0442 -0.0091 -0.0916
19443W        W35060  14.637  11.010   3.629  0.1414  0.1851 -0.0429
19444W        W35061   8.711  15.635   2.774  0.3134 -0.0177  0.3343
19445W        W35062  11.850  12.145  12.640  0.0465 -0.1307  0.0768
19446W        W35063   5.970  13.524  13.549 -0.2899  0.1940  0.3747
19447W        W35064   6.792  14.117   1.779  0.0317 -0.0339  0.0505
19448W        W35065   9.853   2.621  13.911  0.0827 -0.1569  0.1073
19449W        W35066   5.699   6.105   5.666 -0.0873 -0.0254 -0.0446
19450W        W35067  12.320   9.385   1.423 -0.0383 -0.1398  0.1286
19451W        W35068   0.219   1.986  16.323 -0.0895 -0.3909  0.0091
19452W        W35069   5.873  12.087   0.195 -0.0637 -0.1438 -0.0319
19453W        W35070   2.578  12.273  14.167  0.2231 -0.0535  0.0553
19454W        W35071  15.269  17.097  15.706 -0.0119  0.1229 -0.0313
19455W        W35072  13.788   9.496   5.558 -0.2100 -0.0513  0.1968
19456W        W35073   0.251   7.229   1.218  0.1114  0.1893  0.0475
19457W        W35074  13.597  11.930   0.333 -0.0056  0.0010  0.1031
19458W        W35075  10.270   0.755   5.495 -0.0569 -0.3220  0.0101
19459W        W35076  10.442  17.537  11.891  0.1390 -0.1697 -0.1452
19460W        W35077  10.350   7.136   0.795  0.2354 -0.1465  0.2327
19461W        W35078   9.183  11.959  12.570  0.2248 -0.2732 -0.0070
19462W        W35079   0.992   5.524  16.988  0.0584 -0.2885  0.1577
19463W        W35080  11.954   1.556   3.554 -0.0208 -0.1655 -0.0512
19464W        W35081   7.468   5.060  15.394 -0.2086 -0.0448  0.1481
19465W        W35082   1.100   4.939   2.638  0.0874 -0.1094 -0.1131
19466W        W35083  12.690   5.250   2.418  0.1517 -0.0842 -0.1216
19467W        W35084  13.489  15.480  13.176  0.0633  0.2322  0.0916
19468W        W35085   6.105   8.251   4.200  0.0796  0.0567  0.0113
19469W        W35086  12.345   0.750  11.775 -0.1524 -0.0900  0.2261
19470W        W35087  11.482   1.756   4.434 -0.3759 -0.0219  0.1852
19471W        W35088  10.543   1.210   5.827 -0.1136 -0.0841 -0.0725
19472W        W35089   0.771   5.772  15.198 -0.0104  0.1391 -0.1038
19473W        W35090   1.854  11.132  11.115  0.2076 -0.0815  0.2115
19474W        W35091  11.772   1.956  11.984 -0.1307 -0.3851  0.4764
19475W        W35092  10.040   8.690   5.096 -0.2625  0.0150  0.0021
19476W        W35093  11.245   3.910  11.964 -0.0947  0.1065  0.1558
19477W        W35094   6.214  10.471   2.183  0.0937 -0.0409 -0.3636
19478W        W35095   6.707   1.780   5.630 -0.0327  0.1595  0.2745
19479W        W35096   9.021   7.200   5.080  0.0812 -0.2689 -0.1666
19480W        W35097   0.786   2.594  13.041 -0.0230  0.1283 -0.2924
19481W        W35098   8.658  15.826  17.281 -0.1024  0.0557  0.4122
19482W        W35099   7.448   8.835   4.590  0.2547 -0.2539  0.1247
19483W        W35100   4.174   6.827   5.437 -0.1351  0.2392  0.2550
19484W        W35101   8.264  10.448   0.353 -0.0743 -0.0349  0.0464
19485W        W35102  14.701   1.076  13.011  0.1703  0.0782  0.0650
19486W        W35103   4.700   9.736  16.675  0.2718  0.1630  0.0756
19487W        W35104   9.513   8.667   4.857  0.1991  0.3758 -0.3872
19488W        W35105   4.783  13.076   0.250 -0.2267 -0.0262  0.1135
19489W        W35106   2.315   1.896   1.521 -0.1628  0.1297  0.1094
19490W        W35107   8.249  16.982  13.123 -0.0430  0.0727 -0.1285
19491W        W35108   3.115  17.070   4.928  0.1405 -0.0737 -0.2559
19492W        W35109   6.442  15.218  13.039 -0.1139 -0.1362  0.2627
19493W        W35110  13.276  16.859  16.119  0.0619 -0.1703 -0.0417
19494W        W35111  12.651   5.353  13.194 -0.1745 -0.3476 -0.0911
19495W        W35112   0.070  10.057   2.800 -0.3207  0.1153  0.3475
19496W        W35113   2.427   7.372  14.406 -0.0571  0.1986  0.0332
19497W        W35114   2.325  10.567  12.824 -0.0757  0.2279  0.1610
19498W        W35115   4.819   2.428  15.731  0.0879 -0.1035  0.2217
19499W        W35116  10.603   8.453   2.056 -0.0036 -0.2226 -0.0286
19500W        W35117  14.378   3.273  13.052 -0.3770 -0.0135 -0.2461
19501W        W35118  17.536   8.950   2.412 -0.3349  0.1647  0.2660
19502W        W35119   1.888  15.691   2.851  0.1868 -0.0034  0.3034
19503W        W35120   1.557   6.889  13.772  0.0994 -0.2106  0.2318
19504W        W35121   7.721   9.813  15.245 -0.0838  0.0752 -0.3562
19505W        W35122  11.865  14.683   4.246  0.0254  0.0394  0.0033
19506W        W35123  17.321   1.793   3.450  0.0083 -0.3126  0.0740
19507W        W35124   7.343   2.393   0.386 -0.1689 -0.1580  0.2253
19508W        W35125   9.232   0.988  14.491 -0.1107 -0.1035 -0.0159
19509W        W35126   2.865   6.884  15.704 -0.1171  0.1258 -0.0894
19510W        W35127   4.780   4.142  16.601  0.1651 -0.0746  0.2192
19511W        W35128   8.879  13.848  17.109 -0.2307 -0.0227 -0.3476
19512W        W35129   2.985   0.142  12.895 -0.0839  0.0945  0.1704
19513W        W35130   0.495   1.223   3.190 -0.0324  0.1689 -0.2522
19514W        W35131  17.057   6.567   3.934 -0.4619  0.0526  0.2457
19515W        W35132   6.543   6.262  16.840 -0.3433  0.1925 -0.1556
19516W        W35133   8.442   5.180  14.803 -0.0998 -0.0004 -0.1183
19517W        W35134   4.075  15.244  13.835  0.2583  0.1350 -0.1425
19518W        W35135  10.416   8.062   3.283  0.1125  0.0424  0.3506
19519W        W35136   5.047  11.714   4.669 -0.2819  0.2220 -0.1143
19520W        W35137   0.881   3.635   3.036  0.0355  0.2529  0.0325
19521W        W35138   4.584  14.132   3.521 -0.2897 -0.0420  0.2061
19522W        W35139  13.750  12.258   4.525 -0.0968 -0.1522  0.1318
19523W        W35140   1.008   8.084   1.313  0.0743  0.0183 -0.2408
19524W        W35141  12.528   0.196  15.307  0.1131 -0.1091  0.0681
19525W        W35142   6.940  12.719  14.061 -0.0046 -0.0452 -0.0563
19526W        W35143  15.038   5.302  12.657  0.0130 -0.1607  0.0428
19527W        W35144  14.016  12.443  14.808  0.2838 -0.0955 -0.1575
19528W        W35145   4.360  13.838   0.138  0.0539 -0.1143  0.2174
19529W        W35146  11.849   1.887  13.921  0.1010  0.0205 -0.2869
19530W        W35147  11.406   3.322   2.468  0.4845  0.0643  0.3924
19531W        W35148   5.602   4.576  11.811 -0.1007  0.1205 -0.0130
19532W        W35149  15.326   0.221  12.055 -0.0732 -0.0152  0.1594
19533W        W35150  14.693   8.753  15.246 -0.1827  0.1744 -0.1459
19534W        W35151   1.178  14.364  14.749 -0.0464 -0.0489  0.0953
19535W        W35152   1.898   8.112   2.423  0.0883 -0.1629  0.0280
19536W        W35153  16.974  17.572  16.683  0.0238 -0.4200 -0.0416
19537W        W35154  14.438   7.535   3.157  0.3089 -0.1204 -0.0657
19538W        W35155  12.658   6.288   3.824 -0.3116  0.0535  0.1207
19539W        W35156   4.347  13.322   0.105  0.1029  0.0057 -0.1404
19540W        W35157  13.382   0.469   0.016  0.0978 -0.1688  0.1003
19541W        W35158  15.805   0.250   1.239  0.2097  0.1210 -0.2481
19542W        W35159  10.429  15.534  16.491  0.3106  0.2207 -0.2172
19543W        W35160   6.609   3.930   1.842 -0.1761 -0.0240 -0.0640
19544W        W35161   4.136  10.136   5.434 -0.2314  0.0608  0.1833
19545W        W35162   7.862  10.574   5.045  0.0359 -0.2579  0.2259
19546W        W35163  15.705   6.216  15.487 -0.0631 -0.1585 -0.1774
19547W        W35164  15.673  15.901  13.264 -0.0482  0.1391 -0.1359
19548W        W35165   1.557   7.600   2.963  0.1469  0.0704  0.2377
19549W        W35166  15.794   4.896   2.026  0.1079 -0.1811  0.0964
19550W        W35167  11.610   2.187  13.225 -0.0275 -0.1941 -0.1428
19551W        W35168   7.625  10.020  14.209 -0.2292  0.0981 -0.1337
19552W        W35169  11.890   7.817   0.224 -0.0248 -0.1272  0.1423
19553W        W35170   9.335  13.864   2.144 -0.1381  0.2614 -0.0243
19554W        W35171   0.458   7.601   4.536 -0.0159 -0.0657 -0.2287
19555W        W35172   4.489   3.374  12.874  0.0412  0.0946  0.0944
19556W        W35173   7.261   5.929   1.998  0.0334 -0.2891 -0.1471
19557W        W35174   9.009  10.846   0.556  0.1041  0.0896  0.2681
19558W        W35175  15.413   5.857   4.024  0.0602  0.1335 -0.2545
19559W        W35176  16.741   9.210   3.785 -0.0547  0.0783  0.2686
19560W        W35177   3.522  15.835   6.033  0.3179 -0.0880  0.1669
19561W        W35178  16.017   2.352   5.152 -0.0074 -0.3312  0.0546
19562W        W35179   0.986   7.426   0.314  0.2490 -0.0903 -0.0593
19563W        W35180   8.660   8.433  17.092  0.2110 -0.0727 -0.1364
19564W        W35181   7.601  11.827  14.617  0.1712  0.0046  0.0720
19565W        W35182  15.926  14.838   4.083 -0.3620  0.0581  0.0423
19566W        W35183  10.564  15.795  11.732 -0.1763  0.0143 -0.1832
19567W        W35184  11.413   7.238   2.887 -0.2254  0.3358  0.0556
19568W        W35185   3.596   5.382  16.624  0.0620 -0.0820 -0.1624
19569W        W35186   3.481   2.447   5.830  0.2442 -0.2982 -0.0452
19570W        W35187  12.819   0.007   2.878  0.2138 -0.2073 -0.3061
19571W        W35188   0.453   1.603   0.182 -0.1381 -0.1261 -0.0776
19572W        W35189  13.529   6.343   0.571  0.0409  0.1508  0.1382
19573W        W35190  16.171   3.953   5.434  0.0724  0.0344  0.2952
19574W        W35191   1.395   2.538   3.678 -0.0035  0.0507  0.1725
19575W        W35192  15.133   0.058  16.363  0.2096  0.1613  0.0932
19576W        W35193  11.204   1.317   0.469  0.0073 -0.1612  0.2387
19577W        W35194  16.180   5.947  15.536 -0.0982 -0.1188  0.1570
19578W        W35195  13.158   4.924   1.173  0.0561  0.1033 -0.0759
19579W        W35196   0.018   5.993  16.940 -0.1935  0.0317 -0.1837
19580W        W35197   1.851   3.001   3.052 -0.1230 -0.0943 -0.3156
19581W        W35198   2.167   8.232   2.813  0.2420 -0.2580  0.4651
19582W        W35199   4.654   0.992  13.668  0.0340 -0.0859  0.0039
19583W        W35200   7.222   2.104   2.048  0.1910 -0.3204  0.2140
19584W        W35201   1.611   0.073  13.699  0.0333  0.0823  0.0031
19585W        W35202  14.040   4.922  15.880 -0.1717 -0.0780 -0.0222
19586W        W35203  10.480  17.347  17.193 -0.1578  0.1515 -0.2752
19587W        W35204   2.161   7.676  15.196  0.0545  0.1533  0.3159
19588W        W35205   7.119   5.524  15.898 -0.0325  0.0662 -0.0516
19589W        W35206  12.438   4.605   2.167 -0.2610  0.3482  0.3049
19590W        W35207   9.507  11.886  15.700 -0.2500  0.3228 -0.1091
19591W        W35208  17.493  13.448   3.357 -0.1411 -0.1756 -0.0051
19592W        W35209  12.603   1.106  15.765  0.2075 -0.0284 -0.2099
19593W        W35210  10.810   3.676   0.617 -0.1097  0.0186 -0.0495
19594W        W35211   4.685  17.534  10.996  0.3166  0.1045 -0.1192
19595W        W35212   3.620   4.878  15.801 -0.2081  0.1463 -0.0063
19596W        W35213   9.726  13.313  16.232 -0.4212 -0.1762  0.0370
19597W        W35214   1.136  15.191  11.577 -0.0531  0.1420 -0.3129
19598W        W35215  10.511  10.530   5.444 -0.3547 -0.2238  0.1243
19599W        W35216   7.794   6.777  11.413  0.0584 -0.0910  0.1285
19600W        W35217   0.715  16.308  13.665  0.1750 -0.2537  0.3305
19601W        W35218  13.162   4.847  12.298 -0.1665 -0.0576  0.1280
19602W        W35219   0.565  13.197  14.225 -0.1605  0.2607 -0.2801
19603W        W35220   0.131   2.442  12.508  0.2816  0.0066 -0.0175
19604W        W35221   5.243   4.845  13.377 -0.3010  0.0118  0.1909
19605W        W35222   5.310  14.571   5.059  0.2389  0.1240 -0.0508
19606W        W35223   5.832   1.259   1.143  0.0766 -0.2669  0.2312
19607W        W35224   1.356  13.714   5.300  0.2711 -0.0751  0.0728
19608W        W35225   9.051  16.856   4.122  0.0618  0.0918  0.0328
19609W        W35226  15.398  16.265   3.203 -0.3244  0.0409  0.0272
19610W        W35227   6.520   4.579  16.821  0.1616 -0.1831  0.2682
19611W        W35228  16.122   9.742   4.213 -0.3422  0.1057  0.1718
19612W        W35229   9.736   9.540   3.110  0.1580  0.0420  0.1348
19613W        W35230   9.856   7.272  14.530  0.1467  0.0039 -0.1611
19614W        W35231   6.352   4.083   2.813  0.0351  0.3105  0.0409
19615W        W35232   8.658   6.608  17.010 -0.2255  0.3110 -0.0338
19616W        W35233  14.673   2.653   4.844 -0.0503  0.0644  0.0579
19617W        W35234   0.985   0.319  14.316  0.2171 -0.1490  0.0014
19618W        W35235   8.525   5.607  17.108 -0.1532 -0.3119  0.1923
19619W        W35236  15.855  10.063   5.387  0.0188  0.0968  0.3157
19620W        W35237  14.933  17.416  13.063 -0.1118 -0.0842 -0.1140
19621W        W35238   5.220  16.491   2.198  0.1421 -0.0275  0.0208
19622W        W35239   8.612   9.920  16.831  0.0123  0.1722  0.1682
19623W        W35240   2.194  15.036  15.653  0.1654  0.1180 -0.2444
19624W        W35241   7.051  17.367  15.591  0.4671  0.0127  0.2315
19625W        W35242   1.018  16.996   1.358 -0.0144  0.0017  0.0798
19626W        W35243   2.173   6.377   0.494  0.2101  0.1072  0.1869
19627W        W35244   1.674  11.040   1.168  0.0955  0.1767  0.3958
19628W        W35245  12.064  14.243   4.153 -0.2547  0.1440  0.1850
19629W        W35246  14.397  16.395   4.730 -0.0020  0.1290 -0.2409
19630W        W35247   4.271  12.785  16.632 -0.2114 -0.0507  0.1401
19631W        W35248  17.030   7.777   2.081  0.1962 -0.4282 -0.2569
19632W        W35249  15.076   6.307  12.736  0.1137  0.1786  0.1925
19633W        W35250  12.703   8.821   4.969  0.0367  0.1257 -0.1834
19634W        W35251   1.123   1.748   3.924 -0.0148 -0.0696 -0.0806
19635W        W35252  13.192   6.267   1.760  0.2456  0.0628 -0.1445
19636W        W35253   9.364  15.370  15.026 -0.6409  0.2406 -0.1290
19637W        W35254  10.015  11.993   3.659 -0.0115  0.1041  0.1959
19638W        W35255  14.158  15.603   3.211 -0.2449  0.0755 -0.0855
19639W        W35256  13.250  13.688   2.167 -0.0831  0.1060  0.0772
19640W        W35257   5.449   4.955   4.739  0.0181 -0.2666  0.0924
19641W        W35258  10.074  16.580  13.321 -0.1137  0.3054  0.1665
19642W        W35259   4.100  16.890   4.478 -0.3274 -0.1399  0.1266
19643W        W35260  16.914   3.928  14.295  0.0605  0.1018 -0.0290
19644W        W35261  16.148  12.669  11.007 -0.0648 -0.0531  0.0136
19645W        W35262   8.611   8.726  12.121 -0.0612 -0.2449 -0.2235
19646W        W35263   3.519  12.148   4.176 -0.0457  0.2900 -0.3699
19647W        W35264  16.601   9.280  14.369  0.0808  0.0281 -0.1198
19648W        W35265  13.127  14.686   2.009  0.1342 -0.1011 -0.1681
19649W        W35266   6.505  12.556  12.314 -0.0272  0.0794  0.3564
19650W        W35267   8.692   0.561   4.932  0.0169 -0.2072  0.1669
19651W        W35268   8.446   1.749  13.395  0.0615  0.2062  0.2426
19652W        W35269   0.379   2.781   6.899 -0.0941  0.2725 -0.3514
19653W        W35270   5.694   9.597   0.694  0.0045  0.1876 -0.2036
19654W        W35271  11.365   7.835   4.114 -0.0902 -0.0955 -0.0388
19655W        W35272   9.357   2.457   0.065  0.3981  0.2960  0.0618
19656W        W35273  10.225  16.665  12.364  0.2751 -0.1332  0.0676
19657W        W35274   9.895   7.957   4.268 -0.0513  0.0193  0.1178
19658W        W35275   0.517   1.279  11.831 -0.3509 -0.0880  0.1291
19659W        W35276  11.829  17.425   2.618  0.0412  0.1417 -0.0701
19660W        W35277   1.348  11.269  12.647  0.0005  0.2640 -0.0998
19661W        W35278   0.498   6.017   1.835 -0.0785  0.1897  0.3794
19662W        W35279   8.791  16.117   3.709  0.2526  0.2060  0.0025
19663W        W35280  13.229  11.442  15.340 -0.3616 -0.0991  0.2018
19664W        W35281  11.267  15.008  15.200 -0.3290  0.2161  0.2346
19665W        W35282   5.536  17.331  15.980 -0.1851  0.0167  0.0030
19666W        W35283  16.183  14.604   0.437  0.0024  0.4160  0.1924
19667W        W35284   0.688   6.084   3.445 -0.0683  0.0860 -0.0697
19668W        W35285   0.875   1.506  15.664 -0.0713  0.0955  0.3721
19669W        W35286   1.711  10.254  15.018  0.1927  0.0783  0.1061
19670W        W35287  11.077   1.514  13.610 -0.1714 -0.2970  0.1200
19671W        W35288   6.925   5.664  13.767 -0.0413 -0.0369  0.0911
19672W        W35289   6.947  16.866   2.982  0.1744  0.0613 -0.0593
19673W        W35290   1.061   1.715  12.309  0.2130 -0.2243 -0.3583
19674W        W35291   6.356  17.467  12.367 -0.0924  0.1082  0.5346
19675W        W35292   1.803  17.208  13.647  0.0626  0.0666 -0.1989
19676W        W35293   0.469   5.975  13.710  0.0995  0.3646 -0.0498
19677W        W35294  11.071  14.293  14.582  0.3455 -0.0594 -0.1698
19678W        W35295  14.792  16.038  12.686  0.1365  0.0100 -0.0178
19679W        W35296   8.382   5.016   1.680 -0.1066  0.1732 -0.1609
19680W        W35297  16.444  10.049   1.095 -0.0856 -0.0703 -0.0415
19681W        W35298   3.826   9.137  15.311  0.0089  0.0312 -0.1065
19682W        W35299  15.479   4.979   3.187 -0.0315 -0.0498 -0.3280
19683W        W35300   2.134   8.256  12.477 -0.0517  0.0534 -0.1947
19684W        W35301   4.370  16.068   3.411  0.5529 -0.1566  0.0468
19685W        W35302  10.967  14.389   1.406  0.1632 -0.0059 -0.2560
19686W        W35303  14.361   4.971  12.497  0.2188 -0.3382 -0.0474
19687W        W35304  10.202  14.440   5.952 -0.0716  0.1259 -0.2643
19688W        W35305  11.271   2.727   4.570  0.2573 -0.4485 -0.1237
19689W        W35306  10.304  14.816   5.294 -0.2144 -0.3149 -0.2192
19690W        W35307   2.507   8.320  15.833 -0.0387  0.0112 -0.1049
19691W        W35308  17.533   4.074  12.069  0.0586  0.1141 -0.0575
19692W        W35309   7.762  11.262  11.560 -0.1726 -0.2010  0.3057
19693W        W35310   1.649   3.169  15.956 -0.2544  0.0121 -0.1247
19694W        W35311   9.932  15.568   4.678  0.2712  0.1716 -0.0318
19695W        W35312  12.947  14.179   2.650  0.4854  0.1494 -0.0412
19696W        W35313  14.237   5.465   2.340  0.0188  0.0414 -0.0293
19697W        W35314   4.186  15.535   4.673  0.2859 -0.0605  0.0402
19698W        W35315   7.787   2.501   4.509 -0.0219 -0.0604  0.2602
19699W        W35316  13.126   4.497   1.511  0.0600 -0.1356  0.0388
19700W        W35317   3.930   8.062   4.262  0.0703 -0.0675  0.1052
19701W        W35318  13.869  16.730  14.544 -0.2105  0.0028 -0.0057
19702W        W35319  16.418  16.579  12.565 -0.1956 -0.0644 -0.0986
19703W        W35320  14.579   2.716   5.829 -0.1043  0.2771  0.0525
19704W        W35321  13.529  10.691   6.134 -0.2700  0.0043  0.2404
19705W        W35322   1.354   6.426   4.675 -0.0491  0.0074 -0.0166
19706W        W35323   1.748  16.917   3.460 -0.2376  0.2056  0.1364
19707W        W35324   4.703   3.453   5.189  0.3202  0.0029 -0.0383
19708W        W35325   9.141   4.751   4.872  0.0397 -0.2750 -0.2104
19709W        W35326  14.917   2.788  13.627 -0.1546 -0.1875  0.3711
19710W        W35327   8.201   8.210  12.979  0.3062 -0.1773  0.1585
19711W        W35328  12.570   0.577  12.233  0.3258  0.0897  0.0558
19712W        W35329   5.837   0.051   0.399 -0.0598  0.1925  0.1167
19713W        W35330   5.654  14.829  15.277  0.1357 -0.1801  0.2397
19714W        W35331  11.471  11.108   5.691  0.1539 -0.0679 -0.1567
19715W        W35332  11.456   2.010   2.940 -0.1318  0.4645 -0.0310
19716W        W35333   6.371   4.589   1.356  0.2795 -0.1283  0.2098
19717W        W35334  13.642   2.819  12.462  0.1503 -0.0087  0.1992
19718W        W35335   1.532   3.796  12.887  0.1861  0.2319  0.0628
19719W        W35336   2.392   9.292   0.080 -0.1085  0.0166  0.0537
19720W        W35337  17.093  11.103   0.354 -0.1818 -0.0065  0.3581
19721W        W35338  15.482   8.829  16.653 -0.1127  0.1682  0.0476
19722W        W35339  15.981  15.934   4.789 -0.3134 -0.0590 -0.0360
19723W        W35340  17.367  16.468  12.445 -0.0512  0.1437 -0.1750
19724W        W35341  15.114   9.129   5.100  0.5061  0.1027  0.1277
19725W        W35342  16.369   3.902  14.431 -0.1896  0.0996 -0.0063
19726W        W35343  12.059  13.386   1.738  0.2030  0.1131  0.0031
19727W        W35344  12.955   9.084  16.582 -0.1441  0.0098 -0.1900
19728W        W35345   9.494   8.287  14.461  0.1033 -0.0017  0.2755
19729W        W35346   9.716  14.643  15.302  0.0460  0.0607 -0.2713
19730W        W35347   1.584   3.870  14.215 -0.1073  0.0881 -0.0483
19731W        W35348   1.103   6.984  15.571 -0.2239 -0.1064  0.1102
19732W        W35349   7.833   7.885   1.891 -0.1475  0.2787 -0.0908
19733W        W35350  12.832  11.370  13.285  0.1654  0.2354 -0.1850
19734W        W35351   7.360   6.308  14.573 -0.0175  0.0569 -0.1974
19735W        W35352  11.533   4.125   4.720 -0.0117  0.4323 -0.0486
19736W        W35353   4.335  16.483   4.746  0.0275 -0.1531  0.2496
19737W        W35354   4.079  12.991  14.143 -0.0051 -0.2440 -0.1679
19738W        W35355   8.894  16.248   0.638  0.5287 -0.2383 -0.0255
19739W        W35356   9.163  13.925   2.666 -0.2287  0.1639 -0.1652
19740W        W35357  16.664   3.636  15.390  0.0023 -0.3131  0.0962
19741W        W35358  17.511   9.979  12.703  0.0079 -0.0662  0.0977
19742W        W35359   2.214   5.901  14.540  0.0748  0.0089 -0.2400
19743W        W35360   4.088   9.046   4.665 -0.1410  0.3140 -0.0058
19744W        W35361  14.812  16.755  15.915 -0.0679 -0.0088  0.0773
19745W        W35362  13.808  17.279  15.321 -0.1019 -0.1925 -0.0536
19746W        W35363  17.186   7.903   3.108 -0.1387 -0.3121 -0.4424
19747W        W35364  17.385   2.921   1.614  0.0804 -0.1824 -0.0238
19748W        W35365   7.385  15.813   1.710 -0.2509  0.5360  0.0615
19749W        W35366  13.038  14.060   5.434  0.3407  0.1041  0.0707
19750W        W35367  15.065  12.881   1.881  0.0298 -0.1575  0.1810
19751W        W35368  16.848   5.881   1.062 -0.1480  0.0071 -0.0910
19752W        W35369  17.334   5.042  15.753  0.0406  0.0120 -0.4552
19753W        W35370  16.896  17.543  14.250 -0.0475  0.2892  0.3645
19754W        W35371  11.540   1.632   5.357 -0.0060 -0.0344  0.0553
19755W        W35372   7.838   7.900   4.435  0.0879  0.0923 -0.1964
19756W        W35373   5.344   9.956   0.459  0.0358  0.1446 -0.1445
19757W        W35374  14.867  14.150   0.095  0.0956  0.2995 -0.0241
19758W        W35375  14.842   7.179  13.609  0.1838  0.3183 -0.2690
19759W        W35376   2.283   8.341   1.007 -0.3189  0.3215 -0.1813
19760W        W35377   2.706  13.378   0.529  0.0511 -0.1274 -0.2623
19761W        W35378  11.453   3.397   4.138  0.3516  0.1752 -0.0749
19762W        W35379   5.074   4.192  11.754  0.1875  0.1529  0.2433
19763W        W35380   0.721   6.683  14.221  0.1789  0.2563  0.0200
19764W        W35381  17.335  14.484  12.687 -0.1451 -0.2966  0.2842
19765W        W35382  14.506  13.539  12.947 -0.2030 -0.1925 -0.2555
19766W        W35383  14.675   4.772   6.577 -0.1201 -0.0221  0.1768
19767W        W35384   8.773   4.542  13.259  0.3146  0.2047  0.1188
19768W        W35385   3.019  10.509   1.141  0.0706  0.1149  0.1479
19769W        W35386   4.641   5.058   3.175  0.2146 -0.3140  0.2600
19770W        W35387   6.186   8.045  14.813  0.2024 -0.1508  0.0725
19771W        W35388   2.613   4.053  15.376 -0.2214 -0.0143  0.2488
19772W        W35389   3.312  13.043  13.671  0.0890 -0.1528  0.0869
19773W        W35390   8.503   2.804  15.752  0.1490 -0.0773  0.1438
19774W        W35391  10.831  11.752   2.050  0.1174  0.0498 -0.0815
19775W        W35392  13.416  12.464  12.532  0.3681  0.2777 -0.1601
19776W        W35393  12.137   8.211   4.861  0.0763  0.1205 -0.1487
19777W        W35394   4.381  10.699   0.429 -0.3959 -0.3746  0.0442
19778W        W35395   6.665   1.185   1.238 -0.0106  0.1743 -0.2776
19779W        W35396   9.313   7.503  13.275 -0.2198  0.1048  0.3499
19780W        W35397   4.772  13.468  17.192 -0.3878  0.2806 -0.4266
19781W        W35398   5.177  13.130  14.942 -0.2525 -0.1785 -0.0526
19782W        W35399  11.606  16.832  16.522 -0.0209  0.0369  0.2806
19783W        W35400  10.033  16.313   3.132  0.3250 -0.1954  0.1230
19784W        W35401  13.976  12.596  13.865 -0.0014 -0.1741  0.1638
19785W        W35402   7.645   5.774   1.716 -0.1770  0.1345  0.0785
19786W        W35403   2.147  16.190   2.037  0.2111  0.1005 -0.0622
19787W        W35404  11.363  10.673  15.416 -0.3977 -0.1207  0.2917
19788W        W35405  14.070  13.917  14.184  0.0956  0.2430  0.0297
19789W        W35406   0.749   6.133   2.270  0.2054  0.2226 -0.1887
19790W        W35407  14.816  13.497   1.318 -0.1756  0.1690 -0.0464
19791W        W35408   8.407  16.612   1.433 -0.0179  0.1508 -0.0150
19792W        W35409  14.637   7.813  15.053 -0.1017 -0.0451 -0.2671
19793W        W35410   3.640  16.097   4.145 -0.0201 -0.0355  0.0508
19794W        W35411  15.865  12.613   0.783 -0.3034  0.1939 -0.0310
19795W        W35412   8.548   4.612   0.677 -0.0611  0.0196  0.1224
19796W        W35413   9.446  15.937   4.420 -0.1140  0.4612  0.0313
19797W        W35414  17.031  10.131  12.325  0.0704 -0.0959  0.1419
19798W        W35415   8.926   8.737   4.246  0.4036  0.0069  0.1383
19799W        W35416   6.263   0.462  15.036  0.1211 -0.0691 -0.1065
19800W        W35417  12.146   0.075   2.306  0.1406  0.1604 -0.0991
19801W        W35418  14.907  13.352   0.846 -0.1823 -0.1771 -0.0732
19802W        W35419  14.251   8.201   4.828  0.1259  0.0384 -0.1915
19803W        W35420   9.139  15.589   0.947  0.2659 -0.0363  0.3625
19804W        W35421   6.277   3.724   1.375  0.1833 -0.2802 -0.1025
19805W        W35422  11.621   4.279  12.268 -0.1499 -0.0548 -0.0997
19806W        W35423  10.037   9.881   3.265  0.0367 -0.1020  0.1943
19807W        W35424  15.373  10.124   3.047  0.0723 -0.0298 -0.2133
19808W        W35425  16.644  15.015   2.077  0.0237 -0.2366 -0.0232
19809W        W35426  13.856   5.599   3.684 -0.2127 -0.3949  0.4973
19810W        W35427  13.323   8.831  13.221 -0.1434  0.1829  0.1408
19811W        W35428  10.543   6.337   4.698 -0.0321  0.1542 -0.1983
19812W        W35429  17.609   3.402  15.430  0.1961  0.2958  0.0728
19813W        W35430  14.985  12.396   1.599 -0.0624 -0.1602  0.0198
19814W        W35431   5.372   0.900   0.531 -0.1520  0.1277 -0.0869
19815W        W35432  10.579   9.069  13.292 -0.1089 -0.0195 -0.0935
19816W        W35433   7.810   7.257  15.481  0.1725 -0.1403 -0.0985
19817W        W35434   6.765  15.068  16.155 -0.1514  0.1020 -0.2053
19818W        W35435  13.435   4.058  12.088  0.0302 -0.2037  0.0761
19819W        W35436   8.961   2.579   4.399 -0.1598  0.1862  0.2272
19820W        W35437  11.419   4.699   6.694  0.1278  0.0527  0.0921
19821W        W35438  11.794   0.705   3.339 -0.1444  0.0946  0.0212
19822W        W35439  11.458  14.557  14.497  0.2954  0.1117  0.0803
19823W        W35440   8.955   7.094   0.346  0.1123 -0.0904  0.0455
19824W        W35441  12.175  17.576  16.186  0.0573 -0.1168  0.2651
19825W        W35442   9.137  10.084   3.664  0.0606  0.2138  0.0977
19826W        W35443  11.336   9.829   2.196 -0.1597  0.2328 -0.0963
19827W        W35444   1.580   6.971   5.701 -0.0717 -0.0536 -0.1385
19828W        W35445  12.766   1.897  16.537 -0.3771 -0.0681  0.1284
19829W        W35446  11.052  14.911  11.736 -0.2547  0.0795 -0.1544
19830W        W35447  15.897  15.456   3.421 -0.1827  0.0908 -0.2482
19831W        W35448   5.066   3.703   0.939 -0.1624  0.2443 -0.0849
19832W        W35449   8.619   9.205   3.612  0.0605  0.0767  0.2345
19833W        W35450  13.749  12.326   5.035 -0.0441 -0.3203  0.2777
19834W        W35451   9.121   3.626  17.114 -0.2599  0.0450  0.0902
19835W        W35452   6.920   8.645  13.970  0.1697  0.1955  0.2108
19836W        W35453   0.797   4.751   0.157 -0.1557  0.3863  0.0928
19837W        W35454  14.649   2.845   3.496 -0.1763  0.0990  0.0778
19838W        W35455  15.633  15.669   4.544 -0.0351 -0.1614  0.0810
19839W        W35456   4.976  15.006   5.009  0.1204 -0.4116  0.0514
19840W        W35457   3.775   4.005  14.172  0.3095  0.0515 -0.0903
19841W        W35458   5.192   3.495  15.167  0.0668 -0.1932 -0.1480
19842W        W35459  12.228  11.865  13.786  0.0144  0.0663  0.2726
19843W        W35460   8.701  14.963   5.644 -0.6270 -0.3796  0.0721
19844W        W35461   6.316   5.422  16.317  0.0339  0.0439  0.1359
19845W        W35462  14.410   2.480  17.015 -0.4205  0.0580  0.2134
19846W        W35463   8.778  12.428   3.094 -0.3101  0.0719 -0.2154
19847W        W35464  14.812   2.451  11.757 -0.0505 -0.3979 -0.0338
19848W        W35465  15.546  11.534   2.212  0.2315  0.0554  0.0241
19849W        W35466  12.601  14.651   6.747  0.0854  0.2375  0.1166
19850W        W35467  11.431   3.499  10.761  0.0567 -0.2957  0.0344
19851W        W35468  13.174  10.076   1.452  0.1772 -0.0391  0.1053
19852W        W35469  14.008   2.159   3.354 -0.2143  0.0460 -0.0728
19853W        W35470  17.111  17.337  17.293  0.1990  0.1621 -0.5849
19854W        W35471   7.849   5.450  16.378 -0.0896 -0.1489  0.0210
19855W        W35472  10.868  15.768   3.328  0.2944 -0.2070  0.2034
19856W        W35473  12.507  10.105  14.190  0.0725 -0.2001  0.0007
19857W        W35474  13.686   7.536   1.556 -0.2539  0.1599  0.1938
19858W        W35475  12.590   4.556   5.927 -0.0126  0.1783 -0.0030
19859W        W35476   6.364   0.043  15.567  0.2564  0.2478 -0.1675
19860W        W35477   3.753  12.624  11.113 -0.0309 -0.1622 -0.0542
19861W        W35478  12.401   8.026   4.030  0.2194 -0.2098  0.0610
19862W        W35479  12.932   2.889   3.402 -0.1316 -0.2450  0.3413
19863W        W35480   2.355   2.633  14.224  0.2468 -0.1169  0.1219
19864W        W35481   2.209   5.166  12.506 -0.0537  0.0290 -0.0355
19865W        W35482   3.593   8.847   2.228  0.0474 -0.4671  0.2039
19866W        W35483   0.803   5.260  15.164  0.0924  0.0445  0.0585
19867W        W35484   8.049   5.222  15.994  0.2008 -0.1778 -0.0572
19868W        W35485  17.225  14.946   0.830  0.0275  0.1272  0.0518
19869W        W35486   8.860  11.294   3.059  0.2561  0.0397  0.4479
19870W        W35487  14.245   6.225  13.760  0.0293 -0.0111  0.0518
19871W        W35488   6.437  14.264  15.777  0.3413 -0.2221 -0.1392
19872W        W35489  10.481  16.541   4.901  0.1416 -0.1788  0.0082
19873W        W35490  13.737  13.309   3.100  0.0217 -0.2950  0.0389
19874W        W35491   5.785  15.244  16.198  0.4892  0.0600 -0.1306
19875W        W35492   1.861  16.617  12.867  0.3051  0.1174 -0.0430
19876W        W35493   5.648  12.276  13.411 -0.0543 -0.1290 -0.2758
19877W        W35494  11.041   5.747  14.201  0.4928 -0.1475 -0.3188
19878W        W35495  12.679   3.041   0.629  0.0903 -0.2068 -0.0874
19879W        W35496   1.141   2.749   1.956 -0.1362  0.0894 -0.1330
19880W        W35497   3.549  17.022   0.220  0.1461  0.2817  0.0935
19881W        W35498   7.239   1.715   4.406  0.1441 -0.0362  0.1939
19882W        W35499   3.699   4.597   0.510  0.1349  0.0626  0.4899
19883W        W35500  10.233  10.110   0.779 -0.0231  0.2112  0.1978
19884W        W35501   7.857   3.858  13.804 -0.1633 -0.1368  0.2171
19885W        W35502   2.854  16.297   4.830 -0.3903 -0.2300 -0.4366
19886W        W35503   0.784   9.738   1.679 -0.0451  0.3407 -0.0864
19887W        W35504   0.714   5.793   6.174  0.2419  0.2126 -0.2855
19888W        W35505   9.768   1.469   5.286 -0.3764 -0.2505  0.1488
19889W        W35506  13.336   5.439   3.732  0.1480  0.0767 -0.3004
19890W        W35507  10.298  11.314  16.095  0.0169  0.1514 -0.1614
19891W        W35508  11.240   2.648  13.300  0.0516 -0.0221  0.0064
19892W        W35509  17.034   4.627  12.594  0.1983 -0.0087  0.1668
19893W        W35510   5.051  11.533  16.561 -0.0256 -0.0752 -0.0052
19894W        W35511   6.498  14.209   4.309 -0.2192 -0.0071 -0.3886
19895W        W35512  16.015   4.881   5.118  0.0517  0.1082  0.1292
19896W        W35513   4.048   1.036   6.276 -0.0209 -0.3918  0.1592
19897W        W35514   2.611  10.653  16.872 -0.0630 -0.0357 -0.2983
19898W        W35515   8.323   5.020   4.215  0.2573 -0.1536  0.0955
19899W        W35516   4.034  16.540   0.784 -0.2180  0.3129 -0.0090
19900W        W35517  12.879  15.855   1.642  0.1826  0.2368  0.0825
19901W        W35518  14.277   4.739   3.830 -0.1883 -0.1324 -0.1018
19902W        W35519   2.727  10.090  17.015 -0.1127  0.1093  0.2023
19903W        W35520  14.476  17.299  15.844  0.2283 -0.2597 -0.2071
19904W        W35521   2.301  13.086  13.685 -0.2105 -0.0648  0.0485
19905W        W35522   9.490   3.030   0.151 -0.1809  0.1430 -0.0072
19906W        W35523   7.562   2.016  12.741 -0.0373  0.3409  0.0993
19907W        W35524  11.942   0.872   2.916 -0.0606 -0.1608  0.3265
19908W        W35525  15.490   8.909   4.895  0.0397 -0.2059  0.0187
19909W        W35526   8.990  11.457   4.916  0.0222  0.0303 -0.2774
19910W        W35527  10.518   6.166  16.123  0.1016  0.0743  0.0434
19911W        W35528   7.979  16.196  11.973 -0.5762  0.2493 -0.2129
19912W        W35529   9.415   9.068  12.354 -0.1752 -0.2746  0.2024
19913W        W35530   4.768   2.411   2.838  0.1413 -0.1790  0.0204
19914W        W35531   1.586   7.003  15.479  0.2952 -0.2260  0.0464
19915W        W35532  15.245   5.866  12.957  0.0476 -0.0516  0.1124
19916W        W35533   3.266   9.015   4.062 -0.1619 -0.0089 -0.0633
19917W        W35534  10.293   8.907  13.665  0.2712  0.0154 -0.2857
19918W        W35535   8.756   9.265   5.698 -0.1300 -0.3131  0.1003
19919W        W35536   1.403   3.218   1.943 -0.3108 -0.1048 -0.2466
19920W        W35537   8.100   2.365  15.439 -0.1191  0.2036 -0.0654
19921W        W35538  12.674   4.689  12.496  0.2251 -0.1348 -0.1352
19922W        W35539   7.494   6.047   0.693  0.0205 -0.0098  0.3947
19923W        W35540  11.289  13.900  14.451 -0.1019  0.0246  0.3053
19924W        W35541  15.616  15.290   1.302  0.1134  0.1992 -0.2945
19925W        W35542  11.067  16.656   0.490 -0.2416  0.2580 -0.1352
19926W        W35543   8.169   4.207  15.072 -0.0190 -0.0386 -0.0994
19927W        W35544   5.394   4.515   5.908 -0.2124 -0.0857 -0.3311
19928W        W35545   3.204   5.980   4.555  0.0324 -0.0505  0.0431
19929W        W35546   9.893   4.313   3.422  0.0869  0.0429  0.4673
19930W        W35547  13.977  13.282  13.070 -0.0082  0.0831 -0.1575
19931W        W35548   1.741  11.914   1.583  0.0789  0.2679  0.0144
19932W        W35549   7.542  14.339  14.252 -0.1237 -0.1073 -0.1245
19933W        W35550  13.612   2.702  14.862  0.0432  0.1355  0.2083
19934W        W35551  11.250  17.447  15.570 -0.3301  0.0258  0.0771
19935W        W35552   0.063   3.829  14.865  0.0250  0.2599  0.3073
19936W        W35553   9.951  17.188  14.245 -0.1802  0.1492  0.2975
19937W        W35554  16.131  14.670  12.664 -0.1448 -0.3378  0.2343
19938W        W35555   8.289   7.768   0.682  0.2102 -0.2270  0.3724
19939W        W35556   3.391   3.453   3.741 -0.2673 -0.0470 -0.1579
19940W        W35557   0.052   4.928   3.190 -0.2362  0.0892 -0.1591
19941W        W35558   0.521   4.374   1.807 -0.0902  0.3180 -0.3732
19942W        W35559   2.975   4.854  15.564  0.1179  0.1929 -0.1749
19943W        W35560   2.149  14.157  12.953 -0.0006 -0.0252 -0.0138
19944W        W35561   8.011  13.229  13.436  0.1136 -0.2695 -0.1731
19945W        W35562  10.342   4.664   1.952 -0.2716 -0.2137 -0.0293
19946W        W35563   8.921   6.817   6.285  0.2216  0.1947 -0.1055
19947W        W35564   9.199  16.810  15.502 -0.0285  0.1474 -0.3323
19948W        W35565  14.672  17.391  16.429 -0.1173 -0.2619  0.1130
19949W        W35566  12.862   6.290   5.167  0.1968  0.0879  0.2782
19950W        W35567  13.202  13.958  16.511  0.1794  0.4319  0.0383
19951W        W35568   9.852   1.942  11.938  0.0254 -0.1445  0.0510
19952W        W35569   6.946  15.406   1.671 -0.1621 -0.0499  0.1146
19953W        W35570  11.223   5.072   2.661  0.0913  0.0402 -0.1777
19954W        W35571   4.542  16.957   4.824  0.0269  0.0874  0.1350
19955W        W35572  16.105   0.764  14.980  0.0611  0.1119 -0.2500
19956W        W35573   8.847  12.776  14.617  0.0853 -0.1994 -0.1824
19957W        W35574  13.412   5.853  12.020 -0.1862 -0.0862 -0.0251
19958W        W35575  12.926  13.369   0.497  0.0159  0.0892 -0.1413
19959W        W35576  16.751   5.418   1.359  0.0300 -0.1599 -0.1454
19960W        W35577  14.130   1.259  13.724 -0.0008  0.2264 -0.3092
19961W        W35578   5.603  14.181  16.896 -0.0438  0.1324 -0.3551
19962W        W35579   7.440  10.093  15.554 -0.2676 -0.1194 -0.2466
19963W        W35580  13.394   7.046   4.086 -0.1247  0.0495 -0.1794
19964W        W35581   8.694   9.411  15.964 -0.2304 -0.3789 -0.2131
19965W        W35582   3.575  10.540   1.270 -0.4276 -0.1219 -0.1370
19966W        W35583  14.610  15.056  15.711  0.0114  0.1439  0.0448
19967W        W35584   4.194  11.533  13.212  0.1849 -0.0248  0.0765
19968W        W35585  10.792   5.573   5.942 -0.2244  0.3118 -0.0795
19969W        W35586   1.387  12.777   2.563  0.0603 -0.1882 -0.1124
19970W        W35587  15.828   3.914  15.815 -0.0733  0.0860  0.0593
19971W        W35588  10.241   6.571   3.435 -0.1519  0.1434  0.0782
19972W        W35589   9.832  15.030  11.140 -0.2061 -0.0427  0.0383
19973W        W35590   2.206  11.519  16.828 -0.0881  0.1124  0.2093
19974W        W35591  10.216  11.671  14.206 -0.0148 -0.0614 -0.2152
19975W        W35592   1.369   9.199   3.092 -0.0537 -0.1487 -0.3897
19976W        W35593  16.274   2.998   3.526 -0.4467 -0.2731 -0.1167
19977W        W35594   5.749   1.900  14.703  0.3901 -0.0112  0.0336
19978W        W35595   0.600  16.135  14.328  0.1046 -0.0574  0.1675
19979W        W35596  12.369  15.710   1.728 -0.1754 -0.2493  0.0517
19980W        W35597  14.541  11.658   5.457 -0.1340  0.4851 -0.1296
19981W        W35598   6.049  17.372   5.015 -0.1512  0.1566 -0.2006
19982W        W35599  16.289   5.095  13.170 -0.1623 -0.1244  0.2094
19983W        W35600  17.263   2.755   1.159  0.1997 -0.2778  0.3264
19984W        W35601  16.703   7.235  14.409 -0.0358 -0.4633 -0.1301
19985W        W35602   5.866   6.712   4.826 -0.0061  0.1477  0.2202
19986W        W35603  13.203   2.497  12.733  0.3097  0.1627 -0.0238
19987W        W35604  11.047   6.819   3.994 -0.1834 -0.2978 -0.1681
19988W        W35605  13.939   4.938   3.512 -0.2200 -0.0287 -0.0940
19989W        W35606  14.185  11.191  13.342 -0.2622 -0.1316  0.2775
19990W        W35607   0.424   7.526   1.606  0.1054  0.3171 -0.1564
19991W        W35608   0.564  15.804   1.771 -0.1440 -0.2607 -0.1788
19992W        W35609   4.961   1.770   5.301  0.1429  0.2077  0.2481
19993W        W35610   8.808  14.955  15.077  0.0276  0.1357  0.3006
19994W        W35611  14.636   7.587   1.801  0.0173 -0.0259  0.0780
19995W        W35612   2.380   5.364   4.886  0.1483 -0.3451 -0.1814
19996W        W35613  10.496   1.192  17.113 -0.1076  0.0947  0.0759
19997W        W35614   3.977  17.488  16.853 -0.1515 -0.0739 -0.2543
19998W        W35615  15.912  10.875  14.547  0.2550  0.2751  0.1891
19999W        W35616  13.555  10.056   1.089 -0.0705  0.0244  0.1459
20000W        W35617   4.942  15.208  14.284 -0.0025  0.0300  0.0877
20001W        W35618  14.791  16.072   0.636  0.1019 -0.2208  0.0051
20002W        W35619   9.429   2.584  14.205  0.0178 -0.3268 -0.4183
20003W        W35620   2.880  13.613   4.572  0.2742 -0.0085 -0.2518
20004W        W35621   1.460  17.506   0.157  0.1744  0.0398  0.0074
20005W        W35622   1.587   6.755   0.762  0.1419 -0.1124 -0.3081
20006W        W35623  16.092   1.736   0.303  0.0468 -0.0496  0.0188
20007W        W35624  10.484   0.770  13.399  0.2416  0.0356 -0.3564
20008W        W35625  12.544   1.388  16.609 -0.0410  0.0198 -0.1300
20009W        W35626   7.467   1.253   0.000 -0.3066 -0.1356  0.0318
20010W        W35627   0.393   0.100  17.113  0.2046  0.1380  0.3197
20011W        W35628   9.653   7.233  11.591  0.0446  0.1156  0.0042
20012W        W35629   5.030   9.857  13.808  0.0194 -0.2207 -0.1416
20013W        W35630  10.424  16.573   4.153  0.0832 -0.3377 -0.0078
20014W        W35631   9.233   6.491  17.000 -0.3016 -0.1260 -0.0101
20015W        W35632  13.910   3.413   2.720  0.0586 -0.0132 -0.0951
20016W        W35633  17.192   9.303   6.261 -0.1404  0.1062  0.1445
20017W        W35634   2.566   1.211  15.738 -0.0047 -0.3397 -0.0286
20018W        W35635   0.323   8.394  16.314 -0.0010 -0.2520 -0.2263
20019W        W35636   9.242  10.645  16.995  0.0452  0.1629 -0.0029
20020W        W35637  17.489  10.831   5.297  0.1675  0.0609 -0.2716
20021W        W35638   4.221   2.116   5.806  0.3110  0.1260  0.3344
20022W        W35639  10.417  12.224  13.862 -0.0333  0.0461 -0.1254
20023W        W35640   8.324   6.213  12.402  0.3945  0.0491  0.1359
20024W        W35641  17.087  14.976   1.303 -0.0033  0.3339 -0.0582
20025W        W35642   8.382   6.532   4.253 -0.2531 -0.1200  0.0754
20026W        W35643  10.734   5.341  16.786  0.1874  0.3069  0.1805
20027W        W35644  16.838  13.798   1.700  0.1230 -0.0017 -0.1615
20028W        W35645  13.504   0.120   5.103  0.0599  0.1442  0.0438
20029W        W35646   1.559  14.376   1.708  0.1336  0.3880  0.1842
20030W        W35647   9.427  17.563  14.473 -0.4417 -0.3030  0.0319
20031W        W35648   1.181   4.151   1.169 -0.1102 -0.1372 -0.2110
20032W        W35649  14.970   3.890   6.926 -0.0462 -0.1146  0.1596
20033W        W35650   1.836   0.701  16.993  0.2346  0.2848 -0.0483
20034W        W35651  13.797   0.966  15.481  0.0976 -0.0708  0.0196
20035W        W35652  10.100   4.792   0.726  0.2093  0.0693 -0.1720
20036W        W35653  12.516   6.977  16.257 -0.3507 -0.4219  0.1989
20037W        W35654  11.974   1.197   2.465 -0.1004 -0.0681 -0.0187
20038W        W35655   9.385   5.187   2.811 -0.1881  0.1164  0.1608
20039W        W35656   4.059   7.882   6.332 -0.0999  0.1659  0.3234
20040W        W35657   7.856   7.572   0.960 -0.0519  0.3303  0.1055
20041W        W35658   4.212   8.673  15.689 -0.2680 -0.0676  0.2023
20042W        W35659  16.350   1.091  13.209  0.2758  0.0985  0.1742
20043W        W35660   5.444   1.784  16.044  0.1809  0.2420  0.0265
20044W        W35661  10.779  15.277   3.409 -0.3273 -0.0220  0.1925
20045W        W35662   6.377  10.515  11.985  0.3857  0.0474 -0.1099
20046W        W35663  14.335  14.550   2.818  0.0803 -0.1962  0.1210
20047W        W35664  12.673  13.639  15.365 -0.1164  0.3394  0.1031
20048W        W35665  16.896  15.842  10.944  0.0976 -0.0539  0.0844
20049W        W35666   0.472  13.581  14.492  0.0168  0.0878 -0.2647
20050W        W35667   0.205   4.423  13.069 -0.2040  0.2228 -0.3844
20051W        W35668   6.210   6.022  13.213  0.0558  0.2478  0.1494
20052W        W35669   3.031   9.360   2.603 -0.0812  0.0116 -0.1356
20053W        W35670   8.058  13.541  16.798  0.1678  0.2468 -0.0500
20054W        W35671   6.907  11.912  17.289  0.1028 -0.0509  0.1074
20055W        W35672   9.540  12.859  12.931 -0.2182  0.0033 -0.0958
20056W        W35673  17.046  14.329  13.640  0.1656  0.2338 -0.0404
20057W        W35674  16.221  10.311  15.618 -0.0756 -0.0963 -0.0630
20058W        W35675   7.217   8.833   5.141  0.2781 -0.1690  0.3340
20059W        W35676   3.309  17.024  13.524 -0.0996  0.0900  0.3295
20060W        W35677  17.136  13.862  14.742 -0.0552  0.1690 -0.2486
20061W        W35678   3.611   8.378   5.202  0.0370 -0.0440  0.0629
20062W        W35679  10.424   5.721  15.225  0.2332  0.2978  0.0175
20063W        W35680  14.034   7.670  13.224  0.4657 -0.4858  0.2630
20064W        W35681   7.048   2.376   5.008 -0.2538 -0.0086 -0.3164
20065W        W35682   6.153  14.593   0.839 -0.3233  0.0863 -0.0632
20066W        W35683   0.701  11.570  15.998  0.0546 -0.0193 -0.0036
20067W        W35684  16.732  14.854  14.527 -0.1266 -0.3804 -0.1251
20068W        W35685   9.221   3.016  15.309  0.0006  0.0611  0.1064
20069W        W35686  14.065   7.755   5.130  0.3721  0.1148 -0.1557
20070W        W35687  15.679  13.117   0.647 -0.3693  0.4592 -0.1759
20071W        W35688   1.959   9.878   4.204  0.0215 -0.0548  0.0863
20072W        W35689   9.138   0.414   0.425 -0.1574 -0.2234 -0.1659
20073W        W35690   3.280  15.625  15.548  0.4518  0.2202 -0.0931
20074W        W35691   1.303  12.559  16.192 -0.3494 -0.2919 -0.2097
20075W        W35692   2.985   4.655  16.157  0.0526  0.2582 -0.4013
20076W        W35693  13.570  17.348   1.123 -0.1933 -0.1204  0.0307
20077W        W35694  10.231  10.577   1.313 -0.1034 -0.0783  0.0767
20078W        W35695   5.316   8.543  16.512  0.2421  0.2060 -0.1039
20079W        W35696   6.668  14.518  12.329  0.1209 -0.0258 -0.0688
20080W        W35697   6.028   2.621  17.246 -0.1917  0.4290 -0.0214
20081W        W35698   8.219   2.202  16.051  0.2099  0.3120 -0.0645
20082W        W35699   3.035   8.246  17.100 -0.4347 -0.1714  0.1426
20083W        W35700  12.198  11.211  12.607  0.0432 -0.1960  0.1200
20084W        W35701   8.897   2.775  11.865  0.0309  0.2483  0.0415
20085W        W35702  13.064   4.173  14.539 -0.1188 -0.1415 -0.0465
20086W        W35703  16.866  11.461  16.523 -0.2012 -0.1405  0.0874
20087W        W35704   6.799   1.849   1.126 -0.1936  0.1194 -0.0622
20088W        W35705  11.889   9.117   0.077 -0.2402 -0.0098 -0.1490
20089W        W35706   0.495  11.963   0.156 -0.0790 -0.2591  0.2861
20090W        W35707  15.233  14.162   0.401 -0.0749  0.2697  0.2904
20091W        W35708   4.626   1.526  16.781 -0.0174 -0.3213  0.2137
20092W        W35709  15.669  11.613  16.589  0.1663 -0.2674  0.0104
20093W        W35710  17.219  12.571   2.926  0.0395 -0.4718 -0.1812
20094W        W35711   7.004   3.482   3.094 -0.2212  0.2358 -0.0993
20095W        W35712   7.341  10.076  14.953  0.0781  0.0990  0.0311
20096W        W35713   2.892   4.141   3.299  0.1794  0.0563 -0.0030
20097W        W35714   4.648   0.460  13.218 -0.3665 -0.0701  0.1589
20098W        W35715  11.896  10.001  15.652 -0.0474 -0.0948  0.2298
20099W        W35716   6.276   2.239   3.839 -0.1490 -0.1468  0.1856
20100W        W35717  10.576   6.105   5.950 -0.0214 -0.0252 -0.1898
20101W        W35718   2.260  10.713   5.053  0.0619 -0.0568  0.1139
20102W        W35719   2.842   6.541   2.871 -0.1254  0.0849  0.4678
20103W        W35720   2.903  14.904   2.495  0.0683 -0.0284  0.0139
20104W        W35721  13.260  12.766   3.701  0.0262  0.0833  0.2416
20105W        W35722   5.064   1.786   0.386  0.2201 -0.3599 -0.0931
20106W        W35723  10.886  17.003  11.834 -0.0017 -0.0878  0.3271
20107W        W35724  12.054  15.159   3.963 -0.0976 -0.1716  0.0409
20108W        W35725  13.145  10.700   2.747  0.1009 -0.2975 -0.1177
20109W        W35726  15.931  10.259   6.748 -0.0798  0.0935  0.0634
20110W        W35727   0.154   8.569   4.374  0.0675 -0.0573 -0.0437
20111W        W35728  12.988   4.981   5.760  0.1280 -0.2760  0.0393
20112W        W35729  13.979  16.478  13.300  0.1572 -0.0917 -0.1368
20113W        W35730  11.421   0.800  16.886  0.3212 -0.3086  0.1506
20114W        W35731   1.243   7.606  13.073 -0.2663  0.0063 -0.0313
20115W        W35732   8.867  14.195   1.816 -0.0455  0.0597 -0.0190
20116W        W35733   8.847   3.328   3.549  0.2067 -0.0017  0.2208
20117W        W35734   7.141  12.653  15.407  0.1709 -0.0282 -0.0029
20118W        W35735  12.584   1.570  12.172  0.2487  0.0838  0.0556
20119W        W35736   8.324   6.585   5.110  0.0957  0.3687 -0.1831
20120W        W35737   3.577  13.438   5.704 -0.3602 -0.0478 -0.0653
20121W        W35738  12.311  14.649   2.420 -0.2123  0.2893  0.1038
20122W        W35739  10.604   3.528  16.551 -0.0260 -0.2216  0.1585
20123W        W35740  16.104  12.361  14.461  0.2366  0.0937 -0.3947
20124W        W35741   1.342   2.170   0.715 -0.1217  0.1054 -0.0431
20125W        W35742   9.815   1.269  11.360 -0.0404  0.2953  0.0258
20126W        W35743   9.776  10.453  15.403  0.1374 -0.0429 -0.1871
20127W        W35744   4.998  10.137   2.560 -0.0083 -0.0044 -0.1840
20128W        W35745   4.170   1.686  14.823 -0.2328  0.3756  0.3379
20129W        W35746  12.900  14.523   3.718 -0.1064  0.0639 -0.4317
20130W        W35747   4.652   0.172   0.241  0.0060 -0.2115  0.0094
20131W        W35748   0.962  13.583  14.291  0.1367 -0.0396 -0.0852
20132W        W35749   3.679   9.366   3.530 -0.0338 -0.1893  0.1732
20133W        W35750   1.752  15.512   0.800 -0.1267 -0.0131  0.3396
20134W        W35751  16.708   2.937   1.871 -0.2216 -0.0078 -0.0122
20135W        W35752   3.360   5.009   5.594 -0.0350 -0.1229  0.0746
20136W        W35753   2.637   3.286   2.802  0.0326  0.2233  0.0923
20137W        W35754  10.328  16.120   0.258  0.0625  0.0501 -0.1864
20138W        W35755   7.622  15.340  11.171 -0.1243 -0.5422 -0.0445
20139W        W35756  15.891   9.560  16.968  0.2195 -0.0970 -0.0941
20140W        W35757   9.435   8.111  12.229  0.0664  0.1006 -0.1091
20141W        W35758  13.082   7.840   4.727  0.3358 -0.2696  0.2496
20142W        W35759  14.093   8.790   3.474 -0.0839 -0.2311 -0.0841
20143W        W35760  15.479   7.066  15.915  0.1665 -0.0542 -0.0090
20144W        W35761   4.661   8.196   7.059 -0.2144 -0.1373  0.2667
20145W        W35762  13.095   4.295   3.467 -0.0110  0.1180 -0.1243
20146W        W35763   0.732   7.824   6.862  0.1296 -0.1902  0.0617
20147W        W35764   6.900  12.530   4.417  0.2101  0.2522 -0.1117
20148W        W35765   7.217   7.455  16.188 -0.0900 -0.1511  0.0250
20149W        W35766   2.392   8.189  14.239 -0.2105  0.2685 -0.3484
20150W        W35767  15.442  17.518   3.057  0.1212  0.1396  0.1733
20151W        W35768   8.297  14.158  15.348  0.0243  0.1352  0.1338
20152W        W35769  15.307   0.127  13.370  0.1666  0.0180 -0.0771
20153W        W35770   7.337   1.858   3.905  0.0023  0.1444  0.0189
20154W        W35771   3.432   3.472  16.663  0.0413  0.0193 -0.2212
20155W        W35772   9.456   0.197  11.350  0.2617 -0.2987  0.0768
20156W        W35773   4.557  12.625   5.827 -0.0420 -0.0636 -0.4059
20157W        W35774   6.642  17.398   4.391  0.1288  0.4732 -0.0508
20158W        W35775  14.806   4.662  12.237  0.1265  0.0214 -0.0103
20159W        W35776   1.420  16.018  12.002  0.1427 -0.2810  0.0041
20160W        W35777  13.342   6.286   6.328  0.0330 -0.3531  0.0414
20161W        W35778  13.346  12.410  16.794  0.1913  0.0424  0.0508
20162W        W35779  13.187  15.115   0.507  0.5438 -0.1110 -0.0165
20163W        W35780  14.322  15.953   2.066  0.0798  0.0577 -0.1444
20164W        W35781   7.737   8.003  13.087 -0.3448  0.0883  0.1495
20165W        W35782  13.736  13.992   3.388 -0.1159 -0.2297 -0.1493
20166W        W35783   0.361   5.662  12.178 -0.0162 -0.0775  0.0151
20167W        W35784  13.957   4.014   1.728  0.1780  0.0370 -0.0384
20168W        W35785  13.873  17.509  17.024  0.0631  0.2006  0.0637
20169W        W35786  11.218  15.542  11.175  0.0124 -0.0021 -0.1930
20170W        W35787  12.152  11.516   3.063  0.0870 -0.3889 -0.0326
20171W        W35788   9.038   6.592  13.182  0.0932  0.1941 -0.2517
20172W        W35789   3.456  11.513  16.237  0.0294 -0.2989  0.0082
20173W        W35790   8.323  15.480  12.343  0.2806  0.0751 -0.3186
20174W        W35791   8.495   6.573   6.508  0.3409  0.2146  0.4168
20175W        W35792   8.114   9.754   2.508  0.3266 -0.1368  0.2112
20176W        W35793   7.479   7.709  14.711 -0.1736 -0.1198  0.1051
20177W        W35794  11.091   8.404  13.654 -0.2851 -0.2118  0.1106
20178W        W35795  12.669  10.947   3.819  0.0750  0.0731  0.3404
20179W        W35796  10.767   3.487  11.841 -0.1016  0.1622  0.0426
20180W        W35797   1.042   4.980  13.554 -0.2119 -0.1561 -0.3617
20181W        W35798  15.341   4.741  14.728 -0.1751  0.1125  0.3472
20182W        W35799   2.872  14.009   3.042  0.0978 -0.4156 -0.0721
20183W        W35800   3.471   1.437  11.737  0.0845  0.0261 -0.1754
20184W        W35801  14.688   3.789  16.506  0.1790 -0.1957 -0.1289
20185W        W35802   6.108  12.174   5.637 -0.1073  0.3291  0.0574
20186W        W35803   2.923  17.375   6.448 -0.0433 -0.3157 -0.1793
20187W        W35804  10.444  14.004  15.163  0.3139  0.1844  0.0593
20188W        W35805   8.271   7.292   3.487  0.4620  0.0323  0.0977
20189W        W35806  10.736  15.655  12.609 -0.0217  0.1514 -0.0250
20190W        W35807   0.323  11.136   4.627  0.1958  0.0920 -0.0245
20191W        W35808  15.883   2.001  12.970 -0.1753 -0.3760  0.1798
20192W        W35809   8.721   2.494   0.055 -0.0739  0.0792  0.1058
20193W        W35810   9.839   8.784   3.731  0.2871 -0.1357 -0.1614
20194W        W35811  11.161   0.536  16.511 -0.1069 -0.2764  0.3339
20195W        W35812   2.430   0.338  16.478  0.0919 -0.0246 -0.1571
20196W        W35813   1.932  16.117   4.910 -0.1579  0.1440  0.1602
20197W        W35814  15.231  10.630   0.552  0.1055 -0.2369  0.3129
20198W        W35815  12.985   5.815  16.790  0.0393 -0.2491 -0.1067
20199W        W35816  12.559   3.296   4.824  0.2355 -0.0228 -0.0348
20200W        W35817  10.420   2.793   4.417 -0.0892  0.0311 -0.2784
20201W        W35818   1.742   6.072   2.152  0.0571 -0.0385  0.1384
20202W        W35819  11.279   5.969  12.237  0.0327  0.3948 -0.2263
20203W        W35820  17.339  17.571   0.609  0.0881 -0.0776 -0.3929
20204W        W35821  13.496   2.345  13.668 -0.0542  0.1610 -0.3949
20205W        W35822  15.858  13.670   0.033  0.0737 -0.2388 -0.2032
20206W        W35823  16.621   1.172  15.452  0.0325 -0.0849 -0.2600
20207W        W35824  14.179  16.367   0.951  0.0916 -0.1962 -0.0103
20208W        W35825   8.920   0.906   2.789 -0.2765 -0.3094 -0.0685
20209W        W35826   8.980  10.274  15.710 -0.0754 -0.2464  0.0436
20210W        W35827  11.651  13.762   2.439  0.3276  0.3044 -0.2398
20211W        W35828   8.883   0.110  15.155 -0.0248  0.1786  0.0230
20212W        W35829   6.306  13.561  12.521 -0.0297  0.0621  0.1371
20213W        W35830   0.193  10.763   1.013 -0.0148  0.1475 -0.1454
20214W        W35831   5.120  14.506  13.894  0.2190 -0.0114  0.1162
20215W        W35832   6.356  11.905   4.825  0.3219  0.1812  0.2499
20216W        W35833   0.673   0.210  12.157  0.1089  0.0071  0.0587
20217W        W35834  13.875   1.589   0.216 -0.0409 -0.2819  0.0332
20218W        W35835   9.701   2.155   3.702  0.0171 -0.0625 -0.4295
20219W        W35836   0.974  14.660   5.056 -0.1060  0.0136 -0.0467
20220W        W35837  13.556   5.262   2.776 -0.4287 -0.3659 -0.0418
20221W        W35838   4.411   6.133   1.106 -0.0624 -0.2012  0.0595
20222W        W35839   3.173   4.928  16.528  0.0721  0.2628 -0.0712
20223W        W35840   5.971   9.530  10.580 -0.1532  0.0749  0.0244
20224W        W35841   5.680   9.349  14.735 -0.0736 -0.2957  0.1906
20225W        W35842  10.962   0.313  14.040 -0.0631 -0.0903  0.1450
20226W        W35843  13.241  12.441  14.752  0.1861  0.1585 -0.1500
20227W        W35844   7.623   9.760   5.424 -0.1582  0.2792 -0.3993
20228W        W35845  13.838   0.852  13.271  0.2786 -0.0216  0.2549
20229W        W35846   4.577  15.083  17.004  0.2015 -0.0851 -0.1112
20230W        W35847  10.724  16.239  11.211  0.2229 -0.0104  0.0970
20231W        W35848  13.489  17.423  16.109 -0.3839  0.1424 -0.1451
20232W        W35849  12.091   9.946  13.377  0.1464  0.2718 -0.1580
20233W        W35850   2.273   4.619   3.229  0.1061 -0.4964 -0.0521
20234W        W35851   5.069  15.530  16.869 -0.1142 -0.0262  0.0760
20235W        W35852  13.461   6.706   2.390  0.0593 -0.1222  0.1648
20236W        W35853   9.524   3.652  12.426 -0.2336 -0.0739  0.0606
20237W        W35854  14.241   0.833  11.818 -0.0763 -0.1480 -0.1916
20238W        W35855   9.268   6.181  16.223  0.2356 -0.2204  0.0049
20239W        W35856  13.802   5.687   2.586  0.1352  0.3292 -0.1196
20240W        W35857   1.546  11.958   0.693 -0.1212  0.2239  0.3355
20241W        W35858   9.242  14.107   5.215 -0.1167 -0.2953 -0.0076
20242W        W35859   2.726   2.889   2.475  0.1429  0.0332 -0.0947
20243W        W35860   9.081   9.068  16.527  0.1837  0.0001  0.0464
20244W        W35861  10.217   9.395  12.272  0.1642  0.1899 -0.4673
20245W        W35862  16.213  16.046   0.190  0.1189 -0.1419  0.1522
20246W        W35863  12.395  13.103  11.801  0.2845  0.0973 -0.0834
20247W        W35864   1.898  13.524  14.680  0.2293  0.3351 -0.2805
20248W        W35865  16.546   3.996  16.359  0.0006 -0.1674 -0.0080
20249W        W35866   1.101   7.140   2.181 -0.1932 -0.1209 -0.0852
20250W        W35867  13.072   6.356   4.718  0.0462  0.0098 -0.0411
20251W        W35868   9.625  12.328  16.497 -0.0740  0.0032 -0.3232
20252W        W35869   0.945   0.728   0.277 -0.1948  0.2065 -0.1736
20253W        W35870   7.861  11.571   1.179 -0.0985  0.0925  0.0367
20254W        W35871  15.556   6.514   3.080  0.0716 -0.0555 -0.1960
20255W        W35872   1.515  16.527  14.335  0.2337  0.0273 -0.1008
20256W        W35873   7.431   5.978   4.824  0.1795 -0.1101 -0.2739
20257W        W35874  13.532  13.410   2.530  0.4437 -0.2079  0.0757
20258W        W35875   4.130   3.997   6.117 -0.1854 -0.1187 -0.0798
20259W        W35876   4.587   8.175  15.131 -0.1340  0.1920 -0.1343
20260W        W35877  11.022  13.063   3.517  0.0172  0.0888  0.0266
20261W        W35878   7.356   3.952  13.817  0.0964 -0.0161  0.0360
20262W        W35879  16.117   0.237  16.324 -0.4577  0.1196 -0.0359
20263W        W35880  12.054   8.253   3.650 -0.1543  0.0819 -0.1384
20264W        W35881  14.267   1.323  13.204 -0.0699  0.2338  0.1432
20265W        W35882  11.254   4.612   4.629 -0.4307  0.0901 -0.2381
20266W        W35883   3.921   9.457  16.130  0.1584 -0.1474  0.0242
20267W        W35884  13.050  16.252   2.545 -0.1982  0.1301 -0.0371
20268W        W35885   0.858   7.419  17.009 -0.2658 -0.0100  0.1765
20269W        W35886   6.762  17.447  14.724  0.1361 -0.0552 -0.0451
20270W        W35887   9.616   4.662  16.808 -0.0562  0.1844  0.0899
20271W        W35888   3.480  13.809  10.942  0.0951  0.1249  0.1687
20272W        W35889  15.076   9.092   4.611  0.1107 -0.0199  0.0235
20273W        W35890  11.688  14.237  12.728  0.2216  0.1294 -0.2387
20274W        W35891   0.414   7.867  17.253  0.2634 -0.1084  0.0227
20275W        W35892  17.445   0.442   1.013  0.3195  0.4919  0.2135
20276W        W35893   7.906   8.642   2.514 -0.2519 -0.3316 -0.0370
20277W        W35894  12.163   6.874   6.050  0.2460  0.1353  0.0588
20278W        W35895   1.854  11.694  13.450  0.2381 -0.1367  0.2847
20279W        W35896  11.906   8.640   5.757 -0.1142 -0.0912 -0.1799
20280W        W35897   7.413  12.773  11.563 -0.1376 -0.0301  0.0118
20281W        W35898   4.775   5.603   3.477  0.3094 -0.0492 -0.0685
20282W        W35899  15.367   8.204   3.688 -0.0974 -0.1096  0.0832
20283W        W35900   2.388  12.969   2.512  0.0424  0.1122  0.0130
20284W        W35901  13.149  15.186   6.109  0.2616 -0.0498 -0.2405
20285W        W35902   8.550   4.834  15.193  0.0633  0.1431  0.1503
20286W        W35903   4.126   5.482   5.365 -0.0536  0.2276 -0.1998
20287W        W35904   1.780   9.764  12.437  0.0694  0.0087 -0.0436
20288W        W35905   9.937  14.881  13.830  0.1463 -0.2345 -0.0778
20289W        W35906   1.724  15.126   2.834  0.1922  0.0554  0.0157
20290W        W35907  15.814   0.891  15.660 -0.1758  0.1653 -0.1689
20291W        W35908   0.534  14.364  16.056  0.1364  0.2087  0.0627
20292W        W35909   8.237   1.315  12.494 -0.0296  0.1406  0.2209
20293W        W35910   0.672  16.612  14.171  0.0783  0.0345  0.3250
20294W        W35911  10.488  15.925   0.650  0.1245 -0.0173 -0.1823
20295W        W35912  15.003  12.590   0.560 -0.1422  0.1405 -0.1193
20296W        W35913  17.017  15.251  15.932 -0.1023  0.2109 -0.0035
20297W        W35914   8.172  17.217  12.213 -0.1633  0.2125  0.2272
20298W        W35915   6.126   4.079  15.384  0.0250  0.0864  0.3344
20299W        W35916  15.266   1.231   2.352  0.1617  0.0049 -0.0425
20300W        W35917  16.335  10.592  12.134  0.0092  0.1316  0.0870
20301W        W35918   3.608   3.009  14.070 -0.2716 -0.3246 -0.1053
20302W        W35919   9.581  12.432  16.001 -0.0616 -0.1217  0.1794
20303W        W35920   9.467  10.219   3.998 -0.1490 -0.1476 -0.0985
20304W        W35921   4.093  16.743   1.232  0.2717  0.3004  0.0321
20305W        W35922  16.160   8.408   1.209 -0.0582  0.3131  0.1913
20306W        W35923   1.798  13.145  13.671  0.1527 -0.3423 -0.4002
20307W        W35924   7.244   4.811  16.599 -0.1403 -0.1082 -0.1611
20308W        W35925  16.536   3.538   1.681 -0.2038  0.2071  0.2866
20309W        W35926   6.782   1.076   2.217  0.0209  0.0992  0.4014
20310W        W35927   5.522  16.814  12.509 -0.1550  0.3254 -0.0491
20311W        W35928   0.853  14.231  15.668  0.1787 -0.2561  0.0237
20312W        W35929  10.128   9.891  12.371  0.0144 -0.0302 -0.0607
20313W        W35930  13.958  17.291   1.479 -0.0601 -0.2742 -0.0675
20314W        W35931   6.800  10.769   0.446 -0.0347  0.2667 -0.1385
20315W        W35932  12.179   4.991   2.243 -0.1535  0.1865 -0.1116
20316W        W35933   7.632   6.788   1.304  0.0209 -0.0313 -0.1343
20317W        W35934   9.093  12.621   2.719  0.0116  0.1360  0.2403
20318W        W35935  14.449  16.079   4.003  0.3183  0.1612  0.0426
20319W        W35936   5.393  10.791  13.475  0.1819 -0.2352 -0.1319
20320W        W35937  12.303  15.700   1.186 -0.3317  0.0270 -0.0073
20321W        W35938  16.857  14.454   0.039 -0.3170 -0.0974  0.2768
20322W        W35939  12.309  14.142  16.828 -0.2069  0.5535 -0.2714
20323W        W35940  15.166   9.588  15.451  0.0448  0.2663 -0.1322
20324W        W35941   2.993   0.971  13.079 -0.0641  0.1591  0.0082
20325W        W35942   3.882   5.547  13.645 -0.1661 -0.2602 -0.0569
20326W        W35943  10.486   6.451  13.509 -0.0656 -0.1158 -0.2081
20327W        W35944  15.640  13.936   0.383  0.0518  0.2149  0.3698
20328W        W35945   5.586   4.044  14.061 -0.0581  0.3974  0.0807
20329W        W35946   1.408   1.070   5.295  0.1413  0.2037  0.1909
20330W        W35947   5.484  12.915   3.067 -0.1858 -0.1304 -0.1403
20331W        W35948   3.971   4.249   3.054 -0.0332 -0.1806  0.2018
20332W        W35949   3.963  12.410   1.717 -0.2524 -0.0318 -0.2786
20333W        W35950  17.606  13.575  14.882 -0.0207 -0.0729 -0.0169
20334W        W35951  10.771  16.854  15.020 -0.0611 -0.0085 -0.1033
20335W        W35952  12.970   4.706   0.513 -0.2029  0.0480 -0.0242
20336W        W35953   8.118  15.788   3.434  0.2590  0.0260  0.3510
20337W        W35954   3.663  12.154   2.071  0.2203  0.1331  0.0179
20338W        W35955  16.193   2.794   1.730 -0.0467  0.0297  0.2199
20339W        W35956  10.480   1.985  15.724 -0.0271 -0.3084 -0.0160
20340W        W35957  10.244   5.810   1.424 -0.0092 -0.1450 -0.1077
20341W        W35958   2.045  17.407   4.979  0.2533 -0.0164 -0.1518
20342W        W35959  12.079  16.927   0.881  0.0495  0.2720  0.1330
20343W        W35960   3.448  12.735  17.153 -0.0662  0.2658 -0.1065
20344W        W35961   0.239  10.002   1.660 -0.1645 -0.1694 -0.1158
20345W        W35962   7.322   0.262   3.856  0.1000 -0.2162 -0.1009
20346W        W35963  12.763   4.893  13.497 -0.1406  0.1153 -0.0328
20347W        W35964  14.675  10.434  16.572  0.1170  0.3158 -0.1690
20348W        W35965  16.955  12.812  11.996 -0.0345  0.0093  0.0248
20349W        W35966   7.278  13.949   4.977 -0.1416  0.1638  0.0272
20350W        W35967  11.921  11.077   3.146  0.1849 -0.0375 -0.3664
20351W        W35968  16.985  17.385  13.001 -0.0317  0.3091 -0.1117
20352W        W35969   2.189  14.425   2.337 -0.0200 -0.1553  0.2779
20353W        W35970   8.583   4.593   4.358 -0.1422  0.2716 -0.1148
20354W        W35971  10.122   8.341  17.279 -0.0610 -0.0392 -0.3289
20355W        W35972   1.895  14.534  13.404  0.0217  0.0470 -0.4161
20356W        W35973   6.949  16.657  13.908  0.0418 -0.3809  0.0835
20357W        W35974  14.973  10.274  13.195 -0.0798 -0.1877 -0.0809
20358W        W35975   2.227   7.849   0.691 -0.1290 -0.0879 -0.2337
20359W        W35976   3.474   2.904  16.534  0.0609  0.1045 -0.2937
20360W        W35977   4.494   2.874   1.769  0.1911 -0.1333 -0.1677
20361W        W35978   0.308   6.431  13.995  0.3038  0.0112 -0.0326
20362W        W35979  11.544   6.266   5.657 -0.2381  0.1030  0.1071
20363W        W35980   1.072   9.702   1.257  0.0028 -0.1186  0.1892
20364W        W35981  10.351   1.491   0.891 -0.3046  0.0912  0.0430
20365W        W35982  11.468   0.100  14.113 -0.2961  0.1792  0.1239
20366W        W35983   5.883   3.331  14.666  0.1041 -0.3219 -0.0849
20367W        W35984  14.991  12.958  16.508 -0.1290 -0.1622 -0.2447
20368W        W35985  16.117   7.803  15.723  0.1207  0.3353 -0.1376
20369W        W35986   9.208  12.009  16.607  0.0781  0.2152  0.1949
20370W        W35987   1.409   6.577   1.340 -0.2390  0.2683  0.0321
20371W        W35988  10.539   0.899  15.426  0.0725 -0.1425 -0.1220
20372W        W35989   9.310   2.711  11.605 -0.2860  0.1072 -0.0455
20373W        W35990   5.706   8.854  15.557  0.0826  0.2161  0.2652
20374W        W35991   8.157  11.910  17.214 -0.2541  0.2550  0.3307
20375W        W35992   5.716  15.356  15.043 -0.1706 -0.0185  0.1006
20376W        W35993   9.661   9.357   5.559  0.0490 -0.1271 -0.1955
20377W        W35994  13.864  10.739  15.803  0.0247 -0.1451 -0.0027
20378W        W35995   9.577  13.697  12.540 -0.0818 -0.5023 -0.1452
20379W        W35996  10.849   9.629  12.993 -0.1293  0.0593  0.2528
20380W        W35997   1.123  17.202   0.364  0.2161 -0.1314  0.0149
20381W        W35998   6.894   3.096   3.920  0.1251  0.0209 -0.3741
20382W        W35999  15.368   6.157  14.721 -0.4804 -0.3350  0.0017
20383W        W36000  11.282   4.261   1.121  0.1005 -0.2889 -0.0080
20384W        W36001  10.285  14.844   2.202  0.0171 -0.1239 -0.1093
20385W        W36002   0.093   4.526  16.619 -0.1238 -0.1408 -0.3180
20386W        W36003  16.820   6.264  12.712 -0.0044  0.0309  0.3528
20387W        W36004  14.335  16.118  11.448 -0.0177  0.0151 -0.0860
20388W        W36005  12.529  13.926   4.102  0.2198 -0.2278  0.1535
20389W        W36006   2.065   0.276   4.846 -0.0851  0.0524  0.1732
20390W        W36007   7.515   4.801   5.785 -0.0283  0.1150 -0.0379
20391W        W36008  12.731   6.918  15.771  0.0148  0.0327  0.2372
20392W        W36009  15.025   9.361   4.164  0.0595  0.1643 -0.0482
20393W        W36010  16.032  12.723  14.862 -0.1084 -0.1813 -0.2986
20394W        W36011   3.023   4.303   0.716 -0.0198 -0.3327  0.0321
20395W        W36012  12.349  11.147  13.215  0.0510 -0.0098  0.3210
20396W        W36013   4.945  12.769   3.430  0.0100  0.0031 -0.2303
20397W        W36014   8.821   9.935  12.448 -0.0146  0.0827 -0.0394
20398W        W36015   7.244   1.273   2.053  0.2449 -0.0826  0.2238
20399W        W36016   7.084   9.292   3.362  0.1834 -0.1066  0.0332
20400W        W36017   9.973   9.604   2.301 -0.1711 -0.0064 -0.0247
20401W        W36018  16.864   2.879   5.359 -0.1746 -0.1940 -0.0151
20402W        W36019   3.667   5.293   3.021  0.0875  0.2456  0.0264
20403W        W36020  12.950  16.604   4.868 -0.1753  0.0078 -0.2064
20404W        W36021  10.141  11.062   5.806  0.0666  0.0559 -0.1046
20405W        W36022  11.973   2.771   5.496 -0.2653 -0.1341  0.0861
20406W        W36023  14.005  16.612   4.406 -0.1822 -0.2132 -0.0809
20407W        W36024  12.533  13.542   3.160 -0.0126 -0.0966 -0.0632
20408W        W36025  15.926   7.732  14.428 -0.0494 -0.1589  0.3403
20409W        W36026   8.688  15.624  11.747  0.1361  0.3467 -0.0527
20410W        W36027   0.621   2.023   0.390  0.0741  0.2499  0.0844
20411W        W36028  15.616  13.404  12.219  0.2194 -0.1080  0.1496
20412W        W36029   9.678   3.217  14.503 -0.1236 -0.0607 -0.1009
20413W        W36030   8.744   2.260   0.456  0.0612  0.0267 -0.2357
20414W        W36031  11.105  17.085   5.490  0.1012 -0.2965 -0.0170
20415W        W36032   0.852   5.115   6.852  0.0684  0.1479 -0.2184
20416W        W36033  14.256   6.674  16.807 -0.2095  0.1293 -0.0710
20417W        W36034   6.984   2.793  15.885  0.0880 -0.4024 -0.2390
20418W        W36035  10.136   1.540  17.247  0.1718 -0.1234  0.0718
20419W        W36036   1.036   2.416  13.560 -0.1699 -0.1923  0.0630
20420W        W36037   9.789   6.273   4.278 -0.0062 -0.0477  0.3903
20421W        W36038  11.514  10.019   4.355  0.1606  0.1381  0.0359
20422W        W36039   1.531   8.568   5.156  0.1255  0.2797  0.0432
20423W        W36040   4.971   4.985  17.278  0.2446  0.0351  0.1033
20424W        W36041   9.356   7.560  13.739  0.1508  0.0057  0.0861
20425W        W36042  16.012  15.128  13.644  0.0711 -0.0158  0.0111
20426W        W36043  12.778   3.716   1.137  0.1485 -0.1514  0.1748
20427W        W36044   5.631  12.023  14.390  0.3658  0.2087  0.1798
20428W        W36045  12.687   2.149  14.089  0.2146 -0.2254  0.2482
20429W        W36046   8.204  12.569  16.484 -0.0774 -0.0302  0.0533
20430W        W36047  14.706   1.174  14.528 -0.1180 -0.1042  0.1255
20431W        W36048  15.807  10.475  16.523  0.0168 -0.0492 -0.0031
20432W        W36049   7.231   5.581  15.214  0.3181 -0.0099 -0.1560
20433W        W36050   2.790   7.549   4.580  0.1496 -0.2348 -0.1284
20434W        W36051  11.508  15.931   5.630 -0.0332  0.3046 -0.0221
20435W        W36052  17.063   9.361  16.189  0.0750  0.0378 -0.1860
20436W        W36053  10.820  13.833   2.405 -0.1271 -0.1329  0.2018
20437W        W36054   1.338  16.058  14.656 -0.1326 -0.0333 -0.1230
20438W        W36055   4.044   1.224   5.832 -0.1261  0.1347 -0.0968
20439W        W36056  13.974  15.455  12.358  0.1010 -0.2586 -0.3576
20440W        W36057  14.650   0.839   2.064  0.1811  0.1899  0.0922
20441W        W36058   3.807  11.995  14.567 -0.2214 -0.0070 -0.0925
20442W        W36059  14.852   3.356   3.482  0.2652 -0.2808  0.0892
20443W        W36060  14.270   2.567   4.507  0.2245  0.1294 -0.2846
20444W        W36061  13.348  13.708   3.749 -0.1144  0.3586 -0.3156
20445W        W36062   6.680  12.530  16.579 -0.0646 -0.1453 -0.2351
20446W        W36063   9.842   4.394   5.156 -0.3498 -0.2854  0.0432
20447W        W36064   1.867  14.717  16.087 -0.1880  0.1735  0.1369
20448W        W36065   9.549   1.370  16.945  0.1138  0.0581 -0.1165
20449W        W36066  12.318   1.262  16.176 -0.2126  0.0751  0.1376
20450W        W36067   1.372  12.012   4.710 -0.0378 -0.0480  0.1550
20451W        W36068   3.992   2.295   1.980  0.1040 -0.1103  0.0144
20452W        W36069  14.382   1.978   0.269 -0.0604 -0.2894 -0.2685
20453W        W36070  11.651   6.132   3.726 -0.0512 -0.2338  0.2224
20454W        W36071   4.273   2.917   4.664 -0.1013 -0.2161 -0.0414
20455W        W36072  14.917   8.090   4.867  0.1161 -0.0548  0.0933
20456W        W36073   0.129   1.993   4.757 -0.0962 -0.0252 -0.1404
20457W        W36074  12.813   9.379   3.312  0.0524  0.2772 -0.1813
20458W        W36075   5.341   8.116   3.566 -0.3538  0.0342  0.0734
20459W        W36076  11.537   5.809  14.215  0.0426 -0.3444 -0.2432
20460W        W36077   5.455  13.981  14.735 -0.1961 -0.1827  0.0515
20461W        W36078  14.384   0.838  14.927 -0.1485  0.0184  0.1041
20462W        W36079   6.124  15.772   5.595 -0.1882  0.0677  0.3939
20463W        W36080   3.552  16.213  17.283  0.1031  0.0664 -0.1860
20464W        W36081  17.202   7.460  15.426 -0.1895  0.1681  0.0147
20465W        W36082  12.847  17.583  13.512  0.0886 -0.2319  0.1029
20466W        W36083   7.027   8.837   2.492 -0.2901 -0.1582  0.1282
20467W        W36084   8.678  17.304  13.077  0.0751  0.4747  0.0959
20468W        W36085   2.242  12.192  13.619  0.0288 -0.0803  0.1104
20469W        W36086  16.210  12.615   5.424  0.0226 -0.0842  0.1894
20470W        W36087  16.308   8.987   3.044  0.1556 -0.0796 -0.1408
20471W        W36088   6.881   1.095  15.333  0.0257  0.2323  0.1351
20472W        W36089   2.963  13.763   6.613  0.0847 -0.1514 -0.2250
20473W        W36090   4.877   4.467   1.005  0.1898  0.2977 -0.1585
20474W        W36091  10.541  12.916  16.544  0.0429 -0.1948 -0.2741
20475W        W36092   5.072   1.194  13.505 -0.0184 -0.1104  0.3634
20476W        W36093   1.468  13.872   2.367 -0.1249 -0.1591 -0.2982
20477W        W36094   5.493  14.851  13.775 -0.4647 -0.1362 -0.0431
20478W        W36095  15.468  15.588   3.799 -0.0707 -0.1088 -0.1574
20479W        W36096   7.599  10.303  16.062  0.2195  0.0522 -0.1462
20480W        W36097  13.845   2.775   0.191  0.0797  0.4263 -0.0509
20481W        W36098  10.804  14.758   5.239 -0.2378  0.1779  0.2093
20482W        W36099   9.134   4.149   1.663 -0.0267  0.0550  0.0448
20483W        W36100  15.728   9.670  16.481 -0.0948 -0.0574 -0.3521
20484W        W36101   4.479   3.848  15.235 -0.1161  0.0733 -0.1553
20485W        W36102   0.559  11.669  17.048 -0.0005  0.0438 -0.0680
20486W        W36103  11.921   1.553  12.928 -0.3178 -0.0182 -0.0851
20487W        W36104  14.729   3.248  13.892 -0.0575  0.0830 -0.0389
20488W        W36105  17.148  13.295  17.099 -0.0048 -0.0280  0.0692
20489W        W36106   5.904   6.596   1.231 -0.2742 -0.3301  0.2522
20490W        W36107  12.093  12.519  13.520 -0.0328 -0.1107  0.0187
20491W        W36108   7.674   2.080   1.874  0.1365 -0.0530 -0.1804
20492W        W36109  16.459   0.910   3.989 -0.1354  0.0356 -0.0886
20493W        W36110  14.361   5.685   2.929 -0.2495  0.0490  0.1654
20494W        W36111  15.716  15.001  16.951  0.0181 -0.2053 -0.4948
20495W        W36112   3.463   9.577  13.558 -0.2897  0.2700 -0.0407
20496W        W36113  14.042  17.229  12.690 -0.0435 -0.4763  0.0802
20497W        W36114   6.367  15.958   0.002  0.0753 -0.1036  0.3632
20498W        W36115  15.974  12.940  13.747 -0.1860  0.1121  0.1357
20499W        W36116  17.444  15.494  14.938 -0.1312 -0.0483 -0.0996
20500W        W36117  14.562  12.573   1.273  0.0048  0.0478 -0.0669
20501W        W36118  14.780  15.777  11.617 -0.0063 -0.2451  0.0284
20502W        W36119   9.921  16.577   4.939  0.2512 -0.2966  0.0303
20503W        W36120   9.532  11.412   1.901 -0.3299 -0.0315 -0.0876
20504W        W36121   5.460   8.027  13.759  0.0286 -0.2739  0.3125
20505W        W36122  12.494   0.845  16.346  0.2169 -0.0744 -0.1688
20506W        W36123  11.509   5.684  16.171 -0.0038 -0.1804 -0.1288
20507W        W36124  17.298  15.497   4.155  0.0971  0.2622  0.2817
20508W        W36125   3.614   6.167   1.887  0.0660  0.2625  0.0977
20509W        W36126  16.282   3.480   5.709 -0.2499 -0.2378 -0.2302
20510W        W36127   4.699   8.840  15.842  0.2318 -0.0972  0.2053
20511W        W36128   0.773  17.375   3.606  0.0542  0.0333 -0.0788
20512W        W36129   6.057   9.352  14.411 -0.0048 -0.0484 -0.0230
20513W        W36130   9.227   6.923   5.473 -0.2629 -0.0301 -0.1059
20514W        W36131  15.950   7.041  13.313  0.1288  0.0812  0.0014
20515W        W36132   8.436   0.936  11.702  0.0149  0.0324  0.0340
20516W        W36133   7.107  15.371  15.797 -0.0573 -0.2420 -0.0345
20517W        W36134   6.798  11.332   3.589  0.0439 -0.2878  0.0232
20518W        W36135  12.809   7.980   0.317  0.0336  0.2696  0.1079
20519W        W36136   0.328  12.416   0.412 -0.1627  0.0432 -0.1184
20520W        W36137   0.501   5.241   3.223  0.1379  0.2640 -0.0818
20521W        W36138   0.078   5.816  15.859 -0.1310  0.0471 -0.0412
20522W        W36139   8.768   5.334   6.335 -0.0525  0.1659  0.1620
20523W        W36140   2.602  11.837   6.512 -0.0868 -0.1740 -0.1112
20524W        W36141   8.118   4.657  15.992  0.2239  0.0874 -0.1969
20525W        W36142   4.309   8.979   4.220 -0.0821 -0.0847 -0.1893
20526W        W36143   3.454   5.809   5.183 -0.0760 -0.2259  0.2054
20527W        W36144   3.867  10.845  15.404  0.2296  0.1086 -0.1819
20528W        W36145   1.914   2.304   5.314 -0.2813  0.0351 -0.1421
20529W        W36146   0.205  14.714   3.092 -0.0378 -0.2295  0.0297
20530W        W36147  17.198   1.383  14.683 -0.0035 -0.0316  0.0465
20531W        W36148  13.038  16.108  13.985 -0.0811  0.1321 -0.2601
20532W        W36149  15.201   5.094  16.659  0.0802 -0.1498  0.0632
20533W        W36150  13.184   4.666  13.269  0.0327 -0.0289 -0.1094
20534W        W36151   6.331   4.325   0.904 -0.2663  0.2443 -0.3033
20535W        W36152  15.208  16.760   2.048  0.2724  0.2427  0.0305
20536W        W36153  13.912  14.118  17.299 -0.0450 -0.0301  0.0324
20537W        W36154   5.076  11.226  12.468 -0.3750 -0.0066  0.1148
20538W        W36155   7.863   4.570   1.800 -0.0626  0.3116 -0.3146
20539W        W36156   5.403  12.816  16.959  0.1144  0.0270 -0.0710
20540W        W36157  16.850   7.622  16.082 -0.1386 -0.1984 -0.1079
20541W        W36158  15.142   1.176   3.342  0.0872  0.0717  0.1760
20542W        W36159  17.453   4.311   2.804 -0.0806 -0.1714  0.1178
20543W        W36160  13.263   8.557  14.533 -0.2798 -0.2027  0.5606
20544W        W36161  10.478  16.917  13.238 -0.1077 -0.0685  0.0523
20545W        W36162   9.453   2.236   1.792  0.0155 -0.0559  0.1372
20546W        W36163  14.897   9.525   0.066 -0.1641 -0.0132  0.2387
20547W        W36164  13.456   2.177   2.192  0.1683 -0.0029 -0.1395
20548W        W36165   9.003  16.474  15.872 -0.1028 -0.1165  0.0844
20549W        W36166   8.339   7.903   2.095 -0.2815 -0.1984  0.1821
20550W        W36167  14.801   1.010   5.482 -0.1617  0.0581  0.1328
20551W        W36168  15.371   6.034   0.537  0.0995 -0.1059  0.5714
20552W        W36169   4.647  15.913   4.897  0.0021  0.1295 -0.4519
20553W        W36170   0.856  10.301  13.489 -0.0624  0.1458 -0.0537
20554W        W36171   9.986  11.302   4.469 -0.2645  0.0043  0.1594
20555W        W36172  11.131   3.251   4.473 -0.0775  0.0337 -0.2494
20556W        W36173   6.874  11.514   0.988  0.0501 -0.0080 -0.0120
20557W        W36174  13.507  17.582   5.616 -0.2216  0.1072 -0.0776
20558W        W36175  10.333   4.211   3.154  0.0620  0.1287 -0.0631
20559W        W36176   2.983   1.887   0.781 -0.0541 -0.0429  0.1689
20560W        W36177  17.259   0.317  15.560 -0.2554  0.0547 -0.1905
20561W        W36178   7.987  10.364   6.375  0.0158 -0.1501  0.0871
20562W        W36179   9.527  10.325   5.580  0.3167  0.3250  0.3029
20563W        W36180  13.543   9.573   2.870  0.2761 -0.0575 -0.2077
20564W        W36181   0.975  16.963  12.042  0.1270  0.1603 -0.1980
20565W        W36182   5.006   6.955  13.353 -0.0598  0.2117 -0.3426
20566W        W36183   1.109  12.480  17.033 -0.0785  0.1826 -0.1245
20567W        W36184  10.247   8.490  14.619 -0.1088 -0.1981  0.0398
20568W        W36185  14.550  13.703   0.980  0.0930  0.2465  0.0907
20569W        W36186   1.363   2.039  13.258 -0.0949  0.0695 -0.0730
20570W        W36187   4.942   3.528   1.553 -0.1333  0.0739  0.1273
20571W        W36188   8.098  17.473  15.093  0.2096 -0.2508 -0.0024
20572W        W36189   7.598  12.562  12.748  0.0851 -0.0183  0.1007
20573W        W36190  13.094   7.426   5.067 -0.0287 -0.2191  0.0120
20574W        W36191   3.284   7.944   2.047  0.0187 -0.2176  0.1772
20575W        W36192  11.684  14.260  15.715  0.0662  0.0181  0.3362
20576W        W36193   1.835  12.817   1.263  0.2704  0.0769 -0.0226
20577W        W36194  14.833  17.580   1.253  0.0270 -0.4754 -0.2937
20578W        W36195   0.782   6.521  13.774  0.0621  0.2233 -0.0903
20579W        W36196   1.542   7.316  16.736  0.2833 -0.1445  0.0946
20580W        W36197  14.511   6.918   3.758 -0.2708  0.1515  0.1785
20581W        W36198  12.244   9.501   4.150 -0.0418  0.0004 -0.2313
20582W        W36199  16.910  10.676   2.989 -0.1520  0.0485  0.2084
20583W        W36200   3.353   9.338   3.021  0.2131  0.2182 -0.1104
20584W        W36201   6.237  12.310   5.120 -0.1672 -0.0082 -0.0129
20585W        W36202   0.248   4.066   2.103 -0.0720  0.0705  0.0033
20586W        W36203   5.429  17.488   3.857  0.0245 -0.0934 -0.0707
20587W        W36204   1.686  17.030   2.527 -0.0621 -0.0608 -0.1124
20588W        W36205  13.571  11.008   0.268  0.2798 -0.2541 -0.3587
20589W        W36206  13.777   8.992   6.464  0.0131 -0.1543 -0.1932
20590W        W36207   9.912  14.418   2.824  0.2191 -0.1667  0.1093
20591W        W36208   3.721   2.077   2.924 -0.1416  0.0457  0.1328
20592W        W36209   3.817  14.478  14.378  0.1949  0.1699 -0.2305
20593W        W36210  16.772   5.382   3.987  0.1998  0.0530 -0.3350
20594W        W36211  13.091   1.904   0.633 -0.0186 -0.1957  0.2342
20595W        W36212   9.792   8.823  14.384  0.3505  0.0161 -0.2256
20596W        W36213   6.896  12.265  12.347  0.1564  0.0840 -0.1176
20597W        W36214   2.327   5.699  15.903 -0.2988 -0.1025  0.2266
20598W        W36215   2.604  10.993  17.299 -0.2578  0.2108  0.1987
20599W        W36216   9.766   0.833  11.672  0.3490 -0.0160 -0.3020
20600W        W36217  17.469   4.161   0.420  0.1964 -0.0329 -0.0108
20601W        W36218   2.746   6.812   3.678 -0.1736 -0.2884  0.1283
20602W        W36219  15.028   4.906   5.461  0.2142  0.0317  0.1290
20603W        W36220   3.133   7.982  13.320 -0.1278  0.0203  0.1840
20604W        W36221   7.836   4.244   4.517  0.2301 -0.1993  0.3294
20605W        W36222   8.068   6.439   6.046  0.0368  0.0404 -0.1433
20606W        W36223  17.485   6.010  12.157  0.0066 -0.0836 -0.0654
20607W        W36224   9.229  14.663  12.003  0.0996 -0.0518  0.0524
20608W        W36225   3.706   6.681   4.072  0.3410  0.0894 -0.1777
20609W        W36226  16.381  12.276  12.461  0.0556 -0.0043  0.0144
20610W        W36227   8.638   0.258   2.219  0.0495 -0.0810 -0.0534
20611W        W36228   4.228  17.251   1.480  0.1665  0.0569 -0.2412
20612W        W36229   0.068   9.577  16.808 -0.0098 -0.2481 -0.4814
20613W        W36230  14.230  12.676   2.361 -0.0610  0.1436  0.0465
20614W        W36231   3.770   6.995   5.198 -0.0909 -0.1345  0.0482
20615W        W36232   3.976  10.815   1.365 -0.1418  0.1373 -0.0061
20616W        W36233   7.065  12.429   1.832  0.1189 -0.0690  0.1376
20617W        W36234   5.273   8.536   4.361 -0.1357  0.0159 -0.0574
20618W        W36235   5.631   0.820   1.415 -0.0860 -0.0607  0.0370
20619W        W36236  17.313   2.687   2.460 -0.1112 -0.0734 -0.1185
20620W        W36237   2.761  16.539   0.128  0.0000 -0.0783  0.0034
20621W        W36238   5.351   4.768   0.890  0.2467  0.1625 -0.1588
20622W        W36239  13.485  12.691  15.950 -0.0664  0.0910 -0.0498
20623W        W36240   8.267  17.536  14.175 -0.3280  0.1482 -0.1004
20624W        W36241   5.974   7.943  17.224 -0.2294 -0.0211  0.2441
20625W        W36242   9.823   5.539  16.680  0.1527 -0.0049  0.1848
20626W        W36243   2.858  12.289  16.936  0.2488  0.1359 -0.1292
20627W        W36244   5.980   0.713  16.942 -0.0865  0.0330 -0.1557
20628W        W36245   9.190  11.742  13.439 -0.4210  0.0236 -0.0754
20629W        W36246  11.581   8.716   2.151 -0.0531  0.0883 -0.2404
20630W        W36247  11.989  14.220   2.308  0.3120  0.1822  0.0102
20631W        W36248   9.337  17.032   3.670  0.3973 -0.0855  0.1076
20632W        W36249  17.461   8.617  16.370  0.2938  0.4490  0.0370
20633W        W36250  11.594   5.305  15.574 -0.0637 -0.4732 -0.3149
20634W        W36251   8.108   8.371  14.765  0.0671  0.0325 -0.3542
20635W        W36252   9.713  14.060  13.234 -0.2374 -0.0226 -0.3401
20636W        W36253   7.883   9.181   5.464 -0.0611  0.1087 -0.2403
20637W        W36254   2.592  10.858   2.204  0.1749  0.0332 -0.0568
20638W        W36255  14.385  10.608   1.560  0.0513 -0.0981  0.1531
20639W        W36256   6.701   2.702  15.038  0.1574  0.0082 -0.3269
20640W        W36257  13.773  11.031   3.958 -0.0413 -0.0658  0.3349
20641W        W36258  17.268   5.015   4.740  0.0240  0.0991  0.1751
20642W        W36259   8.844  13.502  14.119  0.1694  0.1591  0.3769
20643W        W36260  10.438   7.110   3.087 -0.0045  0.0061 -0.0448
20644W        W36261   1.046   3.914   5.162  0.0585 -0.1293  0.0685
20645W        W36262   8.023   7.000  12.710 -0.2184 -0.1049 -0.0486
20646W        W36263   7.252   9.398  11.854 -0.0862 -0.0830 -0.0179
20647W        W36264  15.968  10.936   3.850 -0.0785 -0.2366  0.2351
20648W        W36265   8.419   6.361   3.719 -0.0463 -0.1895  0.0640
20649W        W36266   5.067   8.631  11.814 -0.0654  0.1865  0.0923
20650W        W36267  11.679   4.044   0.332 -0.5077 -0.2110 -0.2185
20651W        W36268  10.647   4.710  14.077 -0.0478  0.1132  0.0861
20652W        W36269   3.982   3.436   2.886 -0.0978 -0.2545 -0.0031
20653W        W36270   6.787  15.087   5.746 -0.0730 -0.1410  0.0578
20654W        W36271   9.766   2.290   0.431  0.0524  0.0627 -0.1017
20655W        W36272   0.318  10.668  17.264 -0.1093  0.1360  0.0376
20656W        W36273   7.453   0.009  14.268  0.0642 -0.0199 -0.1184
20657W        W36274  17.307  16.535  15.897 -0.2889 -0.2391 -0.0498
20658W        W36275   1.451   3.948  16.267 -0.0849  0.0308  0.0909
20659W        W36276  17.024  12.306   4.314  0.0287 -0.1050 -0.0878
20660W        W36277   5.435  11.951   1.696  0.0497  0.2146  0.0743
20661W        W36278  12.979  10.137   4.389 -0.2545 -0.1713  0.0241
20662W        W36279  14.145  14.931   5.625  0.1946 -0.1909 -0.0279
20663W        W36280   0.574   9.603   5.615  0.1679  0.1076  0.0779
20664W        W36281   0.520  12.571  14.961 -0.2758 -0.0743  0.0581
20665W        W36282   5.879   3.504   2.209  0.0864 -0.1376  0.0776
20666W        W36283   3.841   6.134   2.663 -0.0418 -0.0950  0.1043
20667W        W36284   8.134   5.732  12.364  0.0484 -0.1417  0.2176
20668W        W36285   7.195  12.284  12.799  0.0131  0.3571 -0.2039
20669W        W36286   6.495   5.832   0.237 -0.1425 -0.0763 -0.0222
20670W        W36287   6.452  16.279   1.556  0.1334  0.1569  0.0048
20671W        W36288  10.443   6.808   4.003  0.1269  0.0005 -0.1092
20672W        W36289  11.923  12.047  14.733 -0.4210 -0.4025 -0.0104
20673W        W36290  17.549   7.010  16.711  0.0534  0.1167  0.0075
20674W        W36291  13.424   5.322   4.290  0.0453  0.0265  0.1493
20675W        W36292   6.131  10.008  15.237 -0.0875  0.1876  0.1682
20676W        W36293   1.338  14.185   2.734  0.1758 -0.1364 -0.0495
20677W        W36294   4.152  10.562  12.121 -0.1927  0.4509 -0.2142
20678W        W36295   4.398  16.894   0.651  0.0241 -0.4758  0.0904
20679W        W36296   1.968   5.938  15.192  0.2325  0.0784 -0.2654
20680W        W36297  13.573  14.568  12.421  0.2846 -0.0709  0.1146
20681W        W36298  16.575   8.043   1.309  0.0483  0.3973 -0.0391
20682W        W36299   2.972   7.702   3.802 -0.1049 -0.0142  0.2595
20683W        W36300  12.413  15.973  14.602 -0.0185  0.0669 -0.0510
20684W        W36301  12.172   7.809  14.750  0.2849  0.0574  0.0165
20685W        W36302   1.263   3.406  12.760  0.1537 -0.0929 -0.1214
20686W        W36303  11.301   5.895  13.695 -0.0999 -0.2437  0.0306
20687W        W36304   7.796   7.483   5.745 -0.2455  0.1307  0.2541
20688W        W36305   4.260   1.551   2.424 -0.4136 -0.0583 -0.0149
20689W        W36306   1.573  16.668   4.293  0.0346  0.0470 -0.0011
20690W        W36307   2.889  15.163  16.504  0.2324 -0.1238 -0.0782
20691W        W36308  16.860  11.718  12.595  0.1610 -0.0365 -0.0788
20692W        W36309  13.111   3.627   4.849  0.0892  0.0073  0.2131
20693W        W36310   7.780  16.429  14.996  0.2411 -0.1007  0.0539
20694W        W36311  10.362   2.509  14.699  0.0695  0.2882 -0.2260
20695W        W36312   1.861   3.568   4.137 -0.1516 -0.0507  0.3458
20696W        W36313   9.466  13.944   6.142  0.0289 -0.1079  0.2978
20697W        W36314  16.074  12.698  13.029  0.1949 -0.3531 -0.1216
20698W        W36315   5.418  15.510   5.063  0.0327  0.0100  0.0012
20699W        W36316   5.906  10.818  12.153  0.4083 -0.2102  0.0078
20700W        W36317  17.507  15.329   0.237  0.4464  0.2771 -0.3257
20701W        W36318  12.586   7.185  14.287  0.2497 -0.0175  0.0664
20702W        W36319  13.327  15.343  17.095 -0.1064 -0.3337  0.1858
20703W        W36320  10.224  14.954   5.784 -0.2714 -0.0474  0.0069
20704W        W36321   7.738   6.606   0.830 -0.1700  0.0562 -0.0898
20705W        W36322  12.259   2.372   3.917 -0.1574  0.0162  0.0267
20706W        W36323   4.875  10.174  15.178 -0.0667 -0.1282  0.3968
20707W        W36324   7.632   7.856  13.651 -0.2308 -0.1702  0.2841
20708W        W36325   8.701  17.500   5.355 -0.6861 -0.0189  0.0608
20709W        W36326  14.812   5.217   1.305  0.1589  0.2101 -0.0898
20710W        W36327  11.617   9.206   0.939 -0.0723  0.0820 -0.1442
20711W        W36328  13.585  13.365   4.094  0.1319  0.2578  0.1490
20712W        W36329   7.640   1.246  13.351 -0.3118 -0.0053  0.1189
20713W        W36330  11.298  13.566  11.294  0.0372  0.0019 -0.1508
20714W        W36331   3.353  16.159   1.402  0.1676  0.2752 -0.3730
20715W        W36332   5.823  12.661   2.657 -0.0522 -0.2105 -0.1305
20716W        W36333  13.188  12.313  14.198 -0.0835  0.1387 -0.0664
20717W        W36334   8.400  13.907  16.748 -0.0373 -0.3781  0.0252
20718W        W36335  17.413  13.880  15.666 -0.0997  0.0493  0.0049
20719W        W36336  12.582  12.998  12.652 -0.1871  0.5090  0.0015
20720W        W36337   2.751   4.494   4.512 -0.2615 -0.2001 -0.0667
20721W        W36338  10.011   1.353  15.635 -0.0444  0.1831 -0.0954
20722W        W36339  16.398  16.942   6.119  0.2492  0.0190 -0.4624
20723W        W36340   8.040   9.191   1.629  0.1537  0.3288 -0.0521
20724W        W36341  11.258   6.764   5.248  0.0766 -0.0431 -0.0633
20725W        W36342   2.986  14.360   4.954  0.3133  0.2515 -0.0774
20726W        W36343   4.945   3.883  15.373 -0.1218 -0.3305 -0.1907
20727W        W36344   1.815  11.330   4.398 -0.4243  0.1458 -0.3167
20728W        W36345   9.692   5.607  14.717 -0.0158  0.2298 -0.2275
20729W        W36346   2.860  11.969  16.066  0.0702 -0.2435 -0.1559
20730W        W36347  13.540  16.556  16.491  0.1313  0.1436 -0.0759
20731W        W36348  12.269   9.600   6.024 -0.2512 -0.0104 -0.1948
20732W        W36349  17.585  10.529  12.308  0.1536 -0.0930 -0.4043
20733W        W36350   4.099   4.040  17.153 -0.2470 -0.2959  0.3652
20734W        W36351  10.838  14.864   2.464 -0.2544  0.0226 -0.0504
20735W        W36352   5.978  13.562   0.822 -0.0492  0.1778 -0.2258
20736W        W36353   4.014  14.581  15.790  0.3474  0.0298 -0.3381
20737W        W36354   0.386   5.003   0.169  0.0361  0.2978  0.2139
20738W        W36355  13.168  16.615   2.210  0.0581 -0.1016  0.1216
20739W        W36356  13.871  11.023  16.279  0.1820 -0.2731 -0.1916
20740W        W36357  16.142  12.124   2.197  0.0335 -0.1368  0.1661
20741W        W36358   2.035  14.107  16.283  0.2031  0.1067  0.4163
20742W        W36359   8.316   9.848   0.889  0.0604  0.1318 -0.1960
20743W        W36360  15.131   4.613   6.226 -0.0182  0.1903 -0.0130
20744W        W36361   7.331   9.902  12.951  0.1638 -0.1320  0.1346
20745W        W36362  11.984   0.946  16.404  0.0772 -0.1136  0.0085
20746W        W36363  12.691  17.601  12.105 -0.3072  0.1775 -0.0150
20747W        W36364   5.033  10.513   2.241  0.3158 -0.0376  0.0706
20748W        W36365   1.880  17.168   5.841  0.1464  0.3899 -0.2652
20749W        W36366  12.196  14.045   3.720 -0.2632  0.1504  0.0555
20750W        W36367   0.596  10.365   5.700 -0.0605 -0.0643  0.0163
20751W        W36368  16.696   2.333   0.533  0.1105  0.2036 -0.1793
20752W        W36369   0.932  12.598  15.307  0.0143  0.3234  0.2297
20753W        W36370  10.881   7.364   0.829  0.0233 -0.1122 -0.0491
20754W        W36371  16.327   8.941  15.369 -0.0674 -0.2984 -0.0181
20755W        W36372  14.854   7.651   0.555 -0.2955 -0.1879 -0.0757
20756W        W36373   6.086  14.943   2.698 -0.0524  0.0558  0.0344
20757W        W36374   5.775  10.711   2.200 -0.0104  0.0269 -0.0121
20758W        W36375   5.533   6.777  12.118  0.1404  0.0948 -0.0797
20759W        W36376  12.412   3.313  16.062 -0.0161 -0.3621 -0.0307
20760W        W36377  13.617   0.501   6.171 -0.0747 -0.1415  0.2305
20761W        W36378   5.136  14.185  16.186  0.1240 -0.0949 -0.1877
20762W        W36379   7.388   2.764   0.763  0.0244 -0.0232 -0.2956
20763W        W36380  13.312   3.683  12.905 -0.1610 -0.0678  0.2493
20764W        W36381  16.454  15.499   1.829 -0.4088 -0.0933 -0.1356
20765W        W36382   8.096   6.497  11.706  0.1961 -0.0698 -0.0103
20766W        W36383   6.609  15.095   3.587  0.1443  0.1088  0.1812
20767W        W36384   0.952   9.251   5.806  0.0920 -0.0294 -0.1827
20768W        W36385   0.048  16.752   5.100  0.3206 -0.2702 -0.1263
20769W        W36386   9.857  13.905   2.760 -0.4876 -0.1890  0.0224
20770W        W36387  11.303  14.340   3.046  0.0220 -0.1106  0.1048
20771W        W36388  10.562  10.515   4.263 -0.1716 -0.3248  0.0075
20772W        W36389   4.740   8.400   3.711  0.5155  0.2278 -0.3048
20773W        W36390   0.234   3.565   1.840  0.0169 -0.0502 -0.0271
20774W        W36391  14.900   2.026  14.915 -0.0203 -0.0970  0.1332
20775W        W36392  17.193   5.853  17.132  0.2086 -0.2563 -0.3568
20776W        W36393  10.804   7.603  14.381  0.1973 -0.4387  0.2651
20777W        W36394  16.679  11.089   2.664  0.3064 -0.1459  0.0761
20778W        W36395  16.765   1.700  17.000  0.0430 -0.0005 -0.1942
20779W        W36396   3.340   2.328  12.990  0.2000  0.1762  0.0983
20780W        W36397   9.126  14.188  16.395  0.0416 -0.1315 -0.0060
20781W        W36398   3.981  15.593   6.058  0.0008  0.3536  0.1560
20782W        W36399  10.697  13.197  13.750  0.1186  0.0684 -0.2944
20783W        W36400  17.574   5.699   0.093  0.1259 -0.1062 -0.3944
20784W        W36401  12.781   8.541  13.475 -0.1932 -0.1668  0.0570
20785W        W36402   1.358  11.551   2.901  0.2799  0.3095  0.0520
20786W        W36403   5.077  15.616  16.059  0.0509 -0.0878 -0.0828
20787W        W36404  11.820   5.173   3.948 -0.0185 -0.1233  0.1043
20788W        W36405  17.507   4.824   6.463 -0.1960  0.1330 -0.0778
20789W        W36406  11.595   6.646  14.967  0.0088 -0.2650 -0.4815
20790W        W36407   5.140  14.732  15.017 -0.2288 -0.1295  0.1187
20791W        W36408  14.531   0.452  11.579 -0.2202  0.1798  0.1398
20792W        W36409   4.951  10.091   0.702 -0.1952  0.0904 -0.1348
20793W        W36410   2.063   5.641   3.522 -0.0490  0.2958  0.0097
20794W        W36411   5.775  16.234  15.119  0.2109  0.0078 -0.2460
20795W        W36412   1.420   7.440  15.765  0.0269  0.1029  0.4218
20796W        W36413   3.055  15.027  14.944  0.1548  0.1742  0.0570
20797W        W36414  14.236  10.075  13.953  0.0784  0.1656  0.1305
20798W        W36415   4.928   5.702   4.863  0.0186  0.3212 -0.1280
20799W        W36416   1.567  15.794   0.432  0.0269  0.1736  0.0293
20800W        W36417  16.574  15.948   5.777  0.3904  0.0083  0.2927
20801W        W36418   3.145   2.236  12.497  0.0061  0.0078  0.1685
20802W        W36419  10.588   1.986   1.008 -0.2045  0.0633  0.2268
20803W        W36420  16.968   2.107  11.797  0.2702  0.0742  0.1418
20804W        W36421   9.547   5.799   4.068  0.1627 -0.0519 -0.2433
20805W        W36422   1.740   2.256  13.072 -0.0645  0.1184 -0.0281
20806W        W36423   4.090   0.023   0.034 -0.1614 -0.3442 -0.0423
20807W        W36424   9.165   0.267   5.488  0.4001 -0.2121  0.0081
20808W        W36425   6.463  10.942   4.433 -0.2302 -0.2092 -0.1848
20809W        W36426   6.943  11.828   5.432  0.1218 -0.0328 -0.2413
20810W        W36427   2.985   9.087  12.762 -0.1961 -0.1907  0.2551
20811W        W36428   5.096  14.379  17.009  0.0277  0.1215 -0.2879
20812W        W36429  17.081   3.719   1.379 -0.0742  0.1050 -0.0511
20813W        W36430   6.955   4.295   2.062  0.3244  0.2545  0.2507
20814W        W36431   1.225   4.130  15.896  0.0362  0.1470 -0.0760
20815W        W36432   2.314   6.951  12.596  0.2477  0.2200 -0.3770
20816W        W36433   1.218  14.487  13.779 -0.2897 -0.0742  0.2823
20817W        W36434  10.751   4.616   3.606  0.2439  0.1098 -0.0432
20818W        W36435  17.366  11.176  17.234 -0.0868 -0.0384  0.3102
20819W        W36436  12.260   3.356  17.107  0.4665 -0.0751 -0.0114
20820W        W36437  16.079  16.781  16.231  0.2645 -0.1293 -0.0215
20821W        W36438  15.450  10.156  16.383  0.5596  0.0076  0.2729
20822W        W36439   1.549   5.822   2.625 -0.3785  0.1824 -0.1731
20823W        W36440  12.372   2.982   0.981 -0.1712  0.0295  0.1181
20824W        W36441  10.008  11.001   0.678 -0.0619  0.3255 -0.0983
20825W        W36442  16.964  10.401  15.832  0.0719  0.2764  0.0058
20826W        W36443   4.682  10.450   1.311 -0.2541 -0.1808  0.1084
20827W        W36444  12.058   8.687  15.975 -0.2019 -0.1699 -0.0310
20828W        W36445  10.492   3.114   3.957 -0.0018 -0.1291 -0.0469
20829W        W36446   2.997  12.377  15.159 -0.3253 -0.2203  0.2259
20830W        W36447  10.799   2.679  11.569  0.0647 -0.3861 -0.2338
20831W        W36448  16.531   7.673   0.900  0.1108 -0.0429 -0.1446
20832W        W36449   3.299  12.512  16.738  0.0985 -0.0671  0.2084
20833W        W36450  11.842   2.950  14.211  0.1100 -0.1155 -0.1634
20834W        W36451  13.115   1.788   5.440  0.2694  0.0491 -0.2663
20835W        W36452  15.754   8.776  14.561 -0.2015 -0.0427  0.2087
20836W        W36453   4.189   0.856  10.926 -0.1977 -0.0109 -0.4494
20837W        W36454   4.037   1.257   3.278  0.0367  0.2852 -0.0361
20838W        W36455  15.950  16.631   2.610  0.3207  0.3972  0.0552
20839W        W36456  10.896  16.643  15.527  0.0115 -0.2253 -0.0551
20840W        W36457  11.954   4.102  15.515 -0.0453  0.0411  0.4351
20841W        W36458  11.326   8.929  13.998  0.2327  0.5700 -0.0828
20842W        W36459  10.281   1.973  17.026  0.1308  0.1014 -0.0985
20843W        W36460  12.744   5.791   5.016 -0.1191  0.0171 -0.0434
20844W        W36461   7.765  15.166  16.960 -0.2188  0.1425  0.1421
20845W        W36462   8.942  13.218   1.448 -0.1866  0.1749  0.0614
20846W        W36463  13.543   1.497   2.769 -0.3110  0.1381  0.1599
20847W        W36464   6.092   7.498  17.014 -0.0518 -0.0568  0.0134
20848W        W36465   1.814   7.602  17.100 -0.2151  0.0368  0.1476
20849W        W36466   4.895   5.093  12.453 -0.3268  0.2458 -0.1496
20850W        W36467   1.286  16.239   4.451  0.1910  0.1603 -0.0090
20851W        W36468  11.437   5.408  13.589 -0.1534  0.1181  0.0308
20852W        W36469   0.228   8.135  12.599  0.1444  0.0229 -0.0256
20853W        W36470   6.048   4.701  11.932 -0.1790  0.6534 -0.1257
20854W        W36471   8.467   0.762   2.906  0.3968 -0.4550  0.0462
20855W        W36472   8.198   1.580  11.194 -0.0960  0.0148 -0.0590
20856W        W36473   0.483   5.860   2.630 -0.4555 -0.1976 -0.0082
20857W        W36474  13.399   9.524  14.944 -0.0918 -0.2560 -0.0290
20858W        W36475   0.941   4.052  14.959 -0.0002  0.0176 -0.0922
20859W        W36476  12.226  13.767   0.469  0.0911  0.0896 -0.1488
20860W        W36477   6.223   6.689  16.628  0.2324  0.2139 -0.0335
20861W        W36478  10.807   2.785   3.606  0.1042  0.0088  0.1427
20862W        W36479   8.491  12.890   0.182 -0.1054  0.1898 -0.1425
20863W        W36480  15.682   3.103   0.419 -0.0852 -0.0070  0.3106
20864W        W36481  16.523  12.401   1.325 -0.1798 -0.2848  0.2878
20865W        W36482  11.341  16.322   2.740 -0.0692 -0.2428 -0.1277
20866W        W36483   7.256  13.658  13.012 -0.1363  0.1689 -0.0112
20867W        W36484  13.717   8.963   3.138 -0.0567 -0.0001 -0.2599
20868W        W36485  14.493  10.747  17.139  0.0055  0.0442 -0.1483
20869W        W36486   4.268   0.402  15.260 -0.0950  0.3016  0.2543
20870W        W36487   2.238   3.538   4.525  0.3145 -0.0137  0.0627
20871W        W36488   1.696  11.224  12.056 -0.1351  0.1278  0.0724
20872W        W36489  12.723   6.600   1.098  0.3226  0.1223 -0.1849
20873W        W36490  16.264  15.754   1.417  0.1416 -0.0264  0.1937
20874W        W36491  14.133   7.386   2.463  0.5240  0.2044  0.3734
20875W        W36492  16.968  16.655   2.369 -0.1414  0.1406 -0.3806
20876W        W36493  15.989  10.311   0.263  0.0594  0.1277  0.2013
20877W        W36494   7.493   3.779   2.063 -0.2613  0.2518  0.0913
20878W        W36495   5.683  12.105   6.764  0.0199 -0.0796 -0.1470
20879W        W36496  16.295   9.649   2.489 -0.1883 -0.0255 -0.2577
20880W        W36497  14.345  10.668   2.034 -0.3057 -0.0031  0.2013
20881W        W36498   4.846   1.706  16.347 -0.0083  0.0164 -0.1998
20882W        W36499   2.018  15.662  15.284  0.4402  0.0732  0.0365
20883W        W36500  14.308   7.855   2.742  0.0260  0.1894  0.1423
20884W        W36501   0.774  14.201   4.097 -0.2631 -0.1721 -0.2426
20885W        W36502   1.350   0.333  12.649  0.1936  0.1149  0.0336
20886W        W36503   0.305  14.224   5.832  0.2422 -0.1238  0.2662
20887W        W36504  15.866   3.964   4.050 -0.0738 -0.0883  0.1065
20888W        W36505   0.202   2.052   4.101  0.2106  0.0430 -0.0998
20889W        W36506   1.125  11.887   0.914 -0.1602 -0.0126 -0.0055
20890W        W36507   4.874   6.841   2.427  0.2739 -0.2896 -0.0553
20891W        W36508   3.302  10.107   1.495 -0.3044 -0.0753  0.2100
20892W        W36509   0.933   6.694   1.387  0.1104 -0.0324 -0.3242
20893W        W36510  16.594  12.752   2.882 -0.2333  0.0792  0.1180
20894W        W36511   1.794   1.048   6.218 -0.0746  0.0264  0.2053
20895W        W36512  14.169  10.466  15.501 -0.2956  0.2646  0.0082
20896W        W36513  15.534  11.983   5.459  0.2606  0.0493  0.0013
20897W        W36514   0.983   3.841  12.925  0.0749 -0.2813  0.1559
20898W        W36515   8.732  13.702   5.075  0.0895 -0.1075 -0.2904
20899W        W36516  12.492  10.076   4.333  0.1272  0.0936 -0.2278
20900W        W36517   6.888   1.552  15.724 -0.1346  0.1788  0.0672
20901W        W36518   1.572  14.273  16.052  0.4525  0.2280  0.1126
20902W        W36519  14.242  10.201   3.514  0.1754 -0.0692 -0.1638
20903W        W36520  11.423  15.869   4.246 -0.1521  0.0246 -0.0223
20904W        W36521  14.739  11.664   6.235 -0.0085 -0.1749  0.3594
20905W        W36522  15.948   6.262  12.513 -0.1671 -0.1366 -0.3083
20906W        W36523  15.790   6.407   4.409 -0.1384 -0.1495 -0.0536
20907W        W36524   3.847   5.028   0.296 -0.0995  0.0549 -0.0022
20908W        W36525  12.415   7.444  15.404  0.0056 -0.2645  0.0653
20909W        W36526  11.114  13.333   2.950 -0.1274 -0.1767  0.1286
20910W        W36527   8.157   4.355  14.410  0.1619 -0.3416 -0.2420
20911W        W36528   8.832   0.638  11.838  0.3489  0.1595  0.1929
20912W        W36529  13.296   3.370   2.666  0.2543  0.0294 -0.2864
20913W        W36530   3.143  10.091  16.295  0.1072  0.0136 -0.0962
20914W        W36531  17.130  16.116   1.665  0.3262 -0.0210 -0.2215
20915W        W36532   0.426  14.605   3.628 -0.2063  0.1441  0.0621
20916W        W36533   1.871  12.011  14.354 -0.1297 -0.0567 -0.2477
20917W        W36534  14.099   0.109   1.735  0.0545 -0.3084  0.1609
20918W        W36535   6.699  17.241  11.557  0.0034  0.2242  0.1778
20919W        W36536   6.452   1.593   0.922 -0.0838  0.0126  0.0979
20920W        W36537  12.223   1.404  17.054  0.2415 -0.2268 -0.4747
20921W        W36538   4.323  16.519  14.042 -0.3073 -0.0771 -0.1632
20922W        W36539  16.388  16.599  14.256 -0.0908 -0.0606  0.2686
20923W        W36540   7.105   7.537  12.807  0.0434  0.1502  0.0012
20924W        W36541   0.047  14.043  12.689  0.3267 -0.0451 -0.0282
20925W        W36542  11.193   5.976   5.893 -0.3599 -0.0739 -0.0166
20926W        W36543   6.973  11.366  12.355 -0.0164 -0.1159 -0.0846
20927W        W36544  15.497  16.542   0.114 -0.4860  0.1545 -0.2857
20928W        W36545  16.527   1.080   5.925  0.2252  0.0645 -0.0786
20929W        W36546  17.298   7.176   4.410  0.2533  0.1467  0.1073
20930W        W36547   0.233   0.156   4.895  0.0442 -0.4839 -0.0373
20931W        W36548  11.583   2.257  16.192 -0.0201  0.0215  0.0682
20932W        W36549   7.845  10.224  14.989 -0.0269  0.4303 -0.0469
20933W        W36550   8.436   8.755   4.603 -0.1110  0.3897 -0.0032
20934W        W36551   8.742  12.536  17.208  0.0173 -0.3530 -0.0811
20935W        W36552   4.578  13.499  14.815  0.0329  0.0378  0.0302
20936W        W36553  16.731  11.482   4.191 -0.0130  0.1297  0.0644
20937W        W36554   4.452  10.450   1.794  0.3324 -0.2818  0.2005
20938W        W36555   7.916  12.310   0.474 -0.1920 -0.3319  0.0759
20939W        W36556  13.567   5.161   3.298 -0.1631 -0.0238  0.0822
20940W        W36557   4.644  10.787  12.876 -0.0786  0.1201 -0.4095
20941W        W36558   9.205   6.057   4.333  0.0629 -0.1449  0.1413
20942W        W36559   0.641   4.824   5.863 -0.0825  0.0907  0.0931
20943W        W36560   8.707  11.532  13.471  0.2164  0.1933 -0.0068
20944W        W36561  16.829   1.772   3.193 -0.2617  0.0797 -0.1603
20945W        W36562   8.737   0.286   3.143 -0.3213 -0.1729 -0.2484
20946W        W36563   9.368   0.852   6.143  0.3272 -0.0635  0.0812
20947W        W36564   4.908   6.712   3.388 -0.2685  0.0549  0.0077
20948W        W36565   1.060   0.393  14.819  0.1870  0.1699 -0.0778
20949W        W36566  14.915   3.462   2.582  0.2444  0.0385 -0.0582
20950W        W36567  10.080   6.080  14.338  0.2730  0.1801 -0.2491
20951W        W36568   8.614   4.061   1.635 -0.1478 -0.1482  0.2153
20952W        W36569  13.336  14.866   2.448  0.3104 -0.0834 -0.0907
20953W        W36570   9.749  12.898   3.811  0.0472 -0.0068  0.2190
20954W        W36571  14.080   6.560  13.393 -0.1018  0.0188  0.1722
20955W        W36572   9.790  14.110  14.344 -0.3613  0.1383  0.0409
20956W        W36573   7.971   6.533  12.234 -0.3093  0.1382 -0.1574
20957W        W36574  11.634  14.646   6.276  0.0464  0.0427 -0.2509
20958W        W36575   3.181   3.779  17.202 -0.0526 -0.3710 -0.1857
20959W        W36576  13.376   6.440  16.503  0.0416 -0.1126  0.0350
20960W        W36577   9.070   4.445  16.573 -0.2610 -0.2154  0.1893
20961W        W36578  11.263   9.703   4.009  0.1665  0.3367  0.0572
20962W        W36579   6.105  14.468   2.516  0.0578  0.1270  0.0183
20963W        W36580   9.597  12.819   2.147 -0.3701  0.1346 -0.0510
20964W        W36581   5.778   2.144  16.027  0.2422 -0.0448 -0.1420
20965W        W36582   8.204   3.114  13.250  0.0964  0.3491  0.0232
20966W        W36583   9.478   6.796  12.816 -0.2076 -0.0864 -0.1552
20967W        W36584   3.855  17.102  16.119  0.1328 -0.2209 -0.2384
20968W        W36585   9.833   3.419   1.415  0.0557  0.3300  0.1706
20969W        W36586   6.127  16.454  17.137  0.0770  0.1403  0.0924
20970W        W36587  12.833   7.244  14.752  0.2809 -0.1614  0.1007
20971W        W36588   8.883  15.013  12.454 -0.3594 -0.2117 -0.1531
20972W        W36589   9.729   7.283  17.063  0.0226 -0.0592 -0.0375
20973W        W36590   4.932   1.331  10.803  0.0519 -0.0335 -0.1428
20974W        W36591   0.634   9.614  16.953  0.1158  0.0960  0.0615
20975W        W36592   9.936  15.921   1.360  0.2036 -0.1836  0.4689
20976W        W36593   6.055   0.729  10.900  0.1784  0.0028 -0.2650
20977W        W36594  14.410  11.374  14.971  0.0514  0.1772  0.1540
20978W        W36595   3.731   9.191   5.036  0.1183 -0.0958  0.1337
20979W        W36596  14.268   5.548   4.120  0.1763  0.0976  0.0013
20980W        W36597  16.137  14.137  13.709 -0.0360  0.0440 -0.3717
20981W        W36598   2.491  15.274   3.399 -0.0104  0.1433 -0.0080
20982W        W36599   6.140  14.586  15.481  0.1639  0.3022 -0.2020
20983W        W36600   6.368  12.035  16.552 -0.1311 -0.2900 -0.1050
20984W        W36601   6.097  16.990   6.282 -0.1733 -0.3901  0.1043
20985W        W36602   9.042  17.231  10.974  0.1243 -0.1393  0.2309
20986W        W36603  15.721   3.658  12.228 -0.2097 -0.0884  0.1033
20987W        W36604   1.756   1.705  13.265 -0.1883 -0.1842  0.1498
20988W        W36605   3.202  12.657  14.645 -0.0109 -0.1282  0.0558
20989W        W36606  10.489  12.090  15.071  0.1635  0.1175  0.1616
20990W        W36607   8.235  14.036   4.958  0.5076 -0.1526  0.1328
20991W        W36608  15.388   8.309   0.802 -0.1252 -0.0685 -0.2592
20992W        W36609   1.014   1.020  17.123  0.2278  0.0941  0.1801
20993W        W36610   6.903  16.203  16.824 -0.0173 -0.1687  0.2005
20994W        W36611  15.875  10.801   6.749 -0.1058  0.0035  0.0621
20995W        W36612  15.756   4.365   6.800 -0.1703  0.0737 -0.2030
20996W        W36613   3.769   3.644   5.465 -0.4155  0.0041  0.2234
20997W        W36614  14.946  10.899   2.303  0.0250 -0.0269 -0.2201
20998W        W36615   7.688   3.265  17.268  0.1104  0.0812  0.1207
20999W        W36616   3.360  10.089   2.295 -0.1124 -0.1462  0.1841
21000W        W36617   0.182  13.396   6.419 -0.5348  0.1605 -0.0464
21001W        W36618   8.016  15.494  11.430  0.2191 -0.2838 -0.2305
21002W        W36619   2.008  13.693   0.479  0.2610 -0.0480 -0.1565
21003W        W36620  10.184  16.478   5.362 -0.2709  0.0862  0.1006
21004W        W36621  16.589  14.115   4.431  0.0131 -0.2657 -0.1550
21005W        W36622   7.511  13.005  15.476  0.2148 -0.2234 -0.4925
21006W        W36623  16.872   2.456   4.945 -0.0181 -0.1063 -0.0965
21007W        W36624   0.655   4.765   4.787 -0.0888 -0.3719  0.0522
21008W        W36625  16.227   2.572  14.970  0.0329 -0.1599 -0.1295
21009W        W36626  16.216   9.511   4.693 -0.1266 -0.1797  0.0278
21010W        W36627  10.313  16.436   1.962 -0.0319  0.0533  0.3868
21011W        W36628   8.598  14.682   1.407  0.0366  0.2690  0.1891
21012W        W36629  16.012  13.638  13.673  0.1319  0.2751 -0.2415
21013W        W36630  10.889  14.800  14.426 -0.1164 -0.3307  0.0157
21014W        W36631   6.776  10.613  12.876 -0.2879 -0.1934  0.0895
21015W        W36632  17.135   8.809  13.606 -0.0438 -0.2427 -0.3559
21016W        W36633  10.533   2.560   3.238 -0.0527  0.1639  0.0652
21017W        W36634   7.092  10.496  12.455  0.1158  0.2850 -0.2842
21018W        W36635  12.351   5.525  15.102 -0.1080  0.1694 -0.0980
21019W        W36636  14.424   1.539  15.585 -0.1885  0.1460 -0.1889
21020W        W36637  17.202  12.192  14.138  0.1135  0.4922 -0.1915
21021W        W36638  16.088  16.221  14.982  0.0449  0.1904 -0.4036
21022W        W36639  15.236   0.402   3.422  0.1595 -0.0455  0.3723
21023W        W36640   3.811   5.862  16.764 -0.0969 -0.0708  0.0405
21024W        W36641   1.145  13.489  12.221  0.0285 -0.2695 -0.0685
21025W        W36642  11.091   3.567   5.979  0.1433  0.2611  0.3128
21026W        W36643  14.687   2.241  15.533  0.1191 -0.4837 -0.2107
21027W        W36644   9.964   3.098  13.936 -0.0519  0.0496 -0.0467
21028W        W36645  11.778  16.982   2.204  0.2830  0.1320 -0.0834
21029W        W36646  10.103  13.561  13.902  0.0039  0.1861 -0.0085
21030W        W36647  17.388   3.128   4.159  0.0259 -0.1125  0.2491
21031W        W36648  15.091  13.130   5.044 -0.3090  0.0458  0.0572
21032W        W36649  16.800  10.167   5.117  0.0790  0.3258  0.0385
21033W        W36650   4.750  16.499  14.322 -0.0291 -0.0410 -0.0559
21034W        W36651  16.069   0.250  12.681 -0.1888  0.1216 -0.2281
21035W        W36652   5.977  17.116   3.639 -0.0826  0.3230  0.2191
21036W        W36653  11.662   5.669  13.109  0.3022  0.0340  0.0198
21037W        W36654  14.826   1.248   4.308  0.0976  0.1218 -0.0099
21038W        W36655   2.653  13.240   2.114  0.1026 -0.1140  0.1028
21039W        W36656   4.667  17.205  15.722 -0.0510 -0.1165  0.2362
21040W        W36657  12.730  16.248   0.987  0.3198  0.1011  0.1300
21041W        W36658  10.399   5.048  16.991 -0.2666  0.4296  0.2236
21042W        W36659  11.582  10.980  15.829  0.2096  0.0592 -0.2533
21043W        W36660   4.207   5.816   4.529 -0.1980  0.0459 -0.1842
21044W        W36661   1.466  16.454   3.104 -0.0673  0.0701 -0.1627
21045W        W36662   0.739  17.375   1.684 -0.2088 -0.1014 -0.0632
21046W        W36663   2.065   4.709   5.653  0.0279 -0.1116 -0.3118
21047W        W36664  11.227   8.620   5.562 -0.1359 -0.0152  0.0786
21048W        W36665  10.397   7.050  12.402  0.0775 -0.0065 -0.0220
21049W        W36666   3.489   6.339  14.652 -0.1096 -0.0452 -0.3366
21050W        W36667  14.044   1.031   3.767 -0.5126  0.3185  0.0965
21051W        W36668  14.585  17.244  11.290 -0.3311 -0.0883 -0.2728
21052W        W36669  14.358  10.942   0.731 -0.2852  0.2509  0.0273
21053W        W36670  14.297  15.202   0.294  0.0449  0.1343 -0.2098
21054W        W36671   9.362  11.634  14.660  0.0474  0.0408 -0.1482
21055W        W36672  11.390   5.472   0.606  0.3605  0.1595 -0.0548
21056W        W36673  16.871  11.541  14.657 -0.0843 -0.1690  0.0414
21057W        W36674   3.745  10.309   1.699 -0.1672  0.1219 -0.2394
21058W        W36675   6.127  14.001  14.467  0.2340  0.2728 -0.1655
21059W        W36676   4.925   6.206   5.010  0.0961 -0.3579  0.2281
21060W        W36677  12.746   7.682  15.009 -0.0431 -0.0037  0.2598
21061W        W36678   3.627   2.773   5.370 -0.1075  0.2030  0.2441
21062W        W36679  10.511  17.589  16.785 -0.1152  0.0289 -0.1610
21063W        W36680   6.509  12.875  17.093 -0.0029 -0.0256 -0.1488
21064W        W36681  11.224  15.989  12.707 -0.3042 -0.0354  0.0699
21065W        W36682  15.403   6.161   5.090  0.1592  0.3352  0.4841
21066W        W36683   8.914  15.060  12.972 -0.0549  0.0409 -0.1067
21067W        W36684  14.601  17.109  14.420  0.0637  0.4853 -0.0760
21068W        W36685   7.008   1.085  15.849  0.0469  0.2656 -0.0123
21069W        W36686   0.738   7.429   1.961 -0.1014  0.4876  0.1730
21070W        W36687   1.007   0.942   1.306 -0.2246 -0.2012 -0.1637
21071W        W36688   1.624   0.333   2.282 -0.3754  0.0162  0.2577
21072W        W36689  10.177  16.680  15.714  0.4158  0.2534 -0.2198
21073W        W36690   9.146  16.259   1.550 -0.1511  0.2095 -0.0795
21074W        W36691   0.471   0.282   2.814  0.0890  0.1794  0.2747
21075W        W36692  10.374   6.866   1.807 -0.1127 -0.1050  0.0804
21076W        W36693   3.353   3.835  15.259  0.0619 -0.1140 -0.2153
21077W        W36694   9.469   3.817  13.579  0.0476 -0.1177  0.2162
21078W        W36695   1.412  13.465   5.730  0.2594 -0.3853  0.2120
21079W        W36696  13.002   4.013   2.445 -0.1186  0.0276 -0.5859
21080W        W36697   2.320  17.200   1.746 -0.3072  0.1738  0.2301
21081W        W36698   8.853  12.895  16.715  0.2048  0.2092  0.2891
21082W        W36699  17.110  13.669  12.328  0.2658  0.0508 -0.2290
21083W        W36700   6.940  12.629  17.059 -0.4238 -0.1524 -0.0927
21084W        W36701   4.417  16.564   3.460 -0.0835 -0.1974  0.0530
21085W        W36702  12.159  16.212   2.431 -0.1848 -0.0323  0.1182
21086W        W36703   5.164   4.312   5.131 -0.0870 -0.1101 -0.1632
21087W        W36704   2.058  13.781   2.416 -0.1063  0.1333 -0.1169
21088W        W36705  10.997  14.001  14.955  0.0320 -0.2497  0.2130
21089W        W36706   5.012   3.162   0.085 -0.2778  0.0275  0.0889
21090W        W36707   1.213   9.117  12.409 -0.0253  0.0095  0.0960
21091W        W36708  11.161  15.749  15.512  0.0055 -0.0465  0.2383
21092W        W36709  13.311  11.342  14.351  0.1995  0.0680  0.0677
21093W        W36710  16.656  15.312  13.099 -0.1487 -0.0814  0.0040
21094W        W36711   8.213  11.060  16.824  0.1811  0.0333  0.1544
21095W        W36712   9.090   4.775   5.500  0.0998 -0.2612  0.0840
21096W        W36713   3.423  14.669  13.448 -0.1471 -0.1159  0.1678
21097W        W36714   9.181   2.723  12.628 -0.0588  0.0713 -0.2109
21098W        W36715  16.068   5.367  13.561  0.0632  0.1829 -0.0560
21099W        W36716   2.065   5.544   0.657  0.3464  0.1376  0.0874
21100W        W36717  11.984   0.377   4.327  0.0907 -0.1548 -0.1893
21101W        W36718   4.538   7.758   5.947  0.1617 -0.0996 -0.0031
21102W        W36719  14.463   6.802  13.704 -0.0792  0.0255  0.1871
21103W        W36720   0.446   0.748  11.900  0.0795 -0.3617  0.1074
21104W        W36721   4.929   9.586  14.218 -0.1685  0.1079  0.1653
21105W        W36722   9.476   9.016   2.898 -0.1523 -0.2018  0.0505
21106W        W36723  15.244   5.378   4.089 -0.0171 -0.0726  0.0773
21107W        W36724  13.160  11.868  13.924 -0.2186  0.4035  0.1852
21108W        W36725   5.114   2.686   0.141 -0.1674  0.1587  0.1304
21109W        W36726  12.023   0.354  13.611  0.2113 -0.1574  0.1888
21110W        W36727  10.082  11.985  16.306 -0.1457 -0.0657 -0.0604
21111W        W36728   1.145  12.960  17.173  0.1277  0.0548 -0.1291
21112W        W36729  17.348  15.897   6.422  0.1432 -0.0148 -0.0017
21113W        W36730   7.862   5.185   5.470 -0.1367  0.0906 -0.0004
21114W        W36731  13.118  12.688   6.242  0.0406 -0.0746  0.0107
21115W        W36732   3.745  12.504  12.942 -0.3294 -0.0952 -0.2470
21116W        W36733   2.757   8.010   0.780  0.2539  0.1710  0.1909
21117W        W36734   7.007   2.464  15.513  0.2055 -0.2967  0.0368
21118W        W36735  16.181   1.243   2.803 -0.1001  0.2897  0.0822
21119W        W36736   6.271  16.356  14.146  0.0065 -0.1507  0.2465
21120W        W36737   7.457  12.394   1.474 -0.0242 -0.3371  0.2130
21121W        W36738   0.501  14.820  12.391  0.1582 -0.2695  0.0755
21122W        W36739   3.621   7.194  16.425 -0.4643  0.2375  0.0356
21123W        W36740   7.421  15.289  14.870 -0.2306 -0.1257  0.1706
21124W        W36741   0.823  16.713   2.358  0.0148  0.0372  0.1146
21125W        W36742   0.238  10.687   4.981  0.2751  0.1309 -0.1658
21126W        W36743   9.030   9.833   0.477  0.1920 -0.0698 -0.0592
21127W        W36744   5.666   0.003  16.729  0.1170 -0.1654  0.2595
21128W        W36745   7.334   2.242   5.448  0.2155 -0.1010 -0.0513
21129W        W36746  16.981   2.527  14.656  0.1603 -0.3069  0.1941
21130W        W36747   1.401   1.404   4.719 -0.2971  0.0185  0.2094
21131W        W36748   5.769  13.737   5.004 -0.3519 -0.0543  0.1170
21132W        W36749  14.559   7.311   1.001  0.3381  0.0472  0.1638
21133W        W36750  11.631   3.880   1.397  0.3457 -0.0989 -0.0898
21134W        W36751  17.160  11.096  14.650  0.1227  0.0656  0.0318
21135W        W36752  14.798  17.165   5.306  0.0405 -0.0190  0.1504
21136W        W36753   5.263   2.213  16.986 -0.0041 -0.4263 -0.0096
21137W        W36754   7.839  10.509  15.534 -0.1386  0.0546  0.0660
21138W        W36755  16.051   1.693  15.074 -0.2751 -0.1022 -0.3245
21139W        W36756  14.817  13.839   0.495 -0.0696  0.2457 -0.1293
21140W        W36757   5.642  10.489   2.957 -0.0347 -0.0897  0.0745
21141W        W36758   2.219  10.308  15.194  0.0549 -0.0840 -0.2487
21142W        W36759  15.723   4.443   5.125 -0.0030  0.0704  0.2165
21143W        W36760  15.938  12.757  17.145  0.0697 -0.0273 -0.4421
21144W        W36761  13.522  14.401  13.698 -0.1837  0.1060 -0.0203
21145W        W36762  16.093   8.641  14.231 -0.0280 -0.1925 -0.1676
21146W        W36763  14.389   9.333  12.636 -0.4038  0.0236  0.0836
21147W        W36764  12.700   6.642   4.417  0.1631  0.0395  0.0666
21148W        W36765   1.173  14.249   5.364  0.2625 -0.3387  0.3799
21149W        W36766  17.084   5.147   0.401  0.0762 -0.2339  0.1304
21150W        W36767  16.636  16.708  13.326  0.1968 -0.0124  0.1566
21151W        W36768   0.670   9.417   2.276 -0.1442 -0.1067 -0.2436
21152W        W36769   7.304   5.188   5.120  0.1953 -0.1443  0.0456
21153W        W36770   5.089  16.080  13.568 -0.0108  0.1114  0.2578
21154W        W36771   5.406  12.911   4.936 -0.0161 -0.2282 -0.0152
21155W        W36772   9.583   0.841  12.200 -0.0795 -0.0546 -0.1634
21156W        W36773  10.768  15.759  13.483 -0.1711  0.0797  0.2119
21157W        W36774   6.148   9.558   6.047  0.1496  0.0925 -0.1086
21158W        W36775   2.280   7.082   3.344 -0.3206 -0.0473 -0.2095
21159W        W36776   7.301   7.711   0.642 -0.1852  0.0150  0.0438
21160W        W36777  12.742   0.144   0.662  0.1416  0.2119  0.0671
21161W        W36778   6.290   8.785  13.129  0.1944  0.2185  0.2238
21162W        W36779  17.144   2.705  11.664 -0.1748  0.0346  0.0141
21163W        W36780  15.064   9.009   1.601  0.0244  0.2326  0.1195
21164W        W36781  12.655   6.074  15.924 -0.0778 -0.0188  0.1734
21165W        W36782  17.097   8.419  16.687  0.0366 -0.0327  0.1666
21166W        W36783   0.851   8.977  15.529 -0.0790 -0.1034  0.0364
21167W        W36784  16.969   6.427   3.369 -0.2038  0.2267 -0.0148
21168W        W36785   0.346   4.624   6.215  0.1321 -0.1009  0.1546
21169W        W36786  16.430  11.444   4.625 -0.1378 -0.0788  0.3657
21170W        W36787  12.565  11.459  11.740 -0.1037 -0.1660 -0.3575
21171W        W36788   7.716  15.640  12.534 -0.1116 -0.1152 -0.0473
21172W        W36789  11.871   7.251   0.906 -0.1024  0.0166 -0.1052
21173W        W36790   4.436   4.898   0.055 -0.0800 -0.3111  0.0077
21174W        W36791   6.055  14.060  15.453 -0.1101  0.0815 -0.1603
21175W        W36792  12.606   6.147   5.570  0.0104 -0.0694 -0.0375
21176W        W36793   6.024  12.739  15.489 -0.0264 -0.0916  0.2754
21177W        W36794   8.585   2.015   3.556  0.0282  0.0367  0.4048
21178W        W36795   9.419   0.374  15.382  0.0855  0.1489  0.0120
21179W        W36796  15.930  12.715  11.879  0.0703  0.2920 -0.0260
21180W        W36797   6.689   7.291  12.409 -0.1982  0.1914  0.1460
21181W        W36798   5.433   9.641  12.711  0.1520 -0.0900 -0.1539
21182W        W36799  13.017  16.908   3.962 -0.2022 -0.0993 -0.0389
21183W        W36800   9.120  13.208   3.506 -0.1893  0.0102  0.0035
21184W        W36801   1.451  17.369  13.282  0.0072  0.1202 -0.2418
21185W        W36802   2.965   1.625   1.942  0.0086  0.0253 -0.2107
21186W        W36803  10.397   3.600  13.080  0.1185 -0.0507  0.1245
21187W        W36804  12.263  15.281  13.651 -0.2734 -0.0251  0.1128
21188W        W36805   4.765  11.293  12.892  0.3437 -0.1367  0.2406
21189W        W36806  16.804  15.723  12.166  0.2381  0.2597  0.1104
21190W        W36807  16.886   1.694   3.794 -0.1531 -0.0718  0.2072
21191W        W36808   5.206   7.818  15.277  0.2392  0.0338 -0.0129
21192W        W36809  17.496  13.352  11.634  0.0356 -0.0374 -0.2831
21193W        W36810   7.189   5.044   0.645  0.1037 -0.0801 -0.2133
21194W        W36811   7.631   4.702   4.625 -0.0675  0.0623 -0.0274
21195W        W36812   0.829  10.279  12.987  0.3325 -0.1767 -0.0336
21196W        W36813  16.818  10.992  17.098 -0.1649  0.3476 -0.2886
21197W        W36814   6.899   1.297   4.515 -0.5486  0.1836  0.1938
21198W        W36815   1.322   0.233   5.344 -0.2627  0.0345  0.0132
21199W        W36816   8.262   5.093   6.343  0.1294 -0.2603  0.1554
21200W        W36817  16.482   1.328   1.842 -0.2786  0.0834 -0.1405
21201W        W36818  11.516   3.239  14.762 -0.2386 -0.2246  0.2002
21202W        W36819   5.486   3.910  15.305 -0.0564 -0.1432 -0.0260
21203W        W36820  10.477   4.808   1.308  0.0291 -0.0342 -0.0295
21204W        W36821   8.589  14.175   4.474  0.2355 -0.0861 -0.2652
21205W        W36822   6.837  16.178   0.465  0.0540 -0.1286  0.2174
21206W        W36823   6.468   7.826   0.089 -0.2722  0.0409 -0.1672
21207W        W36824   1.184  12.563   4.688 -0.2895  0.1502 -0.2744
21208W        W36825   4.574  10.600  12.383 -0.3589 -0.2102 -0.0503
21209W        W36826   8.477   9.250   1.846  0.1003  0.3472 -0.0038
21210W        W36827   7.073  12.683   1.383 -0.1065 -0.0974 -0.2316
21211W        W36828  14.853   2.650   2.332 -0.2183 -0.1744 -0.4314
21212W        W36829  11.425  16.219  14.758  0.0772 -0.0289 -0.0326
21213W        W36830   2.203  17.025   3.775  0.0267 -0.0714 -0.1804
21214W        W36831   5.442   8.901  12.268 -0.0057 -0.2935  0.0314
21215W        W36832   3.793  14.043   0.107  0.2399  0.2890  0.2769
21216W        W36833   2.352   8.168  15.253 -0.0195  0.1044 -0.1982
21217W        W36834  14.523   3.894   0.853  0.1753  0.3914  0.1484
21218W        W36835   5.809   8.041  14.085  0.1964  0.0464  0.0105
21219W        W36836   7.974   3.980   0.174 -0.0510  0.2942  0.4304
21220W        W36837  11.057   4.561  16.610  0.1421 -0.0050 -0.0868
21221W        W36838   5.813  13.418   3.369  0.0247 -0.0417 -0.1515
21222W        W36839   0.045  17.404   4.238 -0.0720 -0.3960  0.0410
21223W        W36840  12.555  12.637  11.555 -0.3074 -0.1808  0.1007
21224W        W36841  13.087   5.442   5.965  0.0464  0.2338  0.0615
21225W        W36842  10.600  16.280  15.424  0.2591  0.0537  0.0665
21226W        W36843  16.647  12.206  15.915  0.0420  0.0947 -0.0573
21227W        W36844   3.758   1.424   0.293  0.0364 -0.0556 -0.2178
21228W        W36845   2.258  17.514  16.679 -0.5253  0.1249  0.0109
21229W        W36846   7.574   3.741  17.234 -0.0384  0.0326 -0.1693
21230W        W36847   1.755  17.516  12.233  0.2684  0.1642  0.1223
21231W        W36848  13.754  10.555  12.875 -0.0855 -0.0854 -0.0229
21232W        W36849  12.082   5.018   1.244  0.0960 -0.0075  0.0557
21233W        W36850  13.510  11.412   5.387  0.1386 -0.0310 -0.0845
21234W        W36851  10.011  16.207  15.831 -0.0409  0.0449 -0.0832
21235W        W36852   5.793  15.080   1.423  0.1916  0.0844  0.0495
21236W        W36853   3.048  15.325   4.682 -0.2364 -0.0596  0.0277
21237W        W36854  10.751  10.376   4.757 -0.0794  0.0112  0.0495
21238W        W36855   4.664  10.164  12.887  0.0475  0.1222 -0.2056
21239W        W36856   5.152  12.300  15.290  0.4527  0.2180  0.4394
21240W        W36857  14.206   9.814  15.268 -0.3318 -0.0306  0.2437
21241W        W36858   9.607   2.455  15.107 -0.0851  0.1514  0.2952
21242W        W36859   1.112   9.818  13.210  0.0271 -0.0006  0.1203
21243W        W36860   4.180   8.438  16.240 -0.1650  0.0811 -0.2867
21244W        W36861  17.335  10.083   5.905  0.0140  0.0608 -0.0397
21245W        W36862   0.394   5.256   6.842  0.2020  0.1184  0.1619
21246W        W36863  15.104  14.195  13.856 -0.1535 -0.0535 -0.0580
21247W        W36864  15.940   2.158   4.543 -0.1995 -0.1265 -0.2781
21248W        W36865  17.056   3.843  16.309 -0.0847 -0.1608 -0.1807
21249W        W36866  16.674  15.381  10.818 -0.3759  0.1394 -0.0910
21250W        W36867  15.009   4.826   1.839  0.1891 -0.0440 -0.1583
21251W        W36868   1.529  15.209   1.155  0.2272 -0.0187 -0.3444
21252W        W36869   4.473  17.024   1.106  0.1677  0.0569  0.1609
21253W        W36870   0.971  16.872   5.395  0.1399  0.1863  0.1939
21254W        W36871  10.127   5.618   2.346  0.4636 -0.0622  0.2478
21255W        W36872  14.816   4.433   5.125 -0.5245 -0.0128 -0.1898
21256W        W36873  11.648  16.844  15.216 -0.1337  0.0906 -0.0119
21257W        W36874   4.710   2.711  16.111  0.0365  0.0796  0.0069
21258W        W36875   2.783  14.247  15.393 -0.0565  0.3089 -0.0229
21259W        W36876   3.638   8.867   3.721 -0.3665 -0.2756  0.0250
21260W        W36877  10.006   6.523  16.686 -0.0021 -0.3710  0.1431
21261W        W36878  11.061  16.245  15.790 -0.4138  0.0379 -0.3515
21262W        W36879   6.764   3.963  14.044  0.0346  0.0775 -0.1985
21263W        W36880  15.416  14.855   3.425  0.2289 -0.0574  0.0237
21264W        W36881  10.959   1.277   0.061  0.1904 -0.0734  0.2522
21265W        W36882  16.122   0.691   1.169  0.0132  0.0262  0.0200
21266W        W36883  16.070  17.488  17.294 -0.3471 -0.0141  0.0130
21267W        W36884  15.939  12.197  12.676 -0.2043 -0.1695  0.1680
21268W        W36885  15.233   2.251   0.336 -0.1634  0.2853  0.1377
21269W        W36886  13.847  14.398   0.397 -0.1277 -0.1364  0.1763
21270W        W36887  11.235  12.172   6.146 -0.0449  0.0710 -0.0290
21271W        W36888   3.137   3.051  14.313  0.2795 -0.2055 -0.2481
21272W        W36889   6.676  12.057   3.528  0.0373  0.1706 -0.1598
21273W        W36890  12.417  13.113  16.841  0.0619 -0.0221  0.3689
21274W        W36891   9.761  15.436  12.607  0.2673  0.1656  0.2376
21275W        W36892   9.100  11.596   2.155 -0.1093  0.1374  0.3967
21276W        W36893   2.556   5.957   5.217 -0.0107  0.3430  0.3537
21277W        W36894   8.883   1.214   2.237  0.2513  0.1555 -0.2220
21278W        W36895  16.640  16.420  11.715 -0.0817  0.1581  0.0912
21279W        W36896  12.505  11.395  13.693 -0.0550  0.0194  0.1816
21280W        W36897  14.400  15.664  13.401  0.1199 -0.1522  0.0108
21281W        W36898  10.631   2.004   5.726  0.0559  0.1036  0.1911
21282W        W36899  13.787  14.068  11.654 -0.1609  0.0130  0.1596
21283W        W36900   1.423   5.304   2.530  0.0557 -0.2026 -0.2452
21284W        W36901  15.643  14.153  13.929 -0.0785  0.0345 -0.0154
21285W        W36902   2.396   4.628  16.456 -0.1942  0.0164  0.2343
21286W        W36903  13.080   7.433   0.876 -0.1020 -0.1394 -0.0989
21287W        W36904  17.445   1.111   3.576  0.2273 -0.1234 -0.2997
21288W        W36905   8.272   0.349  15.854  0.0122  0.2013  0.0246
21289W        W36906   1.743  16.481  15.843 -0.1134  0.1361 -0.3202
21290W        W36907   9.799  13.134   0.443  0.0379 -0.1075  0.1029
21291W        W36908   1.715   4.384   5.958 -0.3230  0.2684  0.5616
21292W        W36909  14.977   6.344   3.085 -0.0257 -0.3302  0.1967
21293W        W36910   6.195  16.619   0.779  0.2209 -0.0947  0.1879
21294W        W36911   4.844   2.210   5.349 -0.3377 -0.4784 -0.0120
21295W        W36912  10.826  16.594  13.155 -0.0378 -0.0851 -0.3438
21296W        W36913   1.851  14.363  14.274  0.2536  0.2848  0.0091
21297W        W36914  17.277  14.691  13.450 -0.2582 -0.0726  0.0424
21298W        W36915  15.514   2.211   4.880 -0.0619 -0.3056  0.1088
21299W        W36916  16.175   0.245  13.566  0.0139 -0.2713 -0.0301
21300W        W36917  11.041  11.690  12.472  0.0140  0.0631 -0.0914
21301W        W36918  10.339   9.277   4.073  0.0395 -0.1109 -0.2137
21302W        W36919   2.732  13.958  13.530  0.1705  0.0325 -0.1654
21303W        W36920   0.325  12.197   2.366  0.1517 -0.1324 -0.1462
21304W        W36921   4.664   5.900   2.570 -0.0087 -0.2194  0.3533
21305W        W36922  10.439  14.156   5.674  0.0146  0.1931 -0.0752
21306W        W36923  15.506   6.353  12.901  0.1054  0.2510 -0.1036
21307W        W36924   9.934   3.923  16.091  0.1155 -0.1064 -0.1148
21308W        W36925  11.087   3.083  16.546 -0.1348 -0.0736 -0.1606
21309W        W36926  10.460   8.252  11.914 -0.0389  0.2111  0.0209
21310W        W36927  11.816   9.743   0.646  0.3802  0.0944 -0.0277
21311W        W36928  16.960   3.977   2.703 -0.1191  0.1457  0.1624
21312W        W36929   6.186  15.877   3.760  0.0335  0.0945 -0.1492
21313W        W36930   8.496   6.823   3.564 -0.1749  0.0808  0.1070
21314W        W36931   3.948   2.287   3.569 -0.0807  0.1571 -0.1748
21315W        W36932  11.126   8.621  14.796 -0.0796 -0.1293 -0.1556
21316W        W36933  15.505  13.310   0.210  0.2813  0.0756 -0.1021
21317W        W36934  10.666  11.449   3.297 -0.2556 -0.1995  0.2488
21318W        W36935   9.317   7.184  12.038  0.0267  0.1015  0.1424
21319W        W36936  16.115  15.192   1.581 -0.1587  0.0278 -0.1776
21320W        W36937  14.550  14.283  16.125 -0.0205 -0.0835 -0.0639
21321W        W36938  15.368   1.147   2.859 -0.0423 -0.1061 -0.0446
21322W        W36939  12.826  10.192   0.511 -0.0063 -0.1656 -0.2715
21323W        W36940   7.763   4.118  14.315 -0.0052  0.1755 -0.1253
21324W        W36941  17.447   5.580   6.187 -0.3002  0.0151 -0.3022
21325W        W36942   7.716  14.205   5.019  0.1606  0.0427  0.0644
21326W        W36943   1.150  14.423   5.833 -0.1316  0.1301 -0.1662
21327W        W36944   1.851   0.623  12.009 -0.2023 -0.0299 -0.1226
21328W        W36945   2.130   0.660  16.178  0.1166  0.1841 -0.4654
21329W        W36946   9.268   7.469   5.644  0.2156  0.0227 -0.1440
21330W        W36947  16.431  16.238   1.234 -0.1184 -0.0825  0.0276
21331W        W36948  10.179   4.659  11.981  0.0500 -0.0155  0.2379
21332W        W36949  11.638  15.419  14.346  0.1227  0.2320  0.0009
21333W        W36950   9.271   9.854  14.751  0.0951  0.0675  0.0499
21334W        W36951   8.260  13.041   2.579  0.2348  0.2015 -0.1380
21335W        W36952   2.219  15.426  11.700 -0.1599  0.3237  0.3047
21336W        W36953  17.573   0.895   4.006  0.2749 -0.2680  0.1053
21337W        W36954   6.091   5.885  16.139  0.0024 -0.1244 -0.3054
21338W        W36955  15.159  11.853   2.060 -0.0795  0.1034 -0.1803
21339W        W36956   2.501   5.106   5.746 -0.0591 -0.2814 -0.2662
21340W        W36957  10.733  10.152  14.754  0.0657 -0.1839  0.1215
21341W        W36958   9.236   1.242   2.608 -0.6402  0.0111  0.3112
21342W        W36959  16.075   9.081   0.295 -0.1230 -0.1501 -0.2104
21343W        W36960  15.548   8.342   4.590  0.0574  0.0225  0.1079
21344W        W36961  17.579   4.938  16.242  0.0450 -0.1190  0.0102
21345W        W36962   1.031  16.432  14.457 -0.2172  0.0190  0.0248
21346W        W36963   5.340   6.736  16.426 -0.0803 -0.2241  0.0708
21347W        W36964  12.214   1.960   2.691  0.1888  0.0823  0.3958
21348W        W36965   9.492  17.556   3.754 -0.0957 -0.0820 -0.4275
21349W        W36966  12.333  12.608  15.195 -0.1773 -0.1461 -0.1191
21350W        W36967   2.869   0.393  15.561 -0.4065  0.0256  0.0707
21351W        W36968  10.211   0.674  15.094 -0.0317 -0.0420 -0.1998
21352W        W36969  12.349  12.820  14.643 -0.2130  0.1878  0.3956
21353W        W36970   2.067  14.535  12.399 -0.2470  0.1175  0.0777
21354W        W36971   8.160  11.327  14.203 -0.3609 -0.2246  0.0815
21355W        W36972   8.619  17.126  13.599 -0.2687 -0.0121  0.4838
21356W        W36973  17.163   5.965   6.256  0.1925 -0.0932  0.2285
21357W        W36974   6.572   1.329   0.506 -0.2402  0.0418  0.3307
21358W        W36975   4.243  14.490   4.925  0.0707 -0.1529  0.2415
21359W        W36976   9.136   8.263  17.195  0.2655  0.1783 -0.0627
21360W        W36977   0.417   2.167   0.865 -0.3489 -0.0716  0.0815
21361W        W36978   2.180  16.553  15.243  0.0559 -0.1968 -0.0083
21362W        W36979   2.860  17.190  15.633 -0.1757  0.1091 -0.0936
21363W        W36980  17.453  10.565  16.565 -0.1773 -0.1965  0.1792
21364W        W36981   1.471  11.391   4.045  0.2358 -0.3274  0.1294
21365W        W36982   5.903  16.993   1.918 -0.0354  0.0763  0.2186
21366W        W36983   1.446   9.117   0.714  0.2830 -0.1295  0.0391
21367W        W36984  16.696   8.670  15.152  0.1364 -0.1698 -0.3010
21368W        W36985   5.651   1.407  14.619 -0.2729  0.2180 -0.2895
21369W        W36986   6.557   6.471  15.865 -0.0038 -0.2156 -0.3008
21370W        W36987   6.642  12.182  14.117  0.0390  0.4070  0.2517
21371W        W36988   3.050  14.712  12.969  0.0714 -0.0368  0.1108
21372W        W36989   6.651   1.450  13.590 -0.2371 -0.2816 -0.3090
21373W        W36990   1.171  14.730   2.397  0.4588  0.0873  0.0555
21374W        W36991  17.165  10.087   2.422  0.0188 -0.2856  0.3455
21375W        W36992  12.766   1.053   1.137 -0.0726  0.2846  0.1874
21376W        W36993   1.513   8.178   3.829 -0.2047  0.2084 -0.0607
21377W        W36994  15.112   3.924  12.814  0.0448  0.0966  0.1912
21378W        W36995  15.087   1.752   1.492 -0.0780 -0.0681 -0.1185
21379W        W36996  11.706   7.776   0.678  0.0915  0.1227  0.2596
21380W        W36997   8.080   5.642   5.547 -0.2102  0.0247  0.3110
21381W        W36998   5.440   5.167  16.502 -0.0580  0.1198  0.0263
21382W        W36999   1.097  16.230   5.995  0.1652 -0.2105  0.0782
21383W        W37000  12.151   3.111   3.416 -0.2934  0.1481  0.2050
21384W        W37001   6.109   6.494  14.728 -0.0855 -0.0734  0.0696
21385W        W37002   9.932   3.617   5.645  0.1231  0.2743 -0.0375
21386W        W37003  11.992   8.000   5.801  0.0809 -0.1757 -0.1134
21387W        W37004  10.737   2.200   0.267  0.0641  0.2626 -0.0668
21388W        W37005   4.697   4.875   1.261  0.4178 -0.2358  0.0696
21389W        W37006  13.006   1.720  15.200  0.1444  0.2073  0.0727
21390W        W37007   2.509  11.542  14.598 -0.2123  0.4458 -0.0625
21391W        W37008  10.215  13.727  17.044  0.0340 -0.0652 -0.2365
21392W        W37009  13.820   0.229  16.066 -0.3477 -0.0192 -0.1438
21393W        W37010  12.161   6.951   4.587  0.2720  0.0540  0.1513
21394W        W37011  10.394   0.327   0.882 -0.1556 -0.2138 -0.0661
21395W        W37012  13.740   3.296   0.869  0.1543  0.1688  0.0479
21396W        W37013   1.198   4.908  14.028 -0.1981 -0.1752  0.0575
21397W        W37014   2.342  13.717  16.337  0.0179 -0.2860 -0.0014
21398W        W37015  16.876   4.360   3.039 -0.1957  0.0093 -0.0533
21399W        W37016   3.943   6.192   3.311  0.0667  0.4700 -0.0407
21400W        W37017   0.083   1.576   4.370 -0.1367 -0.1009  0.0985
21401W        W37018   8.325  12.517  14.647  0.1390  0.0088  0.1575
21402W        W37019   8.670   3.030   4.459  0.1558 -0.1989 -0.0498
21403W        W37020  16.901  13.894   0.132 -0.2011 -0.3732 -0.1664
21404W        W37021  11.672   2.534   0.447  0.1820 -0.1175  0.2384
21405W        W37022   8.696  10.791  16.995  0.2175 -0.0419 -0.3739
21406W        W37023   4.949  12.932   3.951 -0.0083  0.2793  0.0418
21407W        W37024   8.243   6.090   4.527  0.1032  0.4084  0.0203
21408W        W37025   6.513   5.517  16.803  0.0455 -0.0331  0.1190
21409W        W37026  10.365  14.673   2.735 -0.0409  0.0727 -0.2017
21410W        W37027   4.018   4.368  14.636  0.3063 -0.2537 -0.1312
21411W        W37028   4.932   7.120  16.572 -0.1520  0.3490  0.1153
21412W        W37029   1.257  17.363  15.614 -0.3034 -0.1698 -0.1573
21413W        W37030  15.665  11.660  17.130  0.1601 -0.1168  0.2451
21414W        W37031   7.791   4.723  13.729 -0.1123  0.1351  0.2306
21415W        W37032   3.844  13.451   2.531 -0.3444 -0.2666 -0.0517
21416W        W37033   2.502   5.277   1.361  0.0720 -0.0583 -0.1353
21417W        W37034   6.954  10.978  13.701  0.0420 -0.0502  0.1523
21418W        W37035  15.131   7.647   1.779 -0.0099 -0.0061  0.1187
21419W        W37036   8.703   9.352  13.551 -0.0051 -0.3238 -0.3487
21420W        W37037  13.732   4.903   1.568  0.1385 -0.2317 -0.2332
21421W        W37038   1.302   9.172  16.303  0.2120  0.0105 -0.1333
21422W        W37039  13.382   1.701   5.016  0.2112 -0.2417  0.0299
21423W        W37040  12.022   6.851  13.595 -0.0663 -0.1753  0.1451
21424W        W37041  14.356  17.283   5.268 -0.0029 -0.0431 -0.1641
21425W        W37042  16.581   2.983   3.957 -0.2034  0.0538 -0.2682
21426W        W37043   4.643   5.583   4.429  0.1392  0.0195  0.2321
21427W        W37044  10.347  10.444  11.738  0.1282 -0.0039  0.1973
21428W        W37045   2.636   7.546  11.450  0.0879  0.0081  0.1043
21429W        W37046   8.578  16.422  13.198 -0.0966 -0.0323  0.0693
21430W        W37047   8.136   6.501  16.764 -0.0930  0.0172  0.0478
21431W        W37048  10.885   7.522   2.189  0.1148 -0.1275  0.1037
21432W        W37049  13.906  11.483   4.293 -0.0800 -0.1049  0.2601
21433W        W37050   0.685  15.270  14.831 -0.0641  0.1101 -0.1382
21434W        W37051   7.679  10.334   0.515 -0.2600  0.0602 -0.1161
21435W        W37052   8.567   5.019   5.929  0.0837  0.1505 -0.3211
21436W        W37053   5.621  17.169   5.796 -0.0040 -0.2639 -0.0689
21437W        W37054   9.495   6.291   4.714  0.0587  0.0828 -0.0492
21438W        W37055  15.274   6.276  16.579  0.0168 -0.0381  0.1287
21439W        W37056  15.053   4.815   6.901  0.0481 -0.1851 -0.2149
21440W        W37057  13.724  12.962   2.204 -0.4368  0.2499  0.1928
21441W        W37058   0.119  15.821  15.614  0.1632  0.1704  0.1902
21442W        W37059  12.095   8.391   4.254 -0.3199 -0.2438  0.1190
21443W        W37060   9.113  12.709   4.394 -0.2005  0.1649 -0.2481
21444W        W37061   3.539  11.204   2.127 -0.0061 -0.0178 -0.1903
21445W        W37062  17.356   1.191  15.867 -0.4356  0.1721  0.2436
21446W        W37063  10.553   2.296  11.966  0.0977  0.1368 -0.1849
21447W        W37064   4.406   9.706   2.109 -0.0238 -0.1724 -0.2708
21448W        W37065  12.168  12.399  17.295 -0.1883  0.1355 -0.1171
21449W        W37066   3.823   6.714   1.142 -0.0095  0.0929  0.3414
21450W        W37067   4.106   5.506  12.344 -0.2173  0.2076 -0.0506
21451W        W37068  13.502   4.610   3.504  0.0733 -0.1757 -0.0070
21452W        W37069  15.284  15.927   1.513  0.0607 -0.2151  0.1385
21453W        W37070   2.701   3.642  13.812 -0.0395 -0.2192 -0.1539
21454W        W37071   1.751  13.271  15.967  0.1135  0.1280  0.2436
21455W        W37072  11.176  11.652  16.395 -0.0093 -0.0484 -0.0414
21456W        W37073  15.344   1.297  11.898  0.1261 -0.0204  0.0189
21457W        W37074   6.737   2.030  11.711  0.0299  0.0840  0.0853
21458W        W37075  15.144   2.062   3.411 -0.0837  0.2071 -0.0081
21459W        W37076   1.065   2.881   3.654  0.0291  0.1673 -0.1678
21460W        W37077  11.363  11.423   2.348  0.1492  0.3427 -0.1906
21461W        W37078  10.643  12.766   0.148 -0.2550 -0.3972  0.1693
21462W        W37079  10.642  17.036   0.406 -0.0009 -0.2537  0.3691
21463W        W37080  11.299   1.569  11.389  0.1303 -0.1568 -0.1545
21464W        W37081   8.550   4.143   2.990 -0.0787  0.1315  0.1343
21465W        W37082   4.361  12.818   0.477 -0.3342 -0.1099 -0.1837
21466W        W37083  15.638   3.827   3.628  0.0384  0.2235  0.4971
21467W        W37084   2.317   5.235   3.891  0.1534 -0.1221  0.3178
21468W        W37085   3.499   3.780   3.344  0.1308  0.0727  0.3425
21469W        W37086  12.335  11.292  15.768 -0.0472 -0.1854  0.4329
21470W        W37087   0.969   2.678   0.357  0.1667  0.2102  0.0369
21471W        W37088   1.107  10.905   5.007 -0.0242 -0.0669  0.3450
21472W        W37089   7.278  16.782   4.636 -0.0518  0.2557  0.1091
21473W        W37090   5.972   8.843   5.304 -0.0301 -0.0127  0.5644
21474W        W37091  10.888  12.361   2.331  0.1693  0.0282  0.3536
21475W        W37092  11.978  11.479  16.881  0.2384 -0.1242 -0.3798
21476W        W37093   2.293  17.437   4.501 -0.2964 -0.0404 -0.2648
21477W        W37094   2.744   1.830  16.685  0.0678  0.5168  0.1280
21478W        W37095  14.061  11.466   2.760 -0.1989  0.0317  0.1301
21479W        W37096   6.329   6.783   0.985 -0.1853 -0.1916 -0.5831
21480W        W37097   3.239   3.268  13.870  0.1629 -0.0047  0.1081
21481W        W37098  17.574   6.457   4.053 -0.0193 -0.0719  0.3203
21482W        W37099  12.673   3.671   3.977  0.3933 -0.2961 -0.0386
21483W        W37100   6.243   1.073  16.695  0.0638  0.0013 -0.0851
21484W        W37101  13.114   9.410  16.926 -0.0778  0.1374 -0.1537
21485W        W37102   1.491  16.625  10.581  0.0739  0.1681  0.0893
21486W        W37103  14.173  11.639  15.348 -0.1112 -0.0141 -0.0515
21487W        W37104   8.677   6.895   0.753  0.1393 -0.0233  0.1171
21488W        W37105  12.623   8.877  13.866  0.1715 -0.0733  0.1163
21489W        W37106   9.540   7.485   2.030 -0.0893  0.0525 -0.0111
21490W        W37107  15.960   5.861   4.112  0.1585 -0.0371  0.2616
21491W        W37108   6.618   2.990  14.039  0.1780  0.0892  0.0280
21492W        W37109   4.560  15.036   1.884  0.1627 -0.0757 -0.0820
21493W        W37110   1.850   6.326   4.818 -0.3562  0.4701  0.2115
21494W        W37111   5.329   6.746  11.685 -0.3689 -0.0219  0.0837
21495W        W37112   2.487   6.100  13.757 -0.0673 -0.1234  0.5818
21496W        W37113  10.867  16.873   1.405  0.1644  0.0615  0.1601
21497W        W37114   5.299  15.553   0.821  0.0368 -0.3230 -0.2434
21498W        W37115   7.193   8.456  15.120  0.0601 -0.1349  0.0215
21499W        W37116   2.563   0.282   2.259  0.2061  0.2547 -0.0548
21500W        W37117   5.506   1.672   5.479  0.0472 -0.0354 -0.1337
21501W        W37118   1.374  16.887  13.339 -0.0977  0.0683 -0.0328
21502W        W37119   3.827  12.608  15.479  0.0425 -0.1666 -0.1351
21503W        W37120   3.564  11.345  15.694  0.3500 -0.0027 -0.2964
21504W        W37121   7.428   4.147   2.378 -0.0974 -0.1170 -0.2353
21505W        W37122  11.557   7.668  15.918 -0.0795 -0.3666 -0.0023
21506W        W37123   3.336   0.589   2.441 -0.0543 -0.3298 -0.0390
21507W        W37124  16.401   6.084   0.947 -0.0099  0.1455 -0.0911
21508W        W37125  16.776   9.542   3.417 -0.0007  0.0473  0.0052
21509W        W37126   5.645   0.504   1.754 -0.1926 -0.4643  0.3854
21510W        W37127   3.291   0.150   3.725  0.0402 -0.0363 -0.1390
21511W        W37128  13.127  14.960   5.561 -0.0624  0.2357 -0.2248
21512W        W37129  14.826   7.644   1.320 -0.0245 -0.0999 -0.1783
21513W        W37130   2.361   8.989   6.226  0.0449  0.2141  0.2615
21514W        W37131   9.301  12.988   2.455  0.2781 -0.0729 -0.0118
21515W        W37132  11.704  10.359  14.379  0.2788 -0.0859 -0.1463
21516W        W37133  15.507  12.409   4.787 -0.0375  0.1211 -0.2115
21517W        W37134   2.568   2.724  13.598  0.0755 -0.1643 -0.0359
21518W        W37135  17.521   5.110   5.191 -0.3424 -0.2715  0.1880
21519W        W37136  11.411   8.030   1.546  0.0713  0.0231  0.1142
21520W        W37137   9.175   2.931   2.821 -0.4338 -0.0536 -0.1067
21521W        W37138   2.863  16.899   6.606  0.3317  0.1682 -0.1273
21522W        W37139   9.517   6.844   1.277 -0.1100  0.1874  0.0447
21523W        W37140  16.504  15.386  15.741  0.2467 -0.0454 -0.1260
21524W        W37141   4.779   0.544  17.116 -0.1022 -0.1947  0.0790
21525W        W37142   0.279   3.546   3.950 -0.0571  0.1431 -0.0171
21526W        W37143   1.706  14.015  14.591  0.0481  0.0038 -0.3007
21527W        W37144  12.151   5.439  12.274 -0.1221  0.0522 -0.1522
21528W        W37145  11.429  16.450  12.936  0.0219 -0.0354 -0.2460
21529W        W37146   6.508   4.594  12.165  0.1138  0.1393  0.0471
21530W        W37147   1.073   2.961  16.327  0.1229 -0.0235 -0.2440
21531W        W37148   3.372   0.205  14.259 -0.0004 -0.0908 -0.0495
21532W        W37149   3.221  17.536  11.946  0.2721  0.2219  0.1692
21533W        W37150   9.606   9.009   5.213  0.1943  0.0065 -0.2702
21534W        W37151  16.293   9.524  16.534 -0.0173 -0.1483  0.1110
21535W        W37152   2.127  13.161   1.711 -0.1450  0.2335  0.2039
21536W        W37153   2.335  12.755   2.010  0.1585 -0.0347  0.2721
21537W        W37154  14.149  17.517  11.354  0.2059  0.1689  0.1407
21538W        W37155   2.344   8.342   0.469  0.0402 -0.0140 -0.0003
21539W        W37156  10.027  15.755   3.235  0.0198  0.0041 -0.0773
21540W        W37157  14.808  15.323  15.278  0.0544  0.1445  0.2307
21541W        W37158  16.849   3.373   2.054  0.0661 -0.1482  0.0886
21542W        W37159   8.652  16.249   4.638  0.2083 -0.2180  0.1038
21543W        W37160   4.140  17.286  15.469 -0.0564 -0.0280  0.1490
21544W        W37161  15.923   7.165  15.777  0.2818  0.0354  0.0076
21545W        W37162   2.060  10.186   0.100  0.1003  0.2338  0.5239
21546W        W37163  17.378   5.685   4.516  0.0507  0.0565  0.1527
21547W        W37164  12.335   6.020  12.298 -0.1794 -0.1094  0.0649
21548W        W37165  15.662   8.397   1.436  0.1121  0.1613  0.2530
21549W        W37166   1.661   7.994  13.139 -0.1552  0.3207  0.2243
21550W        W37167   7.164   1.428  13.460 -0.2641  0.2092 -0.0950
21551W        W37168  11.587   7.435   4.461  0.1543  0.2496  0.1913
21552W        W37169  15.443   7.153  15.056  0.2041  0.3818  0.0806
21553W        W37170   0.172   3.176  16.757 -0.1094 -0.0100  0.2351
21554W        W37171  15.928  15.719  12.817  0.1184  0.0708 -0.1977
21555W        W37172  10.491   0.248  17.222  0.0201 -0.1959  0.1657
21556W        W37173  10.051   2.273  11.378  0.2361  0.3511  0.0309
21557W        W37174  16.433  16.705  12.081 -0.2490  0.0910  0.3809
21558W        W37175  16.240   5.716   5.383  0.1457  0.0791  0.1405
21559W        W37176   9.557   4.284  14.240 -0.0521 -0.1773  0.4508
21560W        W37177  16.312   0.536  14.001  0.1624  0.0192 -0.0722
21561W        W37178  17.232  10.687   2.279 -0.2113 -0.0426 -0.1565
21562W        W37179   7.140   3.630  16.114  0.1670  0.2705 -0.0027
21563W        W37180   5.958  16.459   4.611 -0.0409  0.3872  0.1348
21564W        W37181   3.553   1.526   2.635  0.3165  0.0476 -0.0116
21565W        W37182  10.465  10.588   0.693 -0.0079 -0.1246 -0.4129
21566W        W37183   9.540   2.440  13.402 -0.2044  0.1752 -0.2081
21567W        W37184   8.578  10.053   3.427 -0.2061 -0.0434  0.1164
21568W        W37185   7.817   7.919  17.033 -0.1740 -0.1725 -0.0530
21569W        W37186  10.893  14.155  16.792 -0.1522 -0.2162 -0.0931
21570W        W37187  15.529   1.437   5.921 -0.1713 -0.3475  0.3715
21571W        W37188   3.232   4.191  16.274 -0.0736  0.2897  0.3509
21572W        W37189   1.786   2.913  13.328  0.2452  0.3554 -0.2044
21573W        W37190   5.099  10.936   5.098  0.0639 -0.4559  0.0392
21574W        W37191  14.422   4.139   1.869 -0.0943  0.1612  0.0466
21575W        W37192   2.720   8.641  14.315  0.2000  0.2855 -0.0728
21576W        W37193  10.036  12.514  16.204  0.0097  0.1224  0.0960
21577W        W37194   2.307  12.706   5.721 -0.3477 -0.0163  0.0170
21578W        W37195  10.157   1.226  15.114  0.2282 -0.1444  0.0476
21579W        W37196   5.793   4.938   0.597 -0.1971 -0.0927  0.0302
21580W        W37197   1.805  14.303  11.780  0.1285  0.0898 -0.0279
21581W        W37198  10.974  14.061  13.740  0.0016  0.0889 -0.2740
21582W        W37199   1.203  14.800   0.934 -0.3440 -0.3162 -0.0305
21583W        W37200  15.785  12.165  15.695 -0.2387 -0.2767  0.1545
21584W        W37201   6.192   8.366   1.369  0.5821 -0.0113  0.4288
21585W        W37202   3.006  11.258   1.104  0.1952  0.1151 -0.0013
21586W        W37203   5.815   1.720   3.116  0.0718  0.2954  0.1029
21587W        W37204  10.306   9.736   3.646  0.0304  0.1212  0.5921
21588W        W37205   5.973   3.075   0.709  0.2095  0.1473 -0.1970
21589W        W37206  16.349   0.492   1.909 -0.0192 -0.2066 -0.0171
21590W        W37207   6.419   8.729   1.652  0.0656  0.1567  0.1258
21591W        W37208  15.203  13.109   0.511 -0.0539 -0.0903 -0.0056
21592W        W37209  12.009   7.740  16.208  0.2725 -0.2354 -0.0406
21593W        W37210   7.954   2.149   2.722  0.0238 -0.0555  0.2769
21594W        W37211   5.857  16.362   0.382  0.4427  0.1454 -0.0008
21595W        W37212   3.037   5.222  13.106  0.0160 -0.2145 -0.0409
21596W        W37213   1.252   4.931   1.352  0.0037  0.1812 -0.0273
21597W        W37214   4.689  16.406   1.890 -0.0387  0.0772  0.0978
21598W        W37215  10.473   7.555   1.899 -0.2611  0.2584  0.3746
21599W        W37216  10.680   0.562   4.651 -0.1815 -0.0926  0.2512
21600W        W37217   8.315  15.025   1.627  0.2269 -0.0195 -0.0555
21601W        W37218  15.831  13.478   6.412  0.4555 -0.0349 -0.0513
21602W        W37219   6.822   4.357   1.605 -0.1476 -0.2031 -0.3586
21603W        W37220   4.633   9.911   1.096 -0.1388  0.3735  0.0047
21604W        W37221   6.561   0.804   3.762  0.1092  0.0215  0.2995
21605W        W37222   9.156   5.842   2.185 -0.1671  0.1974 -0.0636
21606W        W37223   4.593  10.495  11.819 -0.1774 -0.3030 -0.1419
21607W        W37224  14.194   4.189  11.845 -0.0408 -0.1416 -0.2189
21608W        W37225  15.053   4.911  12.956  0.0730  0.0173 -0.2774
21609W        W37226   6.012  16.627  16.272 -0.0068  0.0336 -0.0410
21610W        W37227  15.248   4.494  12.435  0.0011 -0.1088  0.0923
21611W        W37228  16.929  14.312  14.860  0.1559 -0.0173  0.1157
21612W        W37229   4.061   8.707   3.890  0.0419  0.0886 -0.0942
21613W        W37230   7.969  15.379   3.788  0.0927  0.0639  0.2423
21614W        W37231   4.309   3.253   2.062  0.2316 -0.1139  0.1031
21615W        W37232  16.236   0.885  16.183 -0.0591  0.0814 -0.1541
21616W        W37233   4.495   1.540  12.895  0.1328  0.2645  0.1108
21617W        W37234   6.746  13.690   4.952  0.2894  0.0474  0.2123
21618W        W37235   3.761   0.382   1.214 -0.0046 -0.0209 -0.3899
21619W        W37236   0.348   4.433  12.486 -0.0227 -0.0956  0.0549
21620W        W37237   9.160   6.767   1.605 -0.1383 -0.1470  0.2342
21621W        W37238  11.813  13.991  15.225 -0.2498  0.1433 -0.4352
21622W        W37239   5.610   2.075   4.625 -0.1161  0.1520 -0.0339
21623W        W37240   2.663   6.420   0.454 -0.1653 -0.1300 -0.2348
21624W        W37241  11.644   3.576   0.987 -0.1471 -0.0827  0.3627
21625W        W37242   4.341  15.879   1.194 -0.0131 -0.1206 -0.2755
21626W        W37243   3.954   1.877  14.398 -0.0901  0.4815  0.2524
21627W        W37244  12.630  16.388   5.651  0.1592 -0.1235 -0.0986
21628W        W37245   9.580   8.878   1.244 -0.2410 -0.2175 -0.1015
21629W        W37246  16.602   8.543   3.442  0.1498 -0.2963 -0.0688
21630W        W37247  13.366  16.756  14.679  0.1724 -0.0402  0.1486
21631W        W37248  15.505  10.816  16.943 -0.2822 -0.1733 -0.3137
21632W        W37249  15.092  10.021  15.628 -0.1350 -0.1958 -0.1517
21633W        W37250   9.521  12.900  11.704  0.2841  0.0585  0.1650
21634W        W37251  13.883   9.657  15.673 -0.4970 -0.0951  0.0744
21635W        W37252   5.218  12.083   2.636 -0.2531 -0.0386 -0.0247
21636W        W37253   9.085   1.023  17.140  0.2456  0.1834 -0.1435
21637W        W37254  12.556  15.794  16.089 -0.0391 -0.2006  0.2119
21638W        W37255   4.433   9.941   5.121 -0.3599  0.0176  0.3698
21639W        W37256   7.514  14.185   2.702 -0.1089 -0.2368 -0.1707
21640W        W37257   1.443   7.837   0.227  0.1139  0.3216 -0.0584
21641W        W37258   1.605   0.790  12.467  0.2300  0.0054 -0.1354
21642W        W37259   2.314   8.794  14.077  0.0335 -0.1463 -0.0541
21643W        W37260   0.625   1.942   3.909 -0.1002 -0.3249  0.1206
21644W        W37261  12.085   0.974  11.018  0.2646 -0.0357 -0.2146
21645W        W37262   6.339   0.705   2.299  0.1841  0.2306 -0.3239
21646W        W37263   7.768  13.956   0.341  0.3612  0.1724 -0.2336
21647W        W37264   8.896   3.895   2.379 -0.2943  0.0180 -0.0781
21648W        W37265   3.889  11.220  13.411  0.0090  0.0425  0.1204
21649W        W37266   4.009   5.865  14.744 -0.3387  0.0433  0.0435
21650W        W37267  10.343  13.827  16.586  0.0083  0.0192 -0.1549
21651W        W37268   7.684  10.655   0.921 -0.2698  0.1783 -0.1698
21652W        W37269   4.579   3.697   5.631  0.0057  0.1458 -0.2228
21653W        W37270  14.640   6.523  15.465  0.0334 -0.0239 -0.2063
21654W        W37271   9.952  12.118  12.989 -0.1462  0.2317 -0.1130
21655W        W37272  13.079  16.546  12.289 -0.0835  0.2018 -0.0433
21656W        W37273   1.423  15.166  16.791 -0.1835 -0.2763  0.0470
21657W        W37274   8.134   1.906   0.078 -0.2581 -0.1951  0.1029
21658W        W37275   8.832  14.384  13.617 -0.0097  0.1259  0.2370
21659W        W37276   0.272  12.618   2.856  0.1446  0.1047 -0.0469
21660W        W37277   3.873   0.585  13.795  0.2118 -0.1761 -0.0442
21661W        W37278   9.680   4.393   1.171  0.0540  0.2604 -0.3070
21662W        W37279  10.708  11.710  17.207  0.2032 -0.0652  0.0055
21663W        W37280   2.939   0.169  12.364 -0.1801  0.1662 -0.1738
21664W        W37281  15.155   2.529   4.629 -0.1971  0.1440  0.1945
21665W        W37282  13.919  13.061   0.029 -0.0085 -0.1950 -0.2083
21666W        W37283   1.989   4.175   1.959  0.1434 -0.1283 -0.1487
21667W        W37284   9.100  16.670  12.045  0.0483  0.0207  0.2084
21668W        W37285   3.993   9.263   2.444 -0.0284 -0.0349  0.3656
21669W        W37286   6.802   6.555   1.243 -0.1929  0.0684 -0.0163
21670W        W37287  12.249   8.766   2.220  0.1271  0.1397 -0.0794
21671W        W37288  15.237  16.165  11.865  0.3897  0.3676 -0.3887
21672W        W37289   1.590   6.076   5.671 -0.0409  0.0359  0.0243
21673W        W37290  16.318  13.601  12.793 -0.0106 -0.3757 -0.1663
21674W        W37291  15.804  16.138   1.448  0.1457 -0.3448 -0.0914
21675W        W37292   9.877  15.948  13.329 -0.0917 -0.1725 -0.0746
21676W        W37293  15.246  13.029  13.055 -0.1947  0.1491 -0.1801
21677W        W37294  11.590  16.266   1.543  0.2912 -0.1087 -0.0271
21678W        W37295  13.420  12.749   5.246  0.0505  0.1410 -0.0688
21679W        W37296   4.371  10.118  12.383 -0.0133 -0.0634  0.1346
21680W        W37297   7.629   7.331  16.481  0.0129 -0.0366 -0.3275
21681W        W37298   0.670  12.029  12.625  0.1167  0.0340  0.1850
21682W        W37299  10.722   4.346   6.465 -0.0775  0.1690 -0.1046
21683W        W37300   3.772   0.623  15.770 -0.1594 -0.0087  0.1199
21684W        W37301   6.074   7.685   0.878 -0.1491 -0.2659 -0.0744
21685W        W37302   5.798   5.511   1.324  0.4087 -0.0349  0.2085
21686W        W37303   4.940  11.661  12.636 -0.2193  0.0504 -0.2997
21687W        W37304  10.403   3.494  15.953  0.0162 -0.3835 -0.1481
21688W        W37305  13.950   3.030   1.815 -0.1579  0.1758 -0.3185
21689W        W37306   8.093  15.462   2.820 -0.0907 -0.0737  0.0277
21690W        W37307  13.488  13.029   6.130  0.1846 -0.1334 -0.2452
21691W        W37308  10.987   4.255  12.248 -0.1142  0.1766  0.4725
21692W        W37309  13.374  12.682   0.802 -0.2734  0.1250  0.4232
21693W        W37310  15.684   5.606  13.744  0.0092 -0.0899 -0.1498
21694W        W37311  16.515   4.287   0.189 -0.1003 -0.0888  0.0012
21695W        W37312   3.307  16.320   2.705  0.1810  0.1822 -0.0620
21696W        W37313   0.353   6.299   3.828 -0.1838  0.0386 -0.1684
21697W        W37314   7.210  12.336  16.291  0.0466  0.0528  0.1541
21698W        W37315  14.032   5.816   1.341 -0.1764 -0.3359  0.1175
21699W        W37316  13.365  16.100   2.958  0.1972  0.0261 -0.0942
21700W        W37317  12.317   8.594   6.837  0.0278  0.0688 -0.0324
21701W        W37318   4.352   5.426  13.093 -0.0013 -0.1451  0.0121
21702W        W37319   4.182   3.427  15.499 -0.1150  0.0312  0.0396
21703W        W37320  12.523  17.343  16.653  0.0057 -0.0437  0.0465
21704W        W37321  13.031   2.724  15.631 -0.2325 -0.0323 -0.2908
21705W        W37322   9.384  15.948  11.707 -0.4151 -0.1491  0.4111
21706W        W37323  14.343  16.375   5.322  0.1686  0.1617 -0.0727
21707W        W37324  16.942   5.161  16.760  0.1172  0.3811  0.0492
21708W        W37325  12.890   3.740  14.701 -0.0246  0.1751 -0.0377
21709W        W37326  11.211   9.598   2.660  0.0570  0.2370  0.2000
21710W        W37327   3.194  12.352   3.495 -0.0490  0.0157  0.1214
21711W        W37328  10.053   2.722  12.670  0.1721  0.2666  0.2211
21712W        W37329   8.959  15.003  11.118 -0.5422 -0.0940  0.0149
21713W        W37330  16.049  15.709   2.024 -0.1285 -0.0291 -0.3375
21714W        W37331   9.336   8.128   5.966  0.1893 -0.2875 -0.0329
21715W        W37332  17.226  15.971  12.251 -0.3049  0.4287 -0.2540
21716W        W37333   1.135  16.043  14.180  0.1076  0.1836  0.0538
21717W        W37334  14.339  12.889  17.055 -0.0203  0.0413  0.0689
21718W        W37335  11.134  14.325   2.525  0.4196 -0.0512  0.0451
21719W        W37336   6.262   4.547  13.550  0.0408  0.0781 -0.3110
21720W        W37337   3.150   8.736  14.664  0.1183 -0.0981 -0.2041
21721W        W37338   5.509  11.736  15.576 -0.1011  0.4908 -0.0862
21722W        W37339   4.680   3.348   4.139  0.2613  0.2105 -0.1952
21723W        W37340  13.576   7.414   2.462  0.1575 -0.0692  0.1919
21724W        W37341   2.641  12.231   3.194  0.3600  0.0392  0.2652
21725W        W37342   1.252  17.615  15.060 -0.0325 -0.2045  0.1762
21726W        W37343  10.428  11.448   1.935 -0.0230 -0.0357 -0.2063
21727W        W37344  16.133   3.696  15.386 -0.0250  0.1748 -0.1305
21728W        W37345   3.527   7.141   1.866  0.2013 -0.1963 -0.1605
21729W        W37346   2.770  17.441   5.871 -0.1410  0.2389 -0.0071
21730W        W37347  10.111  14.328   1.503 -0.1846 -0.2683  0.0069
21731W        W37348   5.414   6.891  13.551 -0.2140 -0.0431 -0.0191
21732W        W37349   1.194   1.149   2.069  0.2459  0.1055 -0.0417
21733W        W37350   0.480   3.567  15.549  0.0197 -0.1056 -0.0653
21734W        W37351   6.822  11.022   1.970 -0.2532  0.2176 -0.1689
21735W        W37352   1.177  10.698   0.372 -0.1197 -0.0608 -0.0190
21736W        W37353  14.688   5.858   6.254  0.4080 -0.0072 -0.0444
21737W        W37354   5.263  17.513   5.671  0.0741 -0.2044  0.2651
21738W        W37355  11.576  13.867  13.081 -0.0209  0.0169 -0.0467
21739W        W37356   5.136  10.205   1.160 -0.0157 -0.1126  0.1751
21740W        W37357   2.063  10.973  13.911 -0.0088  0.0697 -0.1620
21741W        W37358   9.686  13.606   1.037 -0.1038  0.0578  0.3240
21742W        W37359   8.304   1.464  14.446 -0.1318  0.1124 -0.0106
21743W        W37360   4.199   4.267  12.269 -0.0863  0.1333 -0.3270
21744W        W37361  12.997   4.332  12.281  0.1506  0.3653  0.0431
21745W        W37362  10.965   4.796  16.101 -0.2966  0.0142 -0.2378
21746W        W37363   9.360   5.523  16.337  0.1219  0.0026  0.0386
21747W        W37364  13.944  14.514  16.393  0.1377  0.1322  0.0435
21748W        W37365   9.711  11.763  13.393  0.0808 -0.1648 -0.0281
21749W        W37366   4.373   3.477  14.933  0.1339 -0.0009  0.1990
21750W        W37367  11.229   9.910   0.514 -0.2394 -0.3915  0.1944
21751W        W37368  13.010   5.995   3.244  0.1370 -0.2788 -0.1131
21752W        W37369  11.233   6.852  16.221 -0.0258 -0.1715 -0.1121
21753W        W37370  11.921  14.072  12.232 -0.2526 -0.1479  0.0480
21754W        W37371  10.499   7.058   3.580  0.0785  0.1899  0.2308
21755W        W37372   8.223  17.079   5.628 -0.3220 -0.0085  0.2244
21756W        W37373   3.906  15.169   4.056  0.1255 -0.2009 -0.0322
21757W        W37374   1.268   8.269  17.265  0.0685  0.1662 -0.1940
21758W        W37375  13.063   0.692   2.022 -0.0178 -0.1586 -0.1838
21759W        W37376  11.762  16.448   0.966  0.1026 -0.5164  0.0065
21760W        W37377  10.147  13.452   3.009 -0.2816  0.0236  0.1302
21761W        W37378  15.768  14.023  14.601  0.1570  0.0388  0.0556
21762W        W37379   7.578   2.093  14.438 -0.0041  0.0776 -0.2765
21763W        W37380   8.405  10.009  11.876 -0.4539  0.1020 -0.1738
21764W        W37381  10.909  15.677   0.573 -0.0323 -0.0054  0.1409
21765W        W37382  12.073  17.006  16.685 -0.1004  0.2973 -0.2364
21766W        W37383  11.497   9.020  12.717 -0.0650 -0.1587 -0.1292
21767W        W37384   4.388   4.519  14.319 -0.1643  0.0988 -0.1278
21768W        W37385   2.796  17.105  13.621 -0.0543 -0.0104 -0.2337
21769W        W37386   9.400   9.817  13.332  0.1489  0.2585 -0.2158
21770W        W37387   7.745   0.437   4.087 -0.1930  0.2819 -0.0081
21771W        W37388  12.440  13.091  16.096 -0.1417  0.2327  0.1023
21772W        W37389   2.447  13.923   0.609  0.2146 -0.2088 -0.1356
21773W        W37390   3.706   9.655  12.314 -0.4784 -0.0681 -0.0063
21774W        W37391   2.469   9.575   3.199 -0.0944  0.0877 -0.2189
21775W        W37392  10.357   2.981  12.943 -0.1712  0.1299 -0.2025
21776W        W37393  10.598   7.517  12.476  0.0510  0.3785  0.0014
21777W        W37394   9.656  11.632  12.158 -0.0139 -0.0431  0.2454
21778W        W37395   6.872  10.135  12.708 -0.1424  0.3522 -0.0454
21779W        W37396   4.604  15.595  14.494  0.3566 -0.2284 -0.0106
21780W        W37397  12.801  12.668  16.807  0.2628 -0.0162  0.1111
21781W        W37398   0.021   6.262   6.410  0.1108 -0.1113  0.0704
21782W        W37399   1.616  12.047   0.178 -0.1305  0.3158 -0.3057
21783W        W37400   1.318   3.428   3.102  0.1502  0.1555 -0.2580
21784W        W37401   3.222   3.940  13.200 -0.1468 -0.0097  0.0218
21785W        W37402  15.327   5.283   4.636 -0.0644  0.0487  0.4322
21786W        W37403  15.715   3.110  14.171 -0.3863  0.0628  0.1569
21787W        W37404   0.123  14.523  14.761  0.2881 -0.1366  0.1278
21788W        W37405   7.877  12.708   0.145  0.3101  0.2428 -0.0232
21789W        W37406   8.327   0.843   0.082  0.1612  0.1383 -0.0072
21790W        W37407  10.379   6.025   0.108 -0.2095  0.1215 -0.2132
21791W        W37408   1.622  17.611   2.660  0.1622  0.0071 -0.1501
21792W        W37409   3.672  17.447  15.488 -0.0631 -0.0439 -0.0598
21793W        W37410  15.633  17.565   6.320 -0.0421 -0.0611 -0.0566
21794W        W37411   1.473   5.682   1.863  0.1344  0.0710  0.0123
21795W        W37412  14.089   1.725   1.141  0.1015 -0.1263  0.0379
21796W        W37413   0.986   2.340  12.219 -0.3418  0.0417 -0.2407
21797W        W37414  16.456  17.512  12.848 -0.0437  0.0758  0.1341
21798W        W37415   0.809   7.598   5.768  0.0682 -0.3019  0.1528
21799W        W37416  10.417   0.959  14.778 -0.1069 -0.0843 -0.1582
21800W        W37417  12.990   9.167   5.784 -0.1286 -0.2839  0.1060
21801W        W37418   1.733   3.204  12.030  0.1710  0.2386 -0.2191
21802W        W37419   0.038  12.579   5.621 -0.1723 -0.0841  0.0047
21803W        W37420  15.850   6.767  12.391 -0.2698  0.0088  0.2300
21804W        W37421   7.260   2.533   2.749 -0.2724  0.2026 -0.0466
21805W        W37422   7.931  10.728   3.197  0.0077 -0.2576  0.0540
21806W        W37423  10.023   2.840   0.374  0.0006 -0.0046 -0.0637
21807W        W37424   1.837   3.478   2.924  0.1620  0.2459 -0.0221
21808W        W37425   0.706  13.642   4.965  0.0051 -0.1911 -0.0453
21809W        W37426   3.217   4.018   6.084 -0.1224  0.2148  0.0797
21810W        W37427  13.919  15.362   2.634  0.1101 -0.1120  0.2576
21811W        W37428   1.775   2.030   6.108  0.0063 -0.0300  0.2741
21812W        W37429  14.374   2.504  16.523 -0.0035  0.0262 -0.1179
21813W        W37430  14.884   1.546   2.290  0.1906  0.0675  0.0022
21814W        W37431   5.173   7.889  13.361 -0.1232  0.0642 -0.2549
21815W        W37432   0.009   8.013  16.969 -0.4127  0.0507 -0.1644
21816W        W37433   9.770   1.158   2.668  0.1020 -0.0861  0.0801
21817W        W37434  15.183   4.652   3.931 -0.1868 -0.0901 -0.3616
21818W        W37435   6.080  17.162  16.039  0.1739  0.2448  0.1901
21819W        W37436  12.880  17.167  16.330  0.3188 -0.0486  0.1721
21820W        W37437  13.094  15.191  12.217  0.2604 -0.0988  0.1412
21821W        W37438  10.731   9.146   5.333 -0.0792  0.3124 -0.0243
21822W        W37439  14.940  12.902   4.393  0.1317 -0.0848 -0.1582
21823W        W37440   9.828   3.713  14.713  0.1042  0.0556 -0.0675
21824W        W37441   5.920   6.360  16.309  0.5495  0.0997 -0.2982
21825W        W37442   9.103  10.982   3.435 -0.0463  0.0862  0.2276
21826W        W37443   5.662   0.361   5.729  0.1822 -0.1030 -0.4804
21827W        W37444   2.993  15.795   0.600 -0.1064  0.2570 -0.1891
21828W        W37445   8.733  12.529  12.558 -0.2218  0.0674 -0.0060
21829W        W37446   9.529   1.845  17.082  0.3369 -0.0255  0.1490
21830W        W37447  14.546   0.876   3.535  0.2797 -0.0411 -0.0265
21831W        W37448   8.163   8.974   2.219 -0.1184 -0.2163 -0.0371
21832W        W37449  14.440   3.422   2.755  0.1279 -0.0051 -0.0138
21833W        W37450   4.659   0.405   5.413  0.0415 -0.1348  0.0868
21834W        W37451  12.006   1.371   0.290 -0.4532 -0.1158 -0.1374
21835W        W37452   2.666   5.968   0.140  0.0339  0.0320 -0.0597
21836W        W37453  10.818  14.750  12.796 -0.2805  0.1940 -0.0134
21837W        W37454  16.228  12.288   0.966  0.0355 -0.3312 -0.1626
21838W        W37455  11.646  10.064  14.842  0.0320 -0.1946 -0.1320
21839W        W37456  10.390   5.480   1.774 -0.1278 -0.1906 -0.0400
21840W        W37457   3.255  11.081  16.057 -0.1647 -0.0695 -0.0419
21841W        W37458   1.216  15.068  13.895  0.0789 -0.0379 -0.1018
21842W        W37459  12.673   9.027   2.427 -0.1130  0.2046  0.2104
21843W        W37460   5.826   8.016   2.691 -0.1095 -0.1155 -0.0108
21844W        W37461  10.695   9.188  12.266 -0.0276  0.5653 -0.4747
21845W        W37462  11.903  13.330   4.460  0.0381  0.3312 -0.0011
21846W        W37463  12.251  15.116  16.118  0.1747  0.1545  0.0067
21847W        W37464   8.493  13.233   5.092  0.1502  0.1524 -0.0721
21848W        W37465   2.090   1.265   5.869 -0.0288  0.0387 -0.2249
21849W        W37466  15.849   8.996  17.072  0.0991 -0.0329  0.0013
21850W        W37467   9.774  16.840  12.786 -0.0616 -0.2791 -0.2092
21851W        W37468  13.456  14.662   4.276 -0.2543 -0.3977  0.1424
21852W        W37469   2.387   8.551   3.422 -0.0394 -0.1013 -0.0825
21853W        W37470  16.509  11.881   2.436  0.0698  0.1280 -0.1115
21854W        W37471   1.674  14.779   3.235 -0.0273  0.0437  0.1111
21855W        W37472  11.926   1.142  13.356  0.3871 -0.1722  0.1771
21856W        W37473  15.560  15.505  17.271 -0.1283  0.0517 -0.1149
21857W        W37474   7.969   1.345   5.875  0.0669 -0.1462  0.0392
21858W        W37475   7.512   1.253   1.673  0.3506  0.0966  0.0779
21859W        W37476   5.894  11.590   4.946  0.2734  0.2374 -0.2692
21860W        W37477   5.790   2.642   2.220  0.0025 -0.3292 -0.0886
21861W        W37478  12.197   8.912   4.222  0.1459 -0.0258 -0.1921
21862W        W37479   1.106   3.056  15.820  0.2046 -0.4391  0.1075
21863W        W37480   6.781   3.488   0.908 -0.1920  0.0652  0.0976
21864W        W37481  13.130   0.293  12.045  0.2569 -0.0042  0.2676
21865W        W37482   5.212   2.889   6.014 -0.1365 -0.2575 -0.0564
21866W        W37483   3.740  13.772  13.268  0.0959 -0.2167  0.1840
21867W        W37484  16.269  10.331  16.674 -0.1888  0.4419  0.2864
21868W        W37485   4.162   4.321   3.569  0.1684  0.0190 -0.1064
21869W        W37486  12.821  14.642   2.406  0.2410  0.2885  0.2422
21870W        W37487  13.921   6.063   0.901  0.0648 -0.0254 -0.5525
21871W        W37488  12.291  17.413  13.599  0.0094  0.0341 -0.1730
21872W        W37489   7.122   1.780   3.461 -0.0275 -0.0772 -0.1687
21873W        W37490  15.176   5.269  14.618 -0.0131 -0.1259 -0.0306
21874W        W37491   8.136   3.267   0.733  0.0166 -0.1874  0.1856
21875W        W37492   3.100   3.409   1.701 -0.1013 -0.3749  0.0179
21876W        W37493  10.186   7.683  14.194 -0.1522  0.1195 -0.0800
21877W        W37494   4.902   9.409   1.154  0.3471  0.0283 -0.0721
21878W        W37495   4.984   2.563   5.717 -0.0546  0.2074 -0.2011
21879W        W37496  11.957  12.929   1.916  0.2885 -0.3588  0.4331
21880W        W37497   8.658   2.670   4.794 -0.3571  0.1645  0.2147
21881W        W37498   3.639   5.741   3.627 -0.0983 -0.2421  0.1512
21882W        W37499  10.497  11.592  12.014  0.2185 -0.2560  0.0623
21883W        W37500   7.621   9.388  16.073 -0.2021 -0.0118 -0.0360
21884W        W37501  12.455  12.313   5.179 -0.0503 -0.2520 -0.2273
21885W        W37502   6.877  13.272  11.908 -0.0339  0.0260 -0.2973
21886W        W37503  16.964   8.772   5.463 -0.0498 -0.4567  0.2200
21887W        W37504  13.684   1.881  13.596 -0.0977  0.1401 -0.1566
21888W        W37505   3.093  16.462  12.773  0.1258  0.2445  0.2351
21889W        W37506  11.329   7.838  11.898 -0.2055 -0.0447 -0.0595
21890W        W37507   4.237  12.291  15.410 -0.1711  0.1017 -0.2457
21891W        W37508   4.280  12.260  16.685 -0.0394  0.2174 -0.0407
21892W        W37509   5.912  17.577   4.032  0.3147 -0.0402  0.2097
21893W        W37510  14.426   0.394   1.969  0.0401 -0.3272 -0.0692
21894W        W37511   3.848   9.177   0.154  0.0021 -0.2457 -0.1203
21895W        W37512  16.930   5.835   2.065  0.1597 -0.0920 -0.0487
21896W        W37513  10.418  11.910   5.609  0.0746  0.0234  0.1243
21897W        W37514  16.660   4.548  13.686 -0.0402 -0.1390  0.1324
21898W        W37515   0.079   3.374  13.428 -0.1760  0.2502 -0.0551
21899W        W37516   2.552  14.673   4.139  0.2082 -0.1031  0.0296
21900W        W37517   2.086  10.873   4.444  0.0371  0.2112 -0.1291
21901W        W37518  14.464   6.928  16.399  0.2244 -0.2313 -0.1193
21902W        W37519   9.773   2.670   1.675 -0.3567  0.3382 -0.0348
21903W        W37520   1.386  14.043  11.916 -0.0725 -0.1768 -0.1536
21904W        W37521  16.845  16.557   2.845 -0.1437  0.3105  0.2119
21905W        W37522   2.808   0.193  15.133 -0.1184 -0.1895 -0.0398
21906W        W37523   3.994  16.935  16.805 -0.0028 -0.1944  0.1772
21907W        W37524   0.220   5.892   6.005  0.2212 -0.3630  0.3465
21908W        W37525   4.397   9.677   5.504 -0.4740  0.1575 -0.1687
21909W        W37526   9.772  13.974   1.391  0.1330 -0.0313  0.0199
21910W        W37527  12.095   7.960  12.030  0.0336  0.2886  0.1037
21911W        W37528   7.612  17.257  12.429  0.0570 -0.1082  0.0593
21912W        W37529  15.278   5.916   6.180  0.0356 -0.0707  0.2948
21913W        W37530  12.520   8.591   3.977  0.0154  0.1833  0.0107
21914W        W37531   4.906  15.438   1.654 -0.0161  0.0028 -0.1481
21915W        W37532  16.793  14.648   1.610  0.0787  0.1670  0.1512
21916W        W37533  11.132  15.547  15.050 -0.1142 -0.1873  0.1594
21917W        W37534  12.910  15.630   2.536  0.1957 -0.1742  0.2056
21918W        W37535  11.640   4.344  14.713 -0.3887  0.0033 -0.0826
21919W        W37536   7.597  13.008  13.214  0.1549 -0.0173  0.2484
21920W        W37537  13.377   0.774  13.042  0.0661  0.1045 -0.2152
21921W        W37538  14.248  12.315   4.930 -0.0840  0.0069 -0.1171
21922W        W37539  12.630  15.318  14.063 -0.1162  0.0831 -0.1501
21923W        W37540  13.044   1.404   2.497  0.3132  0.1816 -0.2541
21924W        W37541   7.693  11.780   4.363  0.0217 -0.1273  0.0617
21925W        W37542   7.799  16.344   2.772 -0.1469 -0.2468 -0.0350
21926W        W37543  10.451  16.607  13.696 -0.1463  0.1876  0.3680
21927W        W37544   9.498   5.187  13.396 -0.2059 -0.0024 -0.0767
21928W        W37545  14.440   4.252   3.653 -0.0918 -0.0108  0.0380
21929W        W37546  10.920   9.800  15.670 -0.1866 -0.0290 -0.0601
21930W        W37547   2.229  12.412   2.391  0.0932  0.1235  0.1089
21931W        W37548  17.514   8.995  15.556 -0.0964 -0.1884  0.0257
21932W        W37549   2.780   0.350  16.868  0.1043  0.2384 -0.0759
21933W        W37550   7.880   4.938  15.665 -0.0328 -0.0652 -0.1047
21934W        W37551   7.307  15.994   6.117 -0.2764  0.1289  0.2430
21935W        W37552   8.089   3.409  13.874  0.1912  0.1915  0.0653
21936W        W37553   9.113   3.726   6.436 -0.2004  0.1032 -0.1505
21937W        W37554   6.387  16.479   2.549 -0.1325 -0.1229  0.1025
21938W        W37555  13.947  15.861  12.015  0.0862 -0.0528  0.4255
21939W        W37556  11.880   3.469  16.774 -0.3567 -0.3251 -0.1689
21940W        W37557  10.503  15.251   2.141 -0.0913 -0.0929  0.3118
21941W        W37558  10.773   7.927   4.627  0.2606 -0.0214 -0.1577
21942W        W37559  11.101  10.307  16.506  0.1346 -0.3326  0.0904
21943W        W37560   7.849  14.576  15.196 -0.1010  0.1452 -0.1813
21944W        W37561  12.891  14.837   0.888 -0.0840  0.2132 -0.0293
21945W        W37562   9.987  17.050  16.351  0.0125 -0.1177 -0.0153
21946W        W37563  12.995  16.298  14.616  0.0547 -0.0947 -0.0882
21947W        W37564  12.520  14.825  13.526 -0.0214 -0.1119  0.0153
21948W        W37565  12.017  17.399   1.040  0.1734  0.1522 -0.2088
21949W        W37566   3.764   6.381  13.440 -0.1133  0.2411  0.0582
21950W        W37567  14.212  10.292  17.070 -0.0628  0.0227  0.4995
21951W        W37568  13.560   6.515   1.474  0.1704  0.1816  0.1545
21952W        W37569  14.702   6.107   0.058  0.1242  0.2783  0.1215
21953W        W37570   3.369  14.684  17.196  0.2004  0.0462  0.1906
21954W        W37571   8.679  13.213   1.850  0.2672  0.0116  0.0236
21955W        W37572  17.580   9.520  13.374  0.0537  0.2867  0.0739
21956W        W37573   5.361   0.430   0.756  0.1308 -0.0737 -0.0162
21957W        W37574   6.142   5.564  12.446 -0.1247 -0.0890  0.1950
21958W        W37575   1.952  11.966   2.540  0.3079  0.4642 -0.1180
21959W        W37576  13.937   4.170   1.283  0.0284 -0.2312 -0.0868
21960W        W37577   8.401   9.996   1.363  0.0772  0.0576  0.2568
21961W        W37578   6.677   1.572   2.212 -0.2399  0.3600  0.0240
21962W        W37579   3.036  15.633   5.072 -0.0125  0.1447 -0.1758
21963W        W37580   5.380   6.778   4.351 -0.0868 -0.1522 -0.0870
21964W        W37581   2.659   6.966  14.613  0.0464  0.0089  0.0442
21965W        W37582  16.963   8.232   2.783  0.1065 -0.2626  0.2305
21966W        W37583   3.667  16.084   5.290  0.2617  0.0240 -0.3301
21967W        W37584   0.155   9.923   5.689  0.1866  0.1465 -0.0060
21968W        W37585   9.229   5.719  15.148 -0.1577 -0.2005  0.0775
21969W        W37586  14.393  17.321   0.040  0.0679  0.1000  0.0014
21970W        W37587   3.900   2.721  12.696  0.1112 -0.0458 -0.0056
21971W        W37588  15.378   1.060   5.551 -0.0277  0.1364 -0.2378
21972W        W37589   4.291   0.484   3.608  0.4313  0.0643  0.0927
21973W        W37590   6.173  11.097  16.057  0.2486 -0.1775  0.1126
21974W        W37591  16.536   9.620  16.128  0.0582  0.0209  0.0270
21975W        W37592   3.215   5.822   1.953  0.0298  0.2457 -0.4190
21976W        W37593   4.200   2.625  15.910  0.3140 -0.3253 -0.0451
21977W        W37594  17.527   6.829   1.342  0.1997 -0.0825 -0.3019
21978W        W37595   5.314   6.002  15.833  0.2248  0.0009 -0.1315
21979W        W37596   3.380  14.917   2.248 -0.0931 -0.0449  0.1395
21980W        W37597  13.310   7.468  16.391  0.0144 -0.2156  0.1342
21981W        W37598   8.932   3.468   5.385  0.3114 -0.2375 -0.2005
21982W        W37599  10.910   8.943  13.668  0.2547 -0.0475  0.0897
21983W        W37600   7.560   0.539  16.388  0.0451  0.1403  0.1425
21984W        W37601  13.206   5.156  13.676 -0.1032  0.1782  0.2610
21985W        W37602   9.794   0.359   3.536  0.0481 -0.2733 -0.2120
21986W        W37603   4.051  12.541  17.076  0.1819  0.0881 -0.0299
21987W        W37604   1.586   6.579  16.832 -0.4897  0.0607 -0.1642
21988W        W37605   6.185   0.505   4.729 -0.1772  0.3165 -0.0703
21989W        W37606   2.691  16.796  16.434  0.0812  0.1577 -0.1977
21990W        W37607  16.643   5.586   3.467 -0.2459 -0.1702  0.1460
21991W        W37608   2.574  13.472  13.541  0.1414 -0.1501  0.2093
21992W        W37609  14.240   6.811  15.560 -0.2215  0.0609 -0.0862
21993W        W37610  15.498   5.762   1.023 -0.1293 -0.1691  0.1789
21994W        W37611   7.076   1.961   2.908 -0.1255  0.0589 -0.1563
21995W        W37612  11.907   3.322   4.273 -0.0612  0.3274 -0.1077
21996W        W37613   2.342   8.379  13.754  0.0639  0.4309 -0.2904
21997W        W37614   1.343   7.367   1.766  0.3563  0.2373  0.1603
21998W        W37615  10.901   6.473  14.541 -0.1756  0.1538  0.1336
21999W        W37616   7.254  11.550   4.169 -0.2775  0.0691 -0.0791
22000W        W37617   2.219   1.731  16.731  0.2289 -0.1619 -0.2471
22001W        W37618  11.057   9.821  12.550 -0.2026 -0.2015 -0.0697
22002W        W37619   3.051   6.845   0.683 -0.0375  0.0737  0.0052
22003W        W37620   9.756   2.728  16.499  0.0986 -0.0088 -0.2427
22004W        W37621  14.502   2.273   5.126 -0.2236  0.0007  0.0136
22005W        W37622   1.555   8.780  17.243  0.1786  0.2011 -0.0945
22006W        W37623   4.937  10.476   4.996 -0.0188 -0.1501 -0.3799
22007W        W37624   0.367   2.875  13.802  0.0790 -0.1337  0.3085
22008W        W37625  17.156  11.447   1.194 -0.0712 -0.0506 -0.1576
22009W        W37626   7.553   6.840  16.653 -0.1192  0.1296 -0.0307
22010W        W37627   8.514  10.351   1.671 -0.0680  0.0707 -0.2401
22011W        W37628   1.122   6.962  16.898 -0.2500  0.0694  0.1732
22012W        W37629   3.402  10.289  14.146 -0.2072 -0.1265  0.2220
22013W        W37630   5.329  15.982  16.324  0.1321  0.0657  0.0809
22014W        W37631   4.587  14.602  14.701  0.2175 -0.0217  0.1434
22015W        W37632   4.181  17.317   4.839  0.1328 -0.0350 -0.0047
22016W        W37633  12.521   6.189   1.171  0.1074  0.0449  0.0590
22017W        W37634  13.104  12.167  12.731 -0.1628 -0.3127 -0.1035
22018W        W37635   1.915   6.826   2.938  0.0286  0.1870 -0.0776
22019W        W37636   0.886  11.586   2.611  0.0551 -0.1741 -0.1235
22020W        W37637   1.540  13.878   1.724 -0.0922 -0.2499  0.3849
22021W        W37638   1.869   3.187   2.152  0.1325 -0.0188 -0.1118
22022W        W37639  13.672  16.935  14.092 -0.1691 -0.0012 -0.2602
22023W        W37640  16.416   4.886  15.534  0.0337 -0.2095  0.1581
22024W        W37641   3.615   1.299   4.575  0.0387  0.0996  0.2890
22025W        W37642  17.575   8.983  14.952 -0.1804  0.1319  0.0349
22026W        W37643   2.784  14.757  16.872 -0.0051 -0.0198 -0.0963
22027W        W37644   2.919  15.383  15.268 -0.0093  0.1003 -0.1133
22028W        W37645   6.002   7.876  12.881  0.4091  0.1431  0.3185
22029W        W37646  11.455   2.344  11.707  0.2495 -0.0377  0.0314
22030W        W37647  15.053   2.592   0.756  0.1506 -0.1137 -0.1258
22031W        W37648   0.028   9.011  13.389  0.0124 -0.0273 -0.0858
22032W        W37649   3.544   5.626  13.268  0.1263 -0.1168  0.1014
22033W        W37650   7.696  10.783   2.472  0.2273  0.1229 -0.1880
22034W        W37651   6.446   6.178  14.411  0.1844 -0.0252 -0.0565
22035W        W37652  13.537   9.816   5.830 -0.1926  0.0162 -0.0462
22036W        W37653  10.484  17.159  14.466  0.1713  0.2701 -0.0241
22037W        W37654   2.251  16.602  16.541  0.1729 -0.3228 -0.0142
22038W        W37655   6.677   2.396   1.043  0.1108  0.1254 -0.4243
22039W        W37656   5.206   8.733  13.029 -0.1279  0.3486 -0.3388
22040W        W37657  10.050  13.615  15.029  0.1812 -0.2479  0.2018
22041W        W37658  13.704   3.419   1.724 -0.2154  0.1341  0.0576
22042W        W37659   0.062  10.894  15.688  0.1975 -0.0011 -0.1679
22043W        W37660  15.300   7.463   0.388 -0.0236  0.0387  0.0742
22044W        W37661  15.040  12.463   3.968  0.1299 -0.2315  0.2190
22045W        W37662   5.378  16.548   0.439  0.2405 -0.0864 -0.0740
22046W        W37663  15.155   3.259  13.452  0.1092 -0.1168 -0.0286
22047W        W37664  12.311   1.998  11.905  0.0777 -0.2638  0.2980
22048W        W37665  10.309  11.579   2.854 -0.2684 -0.1933 -0.2923
22049W        W37666   7.882  15.231   5.012 -0.1736 -0.0161 -0.3245
22050W        W37667   1.499  12.216   2.643  0.0115 -0.0633 -0.1527
22051W        W37668   8.164   8.120  16.495 -0.1496  0.1601 -0.2147
22052W        W37669   9.672  10.415   2.141  0.0881 -0.0837  0.1217
22053W        W37670   8.057  13.815   1.430  0.0241 -0.0070  0.1097
22054W        W37671  16.981  17.319   4.869  0.1611 -0.0288  0.4187
22055W        W37672  11.317  12.631   4.870 -0.0317 -0.0933  0.0254
22056W        W37673   9.249   1.222  12.486  0.1274  0.0141 -0.3179
22057W        W37674   1.964   0.161  16.129  0.4926 -0.0128  0.1199
22058W        W37675  10.256  10.384  16.104 -0.4732 -0.3192 -0.2258
22059W        W37676   9.883   7.708   3.687 -0.0614  0.0348  0.1682
22060W        W37677  16.440   7.330   5.717 -0.0933  0.1203 -0.2221
22061W        W37678  12.182   0.995   5.928 -0.2338 -0.1977 -0.2195
22062W        W37679   9.501  10.412   4.471 -0.0160 -0.1200 -0.2059
22063W        W37680   2.417   1.437   3.720 -0.1441  0.1391  0.1144
22064W        W37681  15.359   8.824   5.498  0.0367 -0.0215  0.1842
22065W        W37682   2.498   9.913   5.849  0.0585  0.1566  0.1092
22066W        W37683   4.662  11.653   0.432  0.2060  0.0623  0.0448
22067W        W37684   0.281   0.654  15.347 -0.1669 -0.0131 -0.0321
22068W        W37685  13.330  13.767   0.436  0.0413 -0.0376  0.0945
22069W        W37686  14.775  14.914  13.138  0.1524 -0.0800 -0.2095
22070W        W37687  16.584   1.270  11.929  0.1566  0.1497 -0.2168
22071W        W37688   4.785   2.818  13.002 -0.0526 -0.1751  0.0428
22072W        W37689   7.370  16.296   4.649 -0.0430  0.3057  0.0345
22073W        W37690  12.327   8.903   0.156 -0.0831  0.0333  0.2279
22074W        W37691  13.974   7.838   5.980 -0.2149  0.1837 -0.0164
22075W        W37692   9.138  16.798   2.653  0.2315 -0.4262  0.1270
22076W        W37693  12.483  12.574  16.366  0.1225 -0.1107 -0.1594
22077W        W37694   5.167   6.595  15.564  0.4054 -0.2920 -0.2676
22078W        W37695  12.622  16.285  16.203 -0.0872 -0.2343  0.0558
22079W        W37696  10.189  14.758  11.409 -0.0737  0.0382  0.0710
22080W        W37697   6.637  14.782  13.241  0.2279 -0.0416  0.0932
22081W        W37698   5.753   3.686  12.432 -0.2517  0.5305  0.1073
22082W        W37699   2.455  16.754  15.997 -0.0301 -0.1286  0.0209
22083W        W37700  15.131   9.730   4.587  0.2240 -0.0835 -0.1305
22084W        W37701   4.687   9.874   6.280 -0.0878  0.0800  0.0820
22085W        W37702   5.160  14.210  12.040 -0.2237 -0.2266  0.3313
22086W        W37703   5.837   6.812   2.317  0.0856  0.0977 -0.3665
22087W        W37704  15.831   8.229  15.915 -0.2840 -0.0667 -0.2693
22088W        W37705  12.067  10.682   4.871 -0.3483 -0.0246 -0.1115
22089W        W37706   6.132  15.093   0.162 -0.1181 -0.0235  0.0202
22090W        W37707  17.592   2.619   4.191 -0.4126  0.1781  0.0437
22091W        W37708   5.788   2.769   5.449  0.0466  0.0673  0.1257
22092W        W37709   1.757   0.679   4.412  0.0689 -0.3042  0.2741
22093W        W37710  13.503  11.087   1.703 -0.0958  0.0535  0.2690
22094W        W37711   9.187   5.677   5.549 -0.0852  0.1860 -0.1589
22095W        W37712   4.586   4.198   3.912  0.2094 -0.3070 -0.0992
22096W        W37713   2.105   2.050  13.563  0.1142  0.0788 -0.1284
22097W        W37714   9.732  14.857   5.753 -0.0382 -0.0593  0.3920
22098W        W37715   3.895  14.169   2.977  0.1545  0.2056  0.2019
22099W        W37716   6.252   9.635   3.375 -0.0955 -0.0294  0.1297
22100W        W37717  10.312  12.222  15.505  0.1947 -0.0501  0.3967
22101W        W37718   9.693   9.998  12.933  0.1855  0.1169 -0.1579
22102W        W37719   5.064   0.476   2.343  0.0849  0.2372  0.2629
22103W        W37720  11.872   7.849  12.643  0.0045  0.0196  0.1441
22104W        W37721   7.004   7.152  14.253  0.3279  0.0410 -0.2409
22105W        W37722  14.338   2.951  14.060 -0.2598  0.2296  0.0585
22106W        W37723  11.622  10.287  15.280 -0.3134  0.0408  0.1248
22107W        W37724   7.051   8.537  17.120 -0.0614  0.1314  0.2589
22108W        W37725   3.820   6.498  14.947 -0.1616  0.2938 -0.0746
22109W        W37726   1.462   0.054   4.566  0.3340  0.0422 -0.1234
22110W        W37727  12.279   8.802   1.404  0.0963 -0.1679 -0.0587
22111W        W37728   9.193  16.035  15.632 -0.0702  0.0912 -0.0134
22112W        W37729   2.551  10.952   4.628 -0.2147 -0.0618 -0.0308
22113W        W37730   1.050   2.611   4.375 -0.0550 -0.0331 -0.2638
22114W        W37731  15.206  15.445  12.456  0.4448 -0.0812 -0.0969
22115W        W37732  10.485   8.644  15.993  0.0247 -0.0114  0.0088
22116W        W37733  11.921   4.671  15.024  0.0620  0.1608  0.0485
22117W        W37734   4.623   3.765   1.303 -0.2785 -0.2284 -0.0805
22118W        W37735  13.206  13.830   4.742  0.1972 -0.1019  0.0143
22119W        W37736   0.813  13.591   5.884 -0.3219  0.0980  0.1913
22120W        W37737   2.294   2.214  16.580 -0.0490  0.1173  0.0370
22121W        W37738  13.917  12.881   3.672  0.1099 -0.0195 -0.1321
22122W        W37739  17.012  14.379  13.087  0.1765  0.2054  0.1691
22123W        W37740   6.170  17.434   2.051  0.1824 -0.1510  0.0699
22124W        W37741   2.657  11.343   1.501 -0.1804  0.0263 -0.2666
22125W        W37742  11.945  15.497   2.005 -0.0912  0.3816  0.0551
22126W        W37743   5.035  10.847   3.744  0.0089  0.3135 -0.2751
22127W        W37744  11.329   5.283   3.978 -0.2146  0.1504 -0.0666
22128W        W37745  13.609  14.430  14.958 -0.0552 -0.0390  0.1391
22129W        W37746   8.141  17.220  14.689  0.0478 -0.1214  0.3489
22130W        W37747  14.865  10.093  12.073 -0.2057 -0.0747 -0.0058
22131W        W37748   5.543  15.221  16.925  0.1142  0.3238 -0.0142
22132W        W37749   1.438   7.879  12.179  0.3073  0.0727 -0.0609
22133W        W37750  17.554  12.759   0.329  0.2651  0.1185 -0.3389
22134W        W37751   7.136   6.250   6.440 -0.1174 -0.2456  0.0956
22135W        W37752  16.056   9.873   2.066 -0.0853  0.2041 -0.0418
22136W        W37753   8.388   7.231  15.200 -0.1753 -0.0988  0.5475
22137W        W37754   2.938   4.627   4.964  0.0121  0.1157 -0.0393
22138W        W37755   9.162   1.137  10.682  0.1737  0.1241 -0.2006
22139W        W37756  17.478  16.092   4.749 -0.2384 -0.0889 -0.0848
22140W        W37757   4.416  13.233  13.655  0.0809 -0.0539  0.0947
22141W        W37758   1.549   5.566   3.581 -0.0728  0.2124 -0.0506
22142W        W37759   7.925   0.781  11.703  0.1066  0.0775  0.4405
22143W        W37760   0.562   1.549  13.294 -0.1603  0.0924  0.0156
22144W        W37761   2.640   0.141   0.772 -0.0259  0.1937  0.1815
22145W        W37762  16.090  11.431   1.420 -0.1113  0.1128 -0.5369
22146W        W37763  15.997  14.789  15.642 -0.0726 -0.0492 -0.4507
22147W        W37764  13.057   4.162  13.515 -0.0140 -0.1014  0.1089
22148W        W37765  11.562   2.820   3.426  0.0116  0.0590 -0.0348
22149W        W37766   5.500   3.656  14.809 -0.1451 -0.1768 -0.0677
22150W        W37767   7.579  16.404  13.294 -0.2400  0.0546  0.0453
22151W        W37768   9.379   4.233  11.822  0.1622  0.0556 -0.0246
22152W        W37769   1.820   1.856  16.388 -0.0388  0.1689  0.2154
22153W        W37770  12.953  17.536   1.995 -0.2043 -0.1947 -0.0250
22154W        W37771   4.037  14.694   1.741 -0.1136  0.1926  0.0292
22155W        W37772   1.729  14.296   3.115  0.0533 -0.3055  0.1042
22156W        W37773   3.634  12.868   4.360  0.1973 -0.1979 -0.1265
22157W        W37774   2.100   7.319  15.602  0.0049 -0.3339  0.1839
22158W        W37775  14.020   8.329  17.202  0.3954  0.0029  0.0878
22159W        W37776  11.404   8.243   2.079 -0.1693 -0.1861 -0.2884
22160W        W37777   0.542  15.660  11.755 -0.0855 -0.1275 -0.1426
22161W        W37778   0.302   9.361  16.029  0.0645 -0.0469 -0.0419
22162W        W37779  11.174   0.144  11.272  0.0803 -0.0519  0.0394
22163W        W37780   5.908   6.880   3.501 -0.2501  0.1087 -0.0369
22164W        W37781   3.620  10.394  16.596 -0.2543  0.0596 -0.0929
22165W        W37782   0.279  16.528   0.970  0.0667  0.2071  0.2750
22166W        W37783   0.231  16.584  12.535  0.3337 -0.1554 -0.1015
22167W        W37784   4.122   7.433  15.537  0.1275 -0.3349  0.0004
22168W        W37785   9.575  13.866   3.604  0.2274 -0.1954  0.4018
22169W        W37786  11.364  11.996   3.572 -0.2157  0.3326 -0.0800
22170W        W37787  14.102   6.748   2.035  0.2388 -0.0335  0.3592
22171W        W37788  10.732   2.151  14.079  0.0776 -0.0113  0.0692
22172W        W37789  13.200   5.205  15.657  0.0427 -0.0382 -0.1831
22173W        W37790  16.799  12.582  14.305 -0.0427 -0.1857 -0.1385
22174W        W37791   5.758   0.621  15.054  0.2718 -0.0355 -0.1647
22175W        W37792   5.654   4.875   3.514  0.1208  0.0526 -0.0051
22176W        W37793   0.514   5.597  16.861 -0.2537  0.4236 -0.0547
22177W        W37794   4.960   0.268   3.955 -0.1121  0.0777 -0.1930
22178W        W37795   5.563   0.256  12.825  0.0268  0.1004  0.3836
22179W        W37796  11.854  11.535   2.646  0.0214  0.0847  0.3068
22180W        W37797   5.541   9.155  12.963  0.0485 -0.0566 -0.0511
22181W        W37798   4.188   0.400   2.597 -0.1402 -0.1047  0.0224
22182W        W37799  11.901   2.102   3.690  0.1096  0.1766  0.3427
22183W        W37800   5.565  17.604  17.293  0.1677  0.1157 -0.0363
22184W        W37801   7.296   4.265   2.964 -0.0699 -0.0389  0.0745
22185W        W37802   3.726   2.793  11.793  0.1817 -0.3149  0.3105
22186W        W37803  14.439  14.552  17.139  0.1064 -0.1046 -0.0471
22187W        W37804   4.422   2.664   3.258  0.1411 -0.1038 -0.2425
22188W        W37805  16.710  13.898  13.059 -0.1377  0.2335  0.4535
22189W        W37806   0.005  13.157   0.770 -0.0965 -0.0161  0.2328
22190W        W37807  14.248   0.528   0.632  0.0802  0.0331  0.1874
22191W        W37808  17.027   0.858   4.307  0.1486 -0.1385 -0.0508
22192W        W37809  16.612  16.874  13.825 -0.2288  0.0818 -0.0214
22193W        W37810  12.183   6.115  15.766  0.1477 -0.0446 -0.0074
22194W        W37811   7.188  10.157   5.482  0.2053  0.1249  0.1290
22195W        W37812   7.609   9.835   0.149 -0.2263 -0.3472 -0.0048
22196W        W37813   6.882  13.520   1.025  0.0270  0.2644  0.1413
22197W        W37814   5.547   2.635   0.283  0.2367  0.3042  0.2333
22198W        W37815   5.035  13.339   4.637  0.0395 -0.0910  0.0607
22199W        W37816  13.402  15.266   2.731  0.5084  0.3447  0.3717
22200W        W37817   8.973   8.561   0.682 -0.1156 -0.1099  0.2231
22201W        W37818   6.795   0.374   0.329  0.1111  0.0953  0.0227
22202W        W37819  14.085   7.808   3.841  0.2560 -0.1449 -0.3368
22203W        W37820   2.821   9.088  17.199 -0.1770  0.1866  0.1427
22204W        W37821   5.334  16.138  14.860 -0.2697 -0.0046  0.0585
22205W        W37822   3.361   3.885   2.353  0.2893 -0.2886  0.1641
22206W        W37823  13.377   8.913  12.734  0.0473 -0.0286  0.2025
22207W        W37824   7.655  16.714  15.356 -0.0000 -0.1330 -0.0708
22208W        W37825  14.555  11.224   1.121  0.0121  0.0235 -0.0824
22209W        W37826  14.060   3.450  14.351 -0.1115 -0.0359 -0.2714
22210W        W37827   6.587  14.795   1.052 -0.0808  0.0490  0.0761
22211W        W37828   0.515   7.369   0.031 -0.3273  0.1715 -0.0695
22212W        W37829  10.832  14.977  13.303  0.1092 -0.1566 -0.2055
22213W        W37830   7.466  11.591   3.063  0.2616 -0.0261 -0.1662
22214W        W37831   4.135  14.289   0.478  0.0527  0.2165 -0.1868
22215W        W37832  13.134   0.035   0.234 -0.0300 -0.1204  0.2279
22216W        W37833  10.833  11.403   1.606 -0.0257 -0.0426  0.1018
22217W        W37834  13.660   9.934  12.642  0.1071  0.1783 -0.2073
22218W        W37835  15.095   6.519  13.210 -0.0690  0.1892 -0.2433
22219W        W37836  15.548   0.206   2.162  0.1521  0.2101  0.0888
22220W        W37837  15.353   0.966  16.427 -0.0159  0.1752 -0.2478
22221W        W37838   0.194  10.853  16.301 -0.0784 -0.2021 -0.0445
22222W        W37839   3.836   9.081   3.139  0.2342 -0.3829  0.0296
22223W        W37840  12.271  16.711  13.978 -0.2648  0.0823  0.0991
22224W        W37841   6.679  12.952   0.774 -0.1712 -0.2965  0.1649
22225W        W37842   7.903   1.143   0.294 -0.1630 -0.1647  0.1677
22226W        W37843   6.657  11.366   4.670  0.2719  0.2808  0.0728
22227W        W37844   6.121  14.473   4.574 -0.1098  0.2070 -0.1662
22228W        W37845   1.700   8.307   6.459 -0.3723  0.3663 -0.1909
22229W        W37846  11.554  14.775  15.509 -0.1161 -0.1718 -0.0965
22230W        W37847   1.800   1.801   1.504 -0.0248  0.0195  0.2779
22231W        W37848   4.016  13.634   5.894  0.4223 -0.1766  0.0176
22232W        W37849  11.021   8.234   4.284  0.0688  0.0143  0.0461
22233W        W37850  14.359  10.877  15.844 -0.1362  0.0923 -0.2171
22234W        W37851   4.572  10.569   4.636  0.3140 -0.0503  0.0481
22235W        W37852   6.290  13.742   5.269 -0.4430 -0.1066  0.0941
22236W        W37853   1.430   3.549   0.195  0.0752  0.1336  0.0875
22237W        W37854   4.077   4.883  14.459 -0.4576 -0.1522  0.0625
22238W        W37855   3.384   1.815  12.083 -0.0757 -0.0280 -0.0518
22239W        W37856  17.015   8.264   1.378  0.3688 -0.0923 -0.1965
22240W        W37857  12.369  14.095   3.200  0.3015 -0.1201 -0.0079
22241W        W37858  13.174  12.439   3.283  0.0394 -0.3353 -0.0058
22242W        W37859  12.494  15.693  15.540 -0.2607 -0.2684 -0.2030
22243W        W37860   7.235  11.798  14.175 -0.1700  0.2024 -0.1115
22244W        W37861   2.611  17.473   2.635  0.1681 -0.1508  0.0721
22245W        W37862   3.434  13.743   2.287 -0.1428 -0.1074 -0.5522
22246W        W37863  12.548  14.510   2.821 -0.0182 -0.3181 -0.0377
22247W        W37864   5.514   9.299  13.666  0.2062 -0.0077 -0.1386
22248W        W37865   6.352  14.241   2.077  0.0174  0.0595 -0.0089
22249W        W37866  16.630   5.979   6.098  0.4348 -0.2340 -0.0378
22250W        W37867  12.300   8.518  13.473 -0.2625  0.0593  0.1533
22251W        W37868  17.084  14.132   2.019  0.0277 -0.1505 -0.3475
22252W        W37869  13.193   6.221  16.002  0.2226 -0.1204  0.0139
22253W        W37870   2.323  14.662   5.544 -0.2927 -0.1849 -0.0808
22254W        W37871  16.743   6.837   1.841 -0.0257 -0.0653  0.2934
22255W        W37872   5.848   3.509   1.183  0.1979 -0.0412 -0.1007
22256W        W37873  16.800   4.780   2.249  0.0259  0.0543  0.1318
22257W        W37874   9.172  10.100  12.787 -0.1095  0.0875 -0.0010
22258W        W37875  12.050   9.062   5.464 -0.1442  0.1295 -0.0654
22259W        W37876  17.514   4.891   1.477  0.0200  0.1638 -0.2379
22260W        W37877   3.968  16.516   3.745  0.0775  0.1161 -0.0443
22261W        W37878  12.498  13.866  13.062 -0.4648  0.0141  0.1640
22262W        W37879   2.642  11.805  13.219 -0.1788 -0.0310 -0.1103
22263W        W37880  11.611  10.438   4.055 -0.0406  0.0850  0.1013
22264W        W37881   0.004  14.968   3.518 -0.1752 -0.0779  0.1449
22265W        W37882   3.343   7.770  12.263  0.0440 -0.0695  0.0568
22266W        W37883   5.937   1.900   1.682  0.0017 -0.0018 -0.0142
22267W        W37884  11.801   5.657   0.605 -0.0788  0.0806 -0.1070
22268W        W37885   1.191   7.600   1.197  0.2017 -0.0272 -0.1075
22269W        W37886   2.862   5.552  11.942  0.1500  0.0946  0.0037
22270W        W37887   1.601   2.998   0.163 -0.2828 -0.2069 -0.3200
22271W        W37888   9.488  15.307  13.909  0.1474 -0.2509 -0.2062
22272W        W37889   4.696  16.735  13.641 -0.4107 -0.0686 -0.0801
22273W        W37890   5.314   6.280   5.343 -0.0096  0.2134 -0.0417
22274W        W37891  10.548   1.792   0.488  0.0936  0.0236  0.2222
22275W        W37892   7.368   0.095   3.322 -0.1106  0.0541 -0.1513
22276W        W37893   8.766   7.139  17.169  0.0274 -0.0054 -0.0343
22277W        W37894   6.468   9.294   0.173  0.2543 -0.0827  0.1139
22278W        W37895  15.967   8.582   0.068  0.0502 -0.3367 -0.2153
22279W        W37896  15.311  12.182   3.666  0.2919  0.1254  0.2996
22280W        W37897   8.818   3.046  12.678  0.0153 -0.0030  0.2258
22281W        W37898   7.030  15.749   0.261 -0.1309  0.0257  0.0243
22282W        W37899  11.462   9.108  12.244 -0.0066  0.0215 -0.3046
22283W        W37900   4.934  14.646  11.834 -0.2040 -0.2233 -0.2341
22284W        W37901   8.781   2.788   1.877 -0.0206 -0.0597  0.0146
22285W        W37902   5.533  16.899   1.011 -0.0240 -0.2099 -0.0903
22286W        W37903   3.196   6.575   3.259 -0.1888 -0.0552  0.0226
22287W        W37904   7.179  16.155   5.247 -0.0958  0.1764  0.1825
22288W        W37905  10.879  14.616   2.890 -0.1609  0.3909 -0.4665
22289W        W37906   5.288   9.783   0.944  0.0248  0.0146  0.0006
22290W        W37907   5.367   9.195  15.178 -0.1082  0.1324 -0.3035
22291W        W37908  10.618   9.547  16.004 -0.2778 -0.0009  0.1155
22292W        W37909   1.832   5.801  15.733  0.0713  0.1235  0.0453
22293W        W37910   4.956  11.832   3.647  0.1059  0.1215  0.0506
22294W        W37911   0.059   0.116  14.042  0.2257  0.1504  0.3509
22295W        W37912  13.502  15.980   3.867 -0.1384  0.0782  0.1499
22296W        W37913  16.394   4.387   0.973 -0.1883  0.1188  0.1997
22297W        W37914   7.183   4.464   5.690  0.3716  0.3470 -0.0919
22298W        W37915   8.448   8.014  13.445  0.1130 -0.1873  0.3753
22299W        W37916  15.083  10.105   4.945 -0.1292  0.0748  0.0651
22300W        W37917   9.048   9.009   3.845 -0.0769 -0.1761 -0.0671
22301W        W37918   4.078   3.671  13.974  0.1450  0.3231 -0.0082
22302W        W37919   8.875   5.808   0.120  0.3381  0.2106  0.0391
22303W        W37920  12.714   5.139  15.506 -0.0708 -0.4157  0.1558
22304W        W37921   8.427   6.296   2.698  0.1494  0.4124 -0.3842
22305W        W37922  11.815  15.948   3.260  0.0532 -0.1000 -0.0854
22306W        W37923  10.227   1.397  11.632 -0.1964  0.1169  0.0637
22307W        W37924   2.350  10.405   1.798 -0.1434 -0.0440 -0.2717
22308W        W37925  11.738  15.553   0.413  0.1012 -0.1222  0.0355
22309W        W37926  11.366  12.125  12.396  0.0171  0.2815 -0.1343
22310W        W37927  17.387  16.277  14.050  0.0005 -0.0364  0.3610
22311W        W37928   0.015  16.453  15.439  0.0609  0.1059  0.2285
22312W        W37929  11.517  14.814  11.950 -0.0882 -0.0138  0.0841
22313W        W37930  16.617  17.071   5.099  0.0719  0.0365  0.1299
22314W        W37931   2.013  17.572  12.758 -0.0309 -0.1579  0.0274
22315W        W37932   5.229  13.704   1.743  0.1045 -0.0620 -0.2423
22316W        W37933  11.722   7.022  15.302  0.1196  0.1343  0.0524
22317W        W37934   1.164   7.066  12.919 -0.1616 -0.0390 -0.3086
22318W        W37935   6.647   4.108  17.279 -0.0650 -0.0810 -0.2317
22319W        W37936   4.071  15.517   3.766  0.0035  0.1603  0.1933
22320W        W37937  12.115  16.198  11.744  0.0137  0.1795  0.3688
22321W        W37938   0.496   0.813   5.723  0.0419 -0.4581  0.3070
22322W        W37939   9.765  15.304  15.699 -0.1527  0.0150 -0.0721
22323W        W37940   6.054   2.720   1.733  0.3487  0.1340 -0.0439
22324W        W37941  12.757  15.556   2.062 -0.2746  0.1545 -0.3607
22325W        W37942   3.064   2.170  15.343 -0.0910  0.2574  0.1150
22326W        W37943   6.842   3.056  16.773 -0.0414  0.0121 -0.4317
22327W        W37944   0.405   9.304  16.531  0.2818 -0.1797 -0.0451
22328W        W37945  10.867  12.496  15.738 -0.3796 -0.0298 -0.1207
22329W        W37946  11.419  16.546   4.896 -0.3213 -0.1385  0.2774
22330W        W37947   2.028  10.110  12.873 -0.1290 -0.0968  0.2331
22331W        W37948   5.965   4.578   2.003 -0.1782  0.0140 -0.0058
22332W        W37949  16.587   8.184   3.740 -0.2357 -0.0991  0.0654
22333W        W37950   6.663  17.032  14.124  0.2198  0.1856  0.1470
22334W        W37951   3.093  12.238   4.403 -0.0963  0.0376  0.0066
22335W        W37952   5.784  16.796   1.466 -0.1554 -0.0440  0.0876
22336W        W37953   4.532  14.779   5.717  0.0473  0.0302  0.2140
22337W        W37954  13.996  10.229   1.297  0.1220  0.4275 -0.2616
22338W        W37955  14.037   0.769   1.750 -0.2822 -0.2186  0.1101
22339W        W37956   8.650   1.923  11.400  0.1780  0.1015  0.1335
22340W        W37957   3.219  14.754   3.559  0.0213 -0.0204  0.0618
22341W        W37958   3.263  11.064  13.196 -0.0934  0.2522 -0.1125
22342W        W37959   8.937   8.593   4.727  0.0589  0.2280  0.1443
22343W        W37960  10.123  10.892   5.325 -0.0727  0.0240  0.0460
22344W        W37961   7.266  13.572  11.815 -0.2044 -0.2377  0.1524
22345W        W37962   0.752   8.847  16.587  0.0635  0.0239 -0.1168
22346W        W37963  12.987   1.945   1.511 -0.1887  0.0978  0.2439
22347W        W37964   5.971   0.591  16.468 -0.0892  0.1492  0.0442
22348W        W37965   4.662  11.103   4.666  0.1947 -0.0032 -0.3522
22349W        W37966   3.549  11.970   4.677  0.0834 -0.1538 -0.1589
22350W        W37967   3.876  11.182   5.562 -0.0164  0.0472  0.1335
22351W        W37968  12.186   7.660   0.753  0.0163  0.1746 -0.0693
22352W        W37969   6.777  12.256  15.420 -0.2025  0.0745  0.1466
22353W        W37970   7.291   5.809  17.186  0.4069  0.2454 -0.1535
22354W        W37971   5.449  13.267   1.360 -0.2320  0.1930  0.1319
22355W        W37972   9.210   0.106   2.913 -0.0824 -0.1424 -0.2217
22356W        W37973   3.063  14.989  13.663 -0.4577 -0.0138 -0.0050
22357W        W37974   8.954  16.784  11.582 -0.2446  0.2717  0.0032
22358W        W37975   9.843  13.826  16.662  0.1684  0.3450 -0.2062
22359W        W37976  10.616   5.391   1.292  0.2700  0.0131  0.1683
22360W        W37977   1.939  15.712   1.927  0.0692 -0.5293  0.3632
22361W        W37978  12.957   8.155  17.040  0.1448 -0.0349 -0.2194
22362W        W37979   8.585  10.979  12.068 -0.0338 -0.1838 -0.2624
22363W        W37980   8.603   9.094  16.366 -0.2013  0.0763 -0.2416
22364W        W37981  10.692  14.568  17.155  0.0486 -0.0222  0.0995
22365W        W37982   0.383  16.515  13.358  0.2434  0.0240  0.0561
22366W        W37983  14.737   8.232  15.274  0.1273 -0.1425  0.1742
22367W        W37984   9.327  14.946  15.289 -0.1148  0.0587 -0.1874
22368W        W37985   3.173  13.181   3.167  0.0109 -0.1135  0.1317
22369W        W37986   5.739   0.043   1.747  0.1017  0.0076  0.0541
22370W        W37987  12.268   0.784   2.539 -0.1218 -0.0190 -0.0614
22371W        W37988  17.124   0.378  12.464  0.0216 -0.1899 -0.2113
22372W        W37989  14.242  11.442  12.481 -0.2414  0.0675  0.1854
22373W        W37990  13.178  12.287   3.863 -0.0250  0.0054  0.1260
22374W        W37991  16.967   6.488   2.566 -0.2408 -0.0574  0.0747
22375W        W37992   0.297   4.639   0.956 -0.0136 -0.0540 -0.1886
22376W        W37993   4.180   5.386   4.318  0.1616  0.0536  0.2800
22377W        W37994  15.171   6.755  15.663 -0.3388  0.0289 -0.3812
22378W        W37995   9.867  12.555  11.323 -0.2816  0.0416 -0.2397
22379W        W37996   8.102   5.261   5.895  0.0563  0.1987 -0.2707
22380W        W37997   7.435   3.291  12.352  0.1537  0.0923 -0.0243
22381W        W37998   1.295  12.508   5.582 -0.1425 -0.1307 -0.2355
22382W        W37999  17.166  17.463   4.384 -0.0099  0.2095  0.0820
22383W        W38000  15.525  15.796   2.860  0.0637 -0.1529  0.0051
22384W        W38001   8.562   0.620  16.189  0.0885  0.0207 -0.0791
22385W        W38002  12.818   3.180   2.423 -0.0709  0.0509  0.1188
22386W        W38003  12.051   6.756   6.540 -0.0866 -0.1711  0.0334
22387W        W38004   2.031   3.573  11.779  0.0324  0.0441  0.1660
22388W        W38005  10.090  14.617  14.953 -0.2343  0.0345 -0.1937
22389W        W38006  17.155   0.363  14.256 -0.1507 -0.0252  0.1347
22390W        W38007  10.988   2.064  13.645  0.3797 -0.0714 -0.1417
22391W        W38008  15.163   9.622  16.366 -0.1497  0.0119  0.0322
22392W        W38009  12.933  12.826   1.875  0.1980  0.1284  0.1174
22393W        W38010   9.596   0.491   5.127  0.0859 -0.0275 -0.0255
22394W        W38011  17.035   6.853   6.519 -0.0063  0.2024  0.2664
22395W        W38012  10.264   1.973  16.386 -0.0359 -0.0071 -0.3985
22396W        W38013  13.912   0.961  16.737 -0.1680 -0.1365 -0.0772
22397W        W38014   7.222  16.687  14.374  0.0124  0.1281 -0.0010
22398W        W38015   6.738   4.776  13.678  0.2655  0.1356 -0.1811
22399W        W38016   4.608  17.193   4.185 -0.0754 -0.1443  0.0016
22400W        W38017  16.853   8.503   0.567  0.0741 -0.3754 -0.0627
22401W        W38018  17.158  10.804   6.454  0.2314 -0.0651 -0.1319
22402W        W38019  15.837   2.123   2.870 -0.0260  0.4283 -0.2138
22403W        W38020   5.348  14.136   1.910  0.1565  0.1891 -0.1748
22404W        W38021  15.651  14.112   2.132  0.2437 -0.3484  0.3302
22405W        W38022  14.710   3.681   3.887 -0.0844 -0.4984  0.0658
22406W        W38023   5.205   8.165   4.022  0.0330 -0.0320 -0.0489
22407W        W38024   2.516  15.450  12.451 -0.1414  0.2372 -0.1915
22408W        W38025  10.016  16.097   2.667  0.1512  0.3071 -0.1560
22409W        W38026   8.522  11.614  12.031  0.1877 -0.3159 -0.2004
22410W        W38027   8.777   0.724   0.751  0.0024  0.0592  0.1043
22411W        W38028  12.637  16.652   0.674 -0.0675 -0.2459 -0.0033
22412W        W38029   5.458  10.823  11.919 -0.1488  0.3401  0.0849
22413W        W38030  15.640   9.562   1.245  0.0978 -0.2730  0.1321
22414W        W38031  11.576   9.859  14.380 -0.0279  0.0856  0.1842
22415W        W38032  13.650   5.331  14.171 -0.1437 -0.0565 -0.1292
22416W        W38033   6.710  12.414  13.686  0.0986  0.3705 -0.2238
22417W        W38034  10.028  14.638  16.770  0.1065 -0.3091  0.1504
22418W        W38035   3.014  15.787  15.044 -0.2053  0.0671 -0.1373
22419W        W38036  16.375   1.989   1.762  0.1245  0.0672 -0.1642
22420W        W38037   9.520  10.836   0.870 -0.3037 -0.2016  0.0025
22421W        W38038  12.660   3.236   1.835  0.1196 -0.0375  0.1676
22422W        W38039  14.663   3.901   2.619  0.0331 -0.2139 -0.2560
22423W        W38040  11.198  16.056  13.305  0.1873 -0.1089  0.1094
22424W        W38041   6.322   2.221  16.321  0.0758 -0.0167  0.0543
22425W        W38042   2.991  11.798   0.441 -0.3802  0.2303  0.0575
22426W        W38043  16.819   6.038   0.121  0.0565 -0.1174 -0.1071
22427W        W38044  14.921   6.395  15.896  0.0730  0.0577  0.1049
22428W        W38045  14.333   4.350   2.443 -0.0313  0.1762 -0.1708
22429W        W38046   6.795  11.322  15.735  0.0260  0.1480 -0.0896
22430W        W38047   1.492   6.584   3.070 -0.1147  0.3099 -0.1730
22431W        W38048   0.856  10.833  15.031  0.1685 -0.1711 -0.4290
22432W        W38049  17.345  16.629   1.088  0.3650 -0.1071  0.3022
22433W        W38050  12.416   8.527  14.262  0.0295 -0.2894 -0.1709
22434W        W38051  17.565   6.644   2.921 -0.1582  0.1589 -0.4495
22435W        W38052   1.400  11.229  13.151 -0.3333  0.1017 -0.1355
22436W        W38053  13.273   8.518  12.455  0.0572 -0.0791 -0.0085
22437W        W38054   4.186   7.337   3.749  0.1866 -0.0174  0.0112
22438W        W38055   6.566   4.290   3.246  0.0921 -0.0842 -0.0919
22439W        W38056  12.026   5.731   5.960 -0.1128 -0.0094  0.3847
22440W        W38057  12.667  12.979   2.293 -0.0904 -0.1512 -0.0673
22441W        W38058   6.889   0.246   6.035  0.1225  0.1578  0.0926
22442W        W38059  13.626  13.815  14.956 -0.1346 -0.1494 -0.0454
22443W        W38060   8.566   5.147   3.623 -0.2603 -0.1898  0.0341
22444W        W38061  15.233   2.789  15.076 -0.2018 -0.0586  0.1119
22445W        W38062   9.355   9.872  16.490 -0.0886 -0.0484  0.0385
22446W        W38063   8.303   4.241   4.630 -0.2234 -0.2311  0.1367
22447W        W38064  16.039   5.740   3.149 -0.1540  0.2420 -0.0221
22448W        W38065   1.733  13.558   2.080 -0.0524  0.2741 -0.2075
22449W        W38066  15.659  10.513   1.375 -0.0565  0.1740 -0.1490
22450W        W38067   8.986   6.631   5.033 -0.0639  0.0207  0.2013
22451W        W38068   7.765   6.926   3.018  0.0940 -0.2496 -0.1629
22452W        W38069  10.771  10.932   4.610 -0.0255 -0.0528 -0.2265
22453W        W38070   9.531   3.881  17.135 -0.2105  0.2987 -0.2105
22454W        W38071   3.374  16.079   3.131  0.1426 -0.3421 -0.3391
22455W        W38072  16.627   9.807  12.145  0.0068  0.1900 -0.1184
22456W        W38073   4.893  14.433   4.252  0.1280 -0.0170 -0.2255
22457W        W38074   5.987   8.065   2.024  0.3397 -0.1052 -0.1513
22458W        W38075  11.586   0.214   3.504 -0.1112  0.1580 -0.3730
22459W        W38076   9.570   3.247  12.103  0.2421 -0.1531 -0.1338
22460W        W38077  14.002   6.146  14.305  0.0331 -0.2103 -0.0901
22461W        W38078   2.456   6.145   2.912 -0.0861  0.1498 -0.0241
22462W        W38079   7.480   5.733  12.820 -0.0877  0.1275 -0.0007
22463W        W38080  15.089   5.507  16.996 -0.2490 -0.0377 -0.1281
22464W        W38081  16.403   1.648  13.561 -0.0943 -0.2033  0.1822
22465W        W38082  13.221   7.124  14.450 -0.0380 -0.0390 -0.0343
22466W        W38083  11.450   9.093   5.707  0.2210 -0.1007 -0.1130
22467W        W38084  11.238   7.391  13.546 -0.5689 -0.0121  0.2242
22468W        W38085   0.629   4.677   0.580 -0.1676  0.1826 -0.0914
22469W        W38086   9.287   2.057   2.309 -0.0131 -0.1818 -0.2673
22470W        W38087   9.225  14.807  14.309 -0.0299 -0.0022 -0.2254
22471W        W38088   2.428   5.967  12.620  0.2454  0.1178 -0.0224
22472W        W38089   0.619  11.180  12.485  0.1148 -0.2343 -0.2568
22473W        W38090   4.608   2.723   0.239 -0.1336  0.1311 -0.1085
22474W        W38091  10.383   0.510   2.776  0.0073  0.0958 -0.0925
22475W        W38092   6.741   5.208  13.462 -0.2514 -0.1806  0.0126
22476W        W38093   5.741   2.422   3.797  0.4837 -0.0507 -0.3117
22477W        W38094   3.771  14.311  13.206  0.1026 -0.0395 -0.1354
22478W        W38095  10.156  11.547  13.698 -0.2478  0.1351 -0.0669
22479W        W38096  11.181   9.437   0.722 -0.2138  0.0659 -0.1126
22480W        W38097  15.707  15.365  13.224 -0.0752 -0.0201 -0.0686
22481W        W38098   8.505  10.407  12.169 -0.1205 -0.0598 -0.0780
22482W        W38099   1.865  12.501   2.769  0.3989 -0.1991 -0.0061
22483W        W38100   8.961   8.129   3.697 -0.1318 -0.1077  0.0296
22484W        W38101   5.510   3.835   0.780 -0.0950 -0.1025 -0.1649
22485W        W38102  16.880   1.020  17.277 -0.1693 -0.3674 -0.4151
22486W        W38103  10.756  10.707   2.374  0.1052  0.1459  0.2418
22487W        W38104   5.371   8.120  12.929 -0.2116 -0.1336  0.3744
22488W        W38105   6.479   2.288   4.415  0.1211 -0.3108 -0.0171
22489W        W38106  12.782   8.333  16.504  0.0284 -0.1456  0.1535
22490W        W38107   8.975  10.951  16.638 -0.0327 -0.2377 -0.1574
22491W        W38108   5.498   4.225  12.662  0.1117  0.2477 -0.2389
22492W        W38109   0.405   5.067   6.390 -0.0176  0.0467 -0.2753
22493W        W38110  14.975   8.306   2.813  0.0571 -0.3078  0.4174
22494W        W38111   4.068  14.619  15.071 -0.3001 -0.1590 -0.1167
22495W        W38112   9.324  16.669  16.756  0.2014  0.0948  0.1672
22496W        W38113   7.015   2.021   1.541  0.2010  0.1264  0.2652
22497W        W38114   6.462  13.102  12.775  0.3850  0.0741  0.0428
22498W        W38115   5.428   3.726   3.879  0.0561 -0.2864  0.2583
22499W        W38116   0.775   8.337  13.728 -0.1103  0.2593 -0.0848
22500W        W38117  14.608   3.755   6.634  0.2024 -0.1266  0.0624
22501W        W38118   0.631   5.100  17.084  0.2148 -0.1290  0.1884
22502W        W38119   3.994  13.100   0.363  0.0952  0.0881  0.0039
22503W        W38120  17.014  14.912  16.777 -0.0438 -0.3656  0.0293
22504W        W38121  13.416   6.025   0.208 -0.0754  0.4506  0.2545
22505W        W38122  10.867   8.866   4.671  0.1491 -0.0342 -0.1273
22506W        W38123   8.573  15.646  16.211 -0.2005 -0.0231 -0.1518
22507W        W38124  12.747   0.261  13.094  0.0521  0.0273 -0.3425
22508W        W38125   1.517   3.701   3.728 -0.0108 -0.0676  0.1305
22509W        W38126  13.784   7.506  16.123  0.0702 -0.1975 -0.1091
22510W        W38127   2.028  17.587  15.677 -0.0337 -0.1856 -0.0458
22511W        W38128   2.643  13.033   5.207 -0.0953  0.2584  0.1984
22512W        W38129   6.410   3.916   4.113  0.0930  0.0193  0.0746
22513W        W38130   2.625  10.486  15.476 -0.1425  0.3544  0.0711
22514W        W38131  13.758   5.677   4.132 -0.1071 -0.0379  0.2850
22515W        W38132   3.936  10.322  15.486 -0.1487 -0.1578 -0.1818
22516W        W38133   0.507  16.368  17.300 -0.0730 -0.2628  0.1538
22517W        W38134   2.993   2.989  15.810 -0.1122 -0.1387  0.0431
22518W        W38135   1.692   6.400  13.852 -0.0511 -0.1650 -0.0833
22519W        W38136   3.924   4.769  13.022  0.1349 -0.0167 -0.0857
22520W        W38137  16.370   6.864  14.270 -0.0357  0.2653 -0.2154
22521W        W38138   1.222   3.782   5.606  0.4593 -0.3420 -0.2059
22522W        W38139  16.981   3.244   1.506 -0.0471 -0.0230 -0.0807
22523W        W38140   4.538   5.479   5.098 -0.1110  0.2935 -0.0130
22524W        W38141   9.605  14.229  14.976  0.4055 -0.0056 -0.4218
22525W        W38142   2.244   4.318  13.949 -0.1531  0.0005 -0.0241
22526W        W38143  14.321   8.913   3.065  0.3585 -0.3552  0.2725
22527W        W38144  11.615   8.410   2.563  0.0531 -0.0537  0.1922
22528W        W38145   7.952  12.943  12.788 -0.1734 -0.0321  0.4075
22529W        W38146   8.494  16.249  17.026 -0.0216  0.1410 -0.2678
22530W        W38147   0.207  12.446  17.199 -0.0552  0.0683  0.0124
22531W        W38148   6.291   6.442   0.538 -0.0074  0.1524  0.0568
22532W        W38149   5.898  17.568  12.560  0.0460 -0.0047  0.0280
22533W        W38150   8.895   3.027   5.097 -0.0056  0.3062  0.2212
22534W        W38151  13.764   6.276  13.027  0.0618  0.0467  0.1062
22535W        W38152   1.542   3.094   3.656 -0.1428 -0.0461  0.2458
22536W        W38153  12.112   9.353  16.231 -0.1106  0.4425  0.1716
22537W        W38154  15.896   5.201   2.984 -0.2685 -0.2321 -0.0704
22538W        W38155   2.272   1.595   4.906  0.1250  0.1577 -0.4196
22539W        W38156   9.055   9.419  12.386  0.0752 -0.3735  0.2755
22540W        W38157  11.412  12.066  14.704 -0.1672  0.0750  0.1505
22541W        W38158   0.374   5.806   1.316 -0.0224  0.2127  0.0838
22542W        W38159  17.532   1.092   3.045  0.0965 -0.0102 -0.0377
22543W        W38160   1.073  13.942   0.482  0.0494  0.2099  0.1029
22544W        W38161   7.521  14.225  16.708 -0.0376 -0.0260 -0.2988
22545W        W38162  11.442   2.323   3.589 -0.0252  0.1881  0.2472
22546W        W38163   2.692  10.807  13.016 -0.0989  0.0315  0.0150
22547W        W38164   5.773   6.427   5.194  0.2637 -0.0044 -0.0888
22548W        W38165   7.501   0.002   2.686 -0.0118  0.0180 -0.0973
22549W        W38166   8.326  10.687  13.507  0.1590 -0.1964 -0.2610
22550W        W38167  11.934   5.775  12.703 -0.1222  0.1572  0.0422
22551W        W38168   9.032   2.734   0.362 -0.0479 -0.2091 -0.0121
22552W        W38169   0.806  13.754  15.914  0.3917  0.0913  0.0204
22553W        W38170  16.480  15.180  15.061  0.3025  0.2614  0.4027
22554W        W38171  16.808  17.225  12.147  0.0389  0.1339  0.1709
22555W        W38172  15.813  15.625   1.621 -0.0587 -0.1799  0.1282
22556W        W38173   8.661  16.086  16.566 -0.0511 -0.3180  0.0596
22557W        W38174  11.087  15.821  13.847 -0.0523 -0.1509  0.0601
22558W        W38175   9.974   3.647  12.702  0.0369  0.1319 -0.0329
22559W        W38176   7.965  11.321  12.257  0.0407  0.1945 -0.1193
22560W        W38177   4.574   1.996  12.741  0.1685 -0.0108  0.2092
22561W        W38178  14.539   7.909   5.224  0.3351  0.0661 -0.0202
22562W        W38179  16.487  12.635  14.726  0.1307 -0.0476  0.0426
22563W        W38180   1.398  15.294   1.788 -0.2712 -0.0748  0.0253
22564W        W38181  14.461  12.384  17.009  0.2390  0.1378 -0.0136
22565W        W38182   9.249   0.989   0.333 -0.1378 -0.1865 -0.2452
22566W        W38183   0.169   4.676   5.230  0.2012  0.0297 -0.1871
22567W        W38184   9.642   1.635  13.945 -0.3000  0.1313 -0.0035
22568W        W38185  13.860   9.578   5.062 -0.2267 -0.0313 -0.3111
22569W        W38186  17.421   4.474   5.484  0.1740 -0.0319 -0.0203
22570W        W38187   4.375   7.272   0.211  0.2979 -0.0580 -0.1849
22571W        W38188   5.245  12.019  13.116  0.1333 -0.0594  0.0691
22572W        W38189   1.222   8.036  16.490 -0.1655  0.1234 -0.1192
22573W        W38190  16.456  15.633  15.356  0.1658 -0.1980  0.2878
22574W        W38191  12.784   9.551   0.493 -0.0435 -0.0662  0.0959
22575W        W38192   3.195   5.513   3.752  0.0823 -0.1238 -0.0353
22576W        W38193  14.391   4.525   4.693 -0.0738  0.0838 -0.2407
22577W        W38194   6.174   3.172   5.399 -0.0777  0.1044 -0.1028
22578W        W38195  12.277  12.015   2.859 -0.2059  0.0190 -0.2173
22579W        W38196  11.077  14.085   4.017 -0.1896  0.0168 -0.1793
22580W        W38197   7.335  16.734   2.708 -0.1627 -0.1901 -0.0640
22581W        W38198   5.818   5.117   5.067  0.1068  0.0010 -0.0279
22582W        W38199   0.824   6.766   6.315  0.0229  0.1415 -0.4658
22583W        W38200   8.976  14.808   2.433 -0.1389  0.2231  0.0701
22584W        W38201   8.741  12.869   4.866  0.1986  0.2843 -0.3374
22585W        W38202   1.615   6.247  12.354  0.1053 -0.1405  0.2964
22586W        W38203   0.663   6.521   5.373  0.1030  0.1004  0.0191
22587W        W38204  17.492   1.315   0.692 -0.0489 -0.1818  0.0123
22588W        W38205  12.362   5.295   4.134 -0.0575 -0.1635  0.1032
22589W        W38206   2.083   4.613  16.823 -0.0009  0.0345 -0.2435
22590W        W38207   5.248  11.511  13.051  0.0711  0.0330  0.1903
22591W        W38208  10.031  12.246  17.232 -0.3817 -0.2596  0.2091
22592W        W38209  14.818   1.778  15.667  0.0592 -0.1397 -0.0045
22593W        W38210  17.065   4.738  14.987  0.1550  0.3707  0.0380
22594W        W38211   1.154   2.543  16.048  0.2204  0.1108 -0.0745
22595W        W38212   3.007  13.999   4.294 -0.0526  0.2182 -0.1626
22596W        W38213   7.422  16.597  12.823  0.0567 -0.2576 -0.0704
22597W        W38214  10.027   0.301   5.188  0.0411 -0.0605 -0.1968
22598W        W38215   7.028   4.939   5.901 -0.1214  0.0137 -0.2301
22599W        W38216  17.227  17.511  15.239 -0.2698 -0.1797 -0.3764
22600W        W38217  16.750   0.475   4.643 -0.3142 -0.0301 -0.0149
22601W        W38218   9.336  13.073   0.248  0.0248  0.2346 -0.0364
22602W        W38219   8.513  13.262  15.337 -0.1615  0.3009  0.1239
22603W        W38220  15.298   8.725   3.836 -0.2169  0.1519 -0.2278
22604W        W38221  10.996  12.788   3.069  0.1386  0.1090  0.0023
22605W        W38222   2.030   5.006   2.941  0.1264 -0.0458 -0.1254
22606W        W38223   1.109   5.347   1.708  0.2515 -0.2030 -0.1428
22607W        W38224  14.095   5.867   5.411  0.1849 -0.1959  0.1358
22608W        W38225   5.854  15.978  15.656  0.2201 -0.1864  0.0721
22609W        W38226   5.341   6.944  15.182  0.0532  0.2827  0.1629
22610W        W38227   7.081   8.698   1.975 -0.0094 -0.2485  0.0764
22611W        W38228  15.653  17.011  16.491 -0.0271  0.0800 -0.0739
22612W        W38229  12.579  16.736   1.904 -0.0834  0.1407  0.1160
22613W        W38230  11.916   6.122   0.545  0.0067 -0.1808 -0.1632
22614W        W38231  10.208   1.266  12.605 -0.0558  0.0780 -0.1573
22615W        W38232  10.187   9.567  16.418  0.0425  0.0381  0.2807
22616W        W38233  11.965   1.307   5.574 -0.3292  0.1821  0.2541
22617W        W38234  10.915   5.106  14.235  0.0645 -0.1394 -0.1345
22618W        W38235  15.901   7.950  13.488 -0.1813  0.0196 -0.1691
22619W        W38236   1.667  16.745  16.609  0.3606  0.2306  0.0353
22620W        W38237  14.371   6.834   1.222  0.3746 -0.0312 -0.0049
22621W        W38238   5.414   5.093  12.394  0.1381 -0.1380  0.0856
22622W        W38239   8.362   3.541  13.504 -0.0116 -0.1991  0.2642
22623W        W38240   7.401   9.845  11.994 -0.3329  0.0231  0.1207
22624W        W38241  13.022  14.466  12.743  0.0636 -0.0364  0.0965
22625W        W38242   1.180  10.980  14.107  0.0402  0.0726 -0.1712
22626W        W38243   2.539   1.408  11.863  0.1933 -0.1246  0.0093
22627W        W38244   1.113   3.974  13.942 -0.1603 -0.0074  0.0032
22628W        W38245  10.974  12.642  16.699 -0.1110 -0.2222  0.0864
22629W        W38246   2.232   9.060   4.452 -0.1837 -0.0572  0.0495
22630W        W38247   0.454   1.846   5.578  0.3991 -0.2111  0.1430
22631W        W38248   1.490   6.252  15.848 -0.1363  0.0051 -0.1624
22632W        W38249  14.348  10.022   4.033  0.2299  0.0485 -0.0150
22633W        W38250  12.330   6.958   1.052 -0.0175 -0.3701 -0.2003
22634W        W38251   6.643   1.332   1.792  0.0336  0.0497  0.0154
22635W        W38252   0.223   2.500   3.709  0.0420  0.1551 -0.1562
22636W        W38253   5.032   8.733   4.732 -0.0533  0.1318  0.0682
22637W        W38254  16.153   7.000  12.725 -0.1041  0.0153  0.0604
22638W        W38255  15.133  15.959   4.568 -0.1154 -0.3783 -0.1604
22639W        W38256  16.741   9.443  12.987  0.0901  0.0111 -0.1181
22640W        W38257   7.260   2.348   6.006 -0.1222 -0.0576  0.0368
22641W        W38258   7.942  16.485   2.295  0.2258  0.1401 -0.2562
22642W        W38259  10.360   3.258   0.337  0.0193  0.2343 -0.0329
22643W        W38260  16.274   0.766   2.590  0.1860 -0.2311  0.3423
22644W        W38261   8.923   9.674  12.931  0.0919 -0.1643 -0.1352
22645W        W38262   1.028  11.852   5.084  0.1176  0.0230  0.0511
22646W        W38263  12.533  11.766   3.256  0.0189  0.0452 -0.2048
22647W        W38264   1.278  14.098   4.252  0.1195  0.0691  0.2022
22648W        W38265  17.330  13.481  14.054 -0.1361 -0.1259  0.2467
22649W        W38266   4.516  10.456  13.251 -0.0200 -0.2930 -0.0744
22650W        W38267   8.625   9.915  15.831  0.1892 -0.2813  0.0623
22651W        W38268   4.484   4.202   3.156 -0.0475 -0.0447 -0.0730
22652W        W38269   5.387   3.787  16.635 -0.1377 -0.0575 -0.1600
22653W        W38270   9.499  12.176  17.029 -0.1102 -0.1485  0.0901
22654W        W38271  15.982   3.471   5.186 -0.0034 -0.0316  0.0403
22655W        W38272   9.287  13.624   3.208  0.1688  0.0992 -0.1672
22656W        W38273  16.205  17.297   6.433 -0.2019 -0.2047 -0.0085
22657W        W38274  16.041   3.022  14.566 -0.0485  0.2146  0.1729
22658W        W38275   4.259   8.250   6.099  0.1986 -0.2487  0.0075
22659W        W38276   1.921   1.908   2.412  0.1646  0.1611  0.1534
22660W        W38277   3.432  17.340   5.193 -0.0887 -0.2929 -0.0474
22661W        W38278   7.949   6.268  13.266 -0.0641  0.1944 -0.0649
22662W        W38279  11.854   2.767  17.232  0.2365  0.0405  0.0159
22663W        W38280   6.849  11.856   4.412  0.0831  0.1095 -0.2935
22664W        W38281   5.776  14.212   4.809 -0.2449  0.1842  0.1236
22665W        W38282  15.641   6.744   5.977  0.1999 -0.0976 -0.0358
22666W        W38283   1.301  10.503  14.422 -0.2082 -0.1523 -0.1313
22667W        W38284   3.280   5.467   4.833 -0.3699 -0.0477 -0.1242
22668W        W38285   3.031  10.104  12.402 -0.2254  0.1284  0.1086
22669W        W38286   8.607  13.626  12.777  0.2553  0.0587  0.1890
22670W        W38287  17.112  13.958  11.821  0.3067  0.0735 -0.1804
22671W        W38288   9.039   9.641   4.723  0.0875  0.0958  0.1808
22672W        W38289   2.076  14.962  13.824  0.1325  0.0085 -0.1367
22673W        W38290   8.990   9.685  17.137 -0.2077 -0.1061 -0.2432
22674W        W38291   2.126   8.914   1.993 -0.3179 -0.2082  0.0093
22675W        W38292   4.949  16.890   2.602 -0.1047 -0.1706  0.3826
22676W        W38293  13.813  17.559  16.496  0.0020 -0.0763 -0.2766
22677W        W38294  11.872   0.880  15.105 -0.1161 -0.1123  0.0348
22678W        W38295  11.835  17.441  13.404  0.0582  0.0874 -0.2105
22679W        W38296   1.899  13.923   4.236 -0.0437 -0.0788 -0.3972
22680W        W38297   4.619   8.664  15.371 -0.0076  0.1036  0.0176
22681W        W38298   1.245   9.322   6.289  0.0805 -0.2398  0.0269
22682W        W38299  12.886   1.767  12.577 -0.0621  0.0245  0.2767
22683W        W38300   0.826  11.979   5.528  0.2224  0.3030 -0.0166
22684W        W38301   1.393  10.599   1.978  0.0275  0.1472  0.0418
22685W        W38302   3.726  16.777  14.455 -0.2331  0.1052  0.1692
22686W        W38303  12.725   1.123   3.883 -0.1650 -0.0242 -0.0719
22687W        W38304   7.022  14.544  17.149 -0.0847 -0.0607 -0.0271
22688W        W38305   7.620   8.676   1.181  0.3374 -0.2082 -0.0191
22689W        W38306  10.292  10.640   4.943  0.0010  0.1023  0.1605
22690W        W38307   2.780  11.298   3.466 -0.3382 -0.0817  0.1194
22691W        W38308  16.386  14.583  17.298 -0.0620 -0.1623 -0.0888
22692W        W38309   0.227   6.593  15.940 -0.1117  0.0826  0.0874
22693W        W38310   7.942   1.828   2.330 -0.0208  0.0049 -0.0954
22694W        W38311   4.944   2.964  14.473 -0.0902  0.1884 -0.2225
22695W        W38312  15.159   1.994  17.126  0.1493 -0.0533  0.0627
22696W        W38313  11.312   1.092  15.621  0.0137 -0.2117 -0.1208
22697W        W38314   8.952   1.611   5.178  0.4202 -0.0512  0.1345
22698W        W38315   4.457  16.940  14.904 -0.0609 -0.0487 -0.1801
22699W        W38316  14.993  12.252   2.823  0.0566 -0.0831 -0.3372
22700W        W38317  13.630   4.140   4.262 -0.2488 -0.2609 -0.0653
22701W        W38318   7.475  11.814   2.553 -0.3650 -0.0757  0.1814
22702W        W38319   9.279   9.110  12.857 -0.0107  0.0621  0.0133
22703W        W38320   2.962   5.472   1.232  0.2469 -0.0347  0.0100
22704W        W38321   9.813   4.724  14.087 -0.1339  0.2812 -0.2850
22705W        W38322  12.318  12.935  17.272 -0.0011  0.1582  0.1811
22706W        W38323   0.358  14.111   2.436 -0.1625  0.1067 -0.1436
22707W        W38324   6.584   0.121  17.029  0.2425  0.0304  0.0435
22708W        W38325  13.006   6.231   1.268 -0.0470  0.0659 -0.1568
22709W        W38326   0.693  14.315   1.617  0.0541 -0.0939 -0.0978
22710W        W38327  10.988  14.831  16.093  0.1230  0.1373 -0.1064
22711W        W38328   4.835  11.276  17.258  0.1105  0.1943  0.1034
22712W        W38329  16.878   2.930   4.853 -0.3056  0.1435  0.2085
22713W        W38330   2.039  12.054  15.428 -0.0066  0.0461  0.0728
22714W        W38331  17.148  16.795   3.691  0.0704  0.2502 -0.0543
22715W        W38332   5.557   7.313   4.087  0.2224  0.0460  0.3635
22716W        W38333   9.134  12.223  15.749  0.0029  0.2656  0.2573
22717W        W38334   5.415   6.279  17.235 -0.1814  0.0814 -0.1267
22718W        W38335  15.423  14.673  12.048  0.1355  0.0591  0.1784
22719W        W38336   8.207   5.732   2.607 -0.2247 -0.1884 -0.2538
22720W        W38337   8.282   2.864  16.689  0.1250  0.1123  0.0385
22721W        W38338  13.428   9.118   0.918  0.1382  0.0680 -0.0978
22722W        W38339  12.286   4.442  15.232  0.3122 -0.0352  0.4227
22723W        W38340   4.848   0.673   0.856 -0.1581  0.0712 -0.1293
22724W        W38341   4.827  15.953  12.580 -0.0251  0.2412  0.1120
22725W        W38342  16.807  12.022   5.355  0.0294 -0.1184 -0.0523
22726W        W38343   0.951   7.825  16.166  0.2935  0.1361 -0.0706
22727W        W38344  13.267   7.679  16.857 -0.1462  0.0226 -0.0518
22728W        W38345  16.974   2.710  15.167 -0.4267 -0.1577  0.1545
22729W        W38346   8.973  17.019  16.496 -0.1247  0.3746 -0.0232
22730W        W38347  16.532   3.726   2.302  0.0627 -0.3733  0.0127
22731W        W38348  15.793   7.343  12.851  0.3303 -0.0815  0.0518
22732W        W38349  13.167  10.074  12.475  0.0815  0.1902 -0.0815
22733W        W38350   9.397   4.251  15.354  0.2010  0.4023  0.0467
22734W        W38351   0.472  16.337  12.943 -0.0882  0.0284  0.1872
22735W        W38352  10.840   2.928   4.714 -0.1696 -0.2565 -0.0384
22736W        W38353   8.753   6.060   0.657  0.1045  0.0898 -0.2982
22737W        W38354  16.322  11.343   1.884  0.2696  0.0184  0.0703
22738W        W38355   7.483   9.042  14.245 -0.0330  0.2349  0.0801
22739W        W38356  12.578   1.782   5.102  0.1802 -0.1172 -0.0117
22740W        W38357   8.370   5.512  16.314  0.2893  0.0115 -0.1943
22741W        W38358   1.910  17.267  11.333 -0.1025  0.1966 -0.2738
22742W        W38359  12.120  10.686  17.228  0.2094  0.2152 -0.0740
22743W        W38360   3.293   0.582  12.135 -0.1049 -0.1087  0.0948
22744W        W38361   7.591   8.726  14.755  0.1706  0.0064  0.2641
22745W        W38362  13.726   0.701   4.906 -0.1080  0.3714  0.0022
22746W        W38363  16.853   5.145   5.057 -0.2426 -0.1050 -0.1174
22747W        W38364   8.987   2.226  17.062  0.1136  0.0982 -0.2015
22748W        W38365  12.032  10.664  16.746 -0.1425 -0.0379  0.2835
22749W        W38366  11.109   1.521   4.150 -0.1308 -0.1516 -0.2206
22750W        W38367   4.168  14.110  14.111 -0.1135  0.0983  0.0327
22751W        W38368   1.157  16.764   0.563  0.5214  0.0316  0.1043
22752W        W38369  17.176  16.290  11.872 -0.0155 -0.0063  0.0769
22753W        W38370  14.065   5.080  14.166  0.0271  0.0651 -0.1410
22754W        W38371   3.808   7.361  13.638  0.1612  0.0997  0.0939
22755W        W38372   4.573   1.064  12.642  0.2306  0.0136  0.2284
22756W        W38373  15.760   5.747  16.410 -0.0116  0.0607  0.3370
22757W        W38374   3.729  13.407  14.941  0.1259 -0.1329 -0.4457
22758W        W38375  15.107   3.945  12.277  0.0989 -0.0284 -0.2202
22759W        W38376  11.492   5.815   4.136  0.3090  0.2340  0.1596
22760W        W38377   1.659   1.434   0.264  0.0585 -0.2573  0.0996
22761W        W38378   5.419  11.905  12.639 -0.3092 -0.1458  0.3107
22762W        W38379  12.621   2.141  16.091  0.0051 -0.0911 -0.1137
22763W        W38380   6.307   3.273   1.618  0.1221 -0.0794 -0.0242
22764W        W38381   7.042  17.116   3.384  0.0495  0.0014  0.2407
22765W        W38382  17.269  12.641  12.992  0.0271  0.0838  0.1682
22766W        W38383  13.501  11.479  13.841  0.1590 -0.2217  0.0461
22767W        W38384  11.208  17.289  17.300  0.1849  0.1660  0.0129
22768W        W38385   0.687   3.449   0.545 -0.2076  0.3318 -0.1800
22769W        W38386  12.514   8.205  14.883 -0.0585  0.1023 -0.3664
22770W        W38387  16.883  12.403  13.172  0.1443  0.0043 -0.0047
22771W        W38388  16.133   7.652  16.808  0.4568 -0.3507 -0.0406
22772W        W38389  12.975   4.042   1.777 -0.2098  0.1280  0.0697
22773W        W38390   5.876  16.165  13.851 -0.0647  0.0103 -0.3303
22774W        W38391  17.363   9.241   3.286  0.5517  0.1524 -0.1408
22775W        W38392   7.564   5.288   3.231  0.3114  0.2522  0.2376
22776W        W38393  14.624   7.552  16.905  0.0458 -0.2545  0.0354
22777W        W38394   8.423   1.885   4.118 -0.1592 -0.0218 -0.0025
22778W        W38395   8.915   5.781   1.300  0.1020 -0.1211 -0.0925
22779W        W38396   3.014   7.086   4.560 -0.0249  0.0139  0.1104
22780W        W38397   0.654   8.798   4.666 -0.1332  0.2289 -0.1753
22781W        W38398  14.116  13.143  13.889 -0.1865  0.2109 -0.1193
22782W        W38399  15.892  11.516  12.676  0.1909  0.2751 -0.0517
22783W        W38400   6.872  11.654   4.957 -0.0548 -0.0829 -0.2936
22784W        W38401   0.808   2.254   2.985 -0.0565  0.0615  0.4977
22785W        W38402  10.580   9.442   5.732 -0.1670  0.2163  0.3493
22786W        W38403   0.723  10.778  13.822  0.0279 -0.3918  0.2289
22787W        W38404   0.720  14.202   0.174  0.0794  0.2278  0.2322
22788W        W38405   0.427   8.304  15.107  0.1110 -0.0215  0.2457
22789W        W38406   8.203  13.335  14.087 -0.0037  0.1800  0.0155
22790W        W38407  16.346   3.811  16.883  0.0059  0.0964  0.2813
22791W        W38408  11.400   5.959   0.599 -0.1392 -0.2033 -0.0470
22792W        W38409  12.732  12.438  13.036 -0.0373 -0.4211 -0.0371
22793W        W38410  14.734  13.923  15.720  0.3718 -0.1915 -0.2799
22794W        W38411   5.413  10.574   1.867  0.0395 -0.0279 -0.0682
22795W        W38412   8.477   2.612   3.194 -0.0063  0.1033  0.0251
22796W        W38413   5.388  10.431   0.721  0.0828 -0.1049  0.0820
22797W        W38414   4.474  10.300   3.066  0.0857 -0.2850  0.0074
22798W        W38415   0.392  10.170  12.456  0.0148 -0.1279 -0.0726
22799W        W38416   0.912   1.853   0.796 -0.0534  0.4500 -0.0769
22800W        W38417   6.132  15.994   1.229 -0.0448 -0.2828  0.2960
22801W        W38418  13.895  14.526  14.054 -0.0560 -0.2873  0.1661
22802W        W38419   8.570   8.701  12.846 -0.3060 -0.0395  0.1886
22803W        W38420  10.184  14.831  11.971 -0.0159 -0.1215  0.1808
22804W        W38421  14.363  17.499   1.312 -0.2037  0.1952 -0.0666
22805W        W38422  12.033   3.291   0.801 -0.1871 -0.1018 -0.0783
22806W        W38423   0.580  11.143   5.109 -0.2514  0.0810 -0.3270
22807W        W38424  14.048  14.586  15.112 -0.3332  0.0230  0.1011
22808W        W38425  12.759  11.551  15.655  0.1306 -0.3342 -0.2219
22809W        W38426  16.680  12.930  13.140 -0.1161  0.3814  0.0776
22810W        W38427  11.509  14.938  14.141  0.1032  0.0183  0.0795
22811W        W38428   9.545  16.062   3.920  0.1962  0.0963 -0.0966
22812W        W38429   2.525  10.010   2.953  0.1723  0.0171 -0.2722
22813W        W38430   2.870   4.740   5.864  0.0981  0.2517 -0.2113
22814W        W38431  14.738  14.118   3.025 -0.1509 -0.3266 -0.3500
22815W        W38432  11.577   1.875   3.389 -0.2733 -0.0237  0.0082
22816W        W38433   9.866   8.833   5.602 -0.2759 -0.0791 -0.0170
22817W        W38434  14.504  13.439  14.771 -0.2552 -0.1411 -0.0282
22818W        W38435   9.673   8.578  12.233  0.0111  0.4198 -0.1020
22819W        W38436   5.011  12.455  17.236 -0.0380  0.1899 -0.4434
22820W        W38437   2.482   0.025  16.119  0.0332 -0.2150 -0.0512
22821W        W38438   9.991   9.500   0.222  0.1565  0.0337 -0.0470
22822W        W38439  16.182  13.302  14.032  0.2005 -0.2046 -0.0350
22823W        W38440   2.084   1.161  14.656  0.0696  0.1089  0.0189
22824W        W38441  12.647  17.346  15.360  0.0751  0.1308 -0.1603
22825W        W38442  14.838   8.027   1.697  0.1221  0.1532  0.1250
22826W        W38443  14.057   6.347   2.404  0.3170 -0.2505  0.0224
22827W        W38444   8.262  17.588   2.870 -0.0765 -0.1205 -0.0864
22828W        W38445  15.624  15.188  16.467 -0.1814 -0.0337  0.0462
22829W        W38446   3.465   0.274  15.664 -0.4888 -0.1267 -0.1384
22830W        W38447   4.543   5.503   2.380  0.2706 -0.0438 -0.1549
22831W        W38448  11.440  15.546  16.762 -0.2776 -0.1078 -0.1671
22832W        W38449   2.796   3.083   1.421 -0.1122  0.1194 -0.0566
22833W        W38450  11.591   7.772  13.621  0.1165 -0.0396  0.1525
22834W        W38451   2.974   6.057   2.599  0.0791  0.3467 -0.4715
22835W        W38452  14.822  14.309  16.917  0.0183 -0.1557  0.0840
22836W        W38453  15.955  10.611   2.341  0.1028  0.3184 -0.2543
22837W        W38454   6.642   4.379  13.314 -0.1156 -0.3127  0.1305
22838W        W38455   0.184   1.791   6.486 -0.2170 -0.2252 -0.1949
22839W        W38456   5.557   3.400   0.103 -0.1820 -0.0905 -0.1026
22840W        W38457   6.165  10.511  15.321  0.0670  0.1577  0.1939
22841W        W38458   9.272   9.797   3.236 -0.2435 -0.1872 -0.1242
22842W        W38459   6.965  14.599   3.644 -0.0478  0.1359 -0.1424
22843W        W38460   2.334  11.088  12.771  0.1870 -0.0217  0.0002
22844W        W38461   1.735   1.787   0.555 -0.1265  0.0025  0.1877
22845W        W38462  13.459  12.365   1.338 -0.1912  0.0399  0.0296
22846W        W38463   4.520   5.777  16.266 -0.0409  0.0364  0.3923
22847W        W38464   0.452   5.078  16.169 -0.1025 -0.0374 -0.1245
22848W        W38465   6.007  11.864  15.604 -0.0356  0.0876 -0.0569
22849W        W38466   0.506  17.083  15.531  0.1066 -0.0923 -0.1278
22850W        W38467  15.210  10.448   5.939  0.0882 -0.1734 -0.1819
22851W        W38468  14.233   7.001  14.274 -0.1216 -0.4917 -0.1422
22852W        W38469   5.944   9.030   4.757  0.0716  0.5295 -0.0924
22853W        W38470   6.045   5.413  16.941 -0.2326 -0.0573 -0.0169
22854W        W38471  10.559  13.521  14.959 -0.1238 -0.1992 -0.1483
22855W        W38472   5.640   8.129   4.253 -0.0204 -0.3212  0.1324
22856W        W38473   9.657   9.366  13.144  0.2624 -0.1285 -0.3970
22857W        W38474  13.053   1.912  16.002 -0.1739  0.0389  0.2225
22858W        W38475  17.061   6.246  12.212  0.1480 -0.0956 -0.1442
22859W        W38476   9.828   1.619   0.714  0.1965  0.2260  0.2888
22860W        W38477   6.957  10.496  13.765  0.1386  0.0907  0.1085
22861W        W38478  16.337  14.046   2.785  0.0463 -0.1526 -0.0665
22862W        W38479   7.189  14.134   3.675 -0.0241 -0.1895 -0.1275
22863W        W38480  14.368  10.434   0.277 -0.1678 -0.0577  0.0288
22864W        W38481   9.613   6.152  14.626 -0.1403 -0.2672 -0.3075
22865W        W38482  13.566   6.293  12.134 -0.0844  0.2402  0.0237
22866W        W38483  14.230   8.578  12.996 -0.3680  0.0896 -0.0556
22867W        W38484  16.568  14.455   5.418  0.1851  0.0084 -0.0899
22868W        W38485   0.411   7.623   3.823 -0.0644 -0.0138 -0.0521
22869W        W38486  13.433  10.308   1.919 -0.2852  0.3934  0.0190
22870W        W38487   8.823  15.731  13.748  0.0165 -0.1525 -0.1318
22871W        W38488  15.378  14.250   3.323 -0.0013 -0.0360 -0.0399
22872W        W38489  11.081   6.473  13.730 -0.0647  0.1176 -0.1103
22873W        W38490  12.638  16.783  15.059 -0.1596  0.1667  0.0534
22874W        W38491  10.204   2.356   0.328  0.2423  0.0464 -0.2371
22875W        W38492   2.672  12.367   3.686  0.1708  0.1989  0.0776
22876W        W38493   3.429   5.244  12.754  0.0508 -0.2477 -0.2674
22877W        W38494   1.837   5.040   2.238  0.0179 -0.0136  0.1781
22878W        W38495   7.328   7.957   4.501 -0.4945 -0.3409  0.3171
22879W        W38496   7.572  15.703   5.839  0.1812  0.0342 -0.0354
22880W        W38497   5.978   8.894  16.013 -0.0565  0.1775  0.1607
22881W        W38498  15.071   9.689   3.734 -0.1678 -0.0863  0.2578
22882W        W38499   9.500   9.713   0.573  0.1858  0.0822 -0.0228
22883W        W38500  12.140  17.015   1.749  0.1563  0.2975 -0.1983
22884W        W38501  13.338  14.132  15.264  0.0949 -0.0257  0.1456
22885W        W38502   8.522   1.915   1.465  0.2831  0.1361  0.1030
22886W        W38503   4.712  16.709   3.000  0.2089  0.0808 -0.2317
22887W        W38504   6.453   5.571   2.689 -0.1664  0.2242  0.2408
22888W        W38505  11.676   8.765  16.426  0.1035  0.0984 -0.0034
22889W        W38506  12.493   7.067  13.714 -0.0135 -0.0983  0.0803
22890W        W38507   0.089  16.067  12.836  0.2025  0.0268 -0.0767
22891W        W38508   1.518   9.650   5.089 -0.4056  0.0390  0.0959
22892W        W38509   8.716   0.020   2.692 -0.1433  0.0210 -0.0357
22893W        W38510  17.032  15.102   1.818 -0.2008 -0.4113 -0.0807
22894W        W38511  14.150  17.092   4.402  0.0446  0.0677  0.2163
22895W        W38512   1.474   4.198   0.782 -0.2409  0.0651 -0.2027
22896W        W38513   8.041   7.798  12.129  0.0572  0.0935 -0.2035
22897W        W38514   4.247  16.377   4.228  0.0356 -0.0742 -0.1263
22898W        W38515   1.377   0.702   1.606 -0.1967 -0.0501  0.1898
22899W        W38516  14.162  10.085  14.541 -0.4419 -0.1742  0.2421
22900W        W38517   4.646   0.606   1.407 -0.1032 -0.0332 -0.0981
22901W        W38518  14.397  14.552   2.214  0.1269 -0.0720 -0.0859
22902W        W38519   8.299   6.876   2.024  0.3227 -0.0221  0.1351
22903W        W38520   8.568   6.996   5.202 -0.0742 -0.0616  0.1527
22904W        W38521   8.889   0.610   3.667  0.0240 -0.0177  0.1246
22905W        W38522  12.912  13.940  12.060 -0.0076 -0.1575 -0.2319
22906W        W38523  12.777   2.376   0.697 -0.3820 -0.1269  0.4178
22907W        W38524   7.338   5.047   1.923  0.0554 -0.0362  0.2635
22908W        W38525  14.818   1.584  12.806 -0.1046  0.2401  0.1467
22909W        W38526   5.718  13.189  15.428 -0.1335  0.0630 -0.2023
22910W        W38527  13.514   4.340  12.525  0.1467  0.0254 -0.0610
22911W        W38528   6.888  14.080   4.609 -0.1521  0.2341 -0.0131
22912W        W38529  13.359  16.864  11.930  0.1045  0.1269  0.0565
22913W        W38530  13.107  13.386  15.380 -0.0474 -0.1919 -0.0689
22914W        W38531   5.563   3.168  16.056 -0.5696  0.2026 -0.1919
22915W        W38532   3.112  17.553  15.463  0.1640  0.1455 -0.0604
22916W        W38533   9.542  11.944  16.181 -0.0212 -0.0401  0.3659
22917W        W38534   2.801   7.939   5.039 -0.2896 -0.1993  0.0524
22918W        W38535   0.529   9.102   5.597  0.2503  0.4336 -0.0250
22919W        W38536   7.413   6.640   6.037 -0.1318  0.1482  0.2852
22920W        W38537   5.322   0.224   1.993 -0.0288  0.0082  0.4262
22921W        W38538  13.466   7.961   2.491 -0.2035  0.0803 -0.3651
22922W        W38539  13.572   4.553   1.262  0.2549  0.2524 -0.1739
22923W        W38540   2.232  16.665  13.238 -0.4251 -0.2460 -0.0285
22924W        W38541  10.946   2.201   4.903 -0.1291  0.1296 -0.0021
22925W        W38542   7.209  13.437  15.676  0.0108  0.0899  0.0989
22926W        W38543   8.311  11.492   3.878  0.4175  0.1153 -0.0499
22927W        W38544  15.486   1.454  13.610  0.4169  0.2044 -0.2815
22928W        W38545   3.482   9.459  16.984  0.0278  0.0518  0.1068
22929W        W38546  16.683   1.985   5.157  0.2191 -0.3256  0.1366
22930W        W38547   6.996   6.755   4.258  0.3006  0.1057 -0.3262
22931W        W38548  16.559   1.417   3.554  0.0066  0.3154  0.1021
22932W        W38549  11.919   2.287  12.431 -0.0495  0.0705 -0.0477
22933W        W38550   1.994   4.377   1.474 -0.1223 -0.0760  0.0660
22934W        W38551  10.905   4.262  14.077  0.2183  0.1413 -0.2722
22935W        W38552   7.021  17.069   2.053 -0.1132 -0.0222 -0.3743
22936W        W38553  12.115  16.468   5.294 -0.2307 -0.1935  0.2950
22937W        W38554   7.939   5.666   0.896  0.0322  0.4713  0.0534
22938W        W38555  16.391  16.749  14.720  0.1657  0.0671  0.0733
22939W        W38556   1.211   1.199   0.223 -0.2102 -0.0674 -0.1009
22940W        W38557  16.162   9.827  15.762 -0.0511  0.1028  0.0268
22941W        W38558   3.928   4.960   4.945 -0.3897  0.0274 -0.0749
22942W        W38559   4.194  13.084   5.050  0.1066  0.0792  0.0191
22943W        W38560   9.349  10.529   1.722 -0.1223  0.0058 -0.0775
22944W        W38561  10.571   4.495  16.867  0.1767  0.0301  0.0669
22945W        W38562   7.316   6.924  13.347  0.1110  0.0394  0.1367
22946W        W38563   2.437  16.766   4.295  0.0604 -0.3092  0.0839
22947W        W38564  16.300  15.648  14.854 -0.0139  0.0517  0.2265
22948W        W38565  14.328  15.071  15.249  0.2582 -0.2414  0.2487
22949W        W38566   0.126   9.777  12.326  0.0553  0.2610 -0.2449
22950W        W38567  14.494   4.037   4.255 -0.1055  0.1884  0.0401
22951W        W38568   4.183  13.042   4.516 -0.1626  0.3365  0.0563
22952W        W38569   2.697  10.991  13.991  0.0958 -0.1690  0.1095
22953W        W38570   6.355   3.386  13.088 -0.1764  0.0264  0.0499
22954W        W38571   6.071   3.521   4.481  0.1282 -0.0536 -0.1176
22955W        W38572   4.279  17.463  15.948 -0.0927  0.3750 -0.1741
22956W        W38573   3.588   8.146  12.480 -0.0673 -0.7088  0.2328
22957W        W38574  15.832  14.478   3.416 -0.0294 -0.0189 -0.1888
22958W        W38575   3.096  15.598   4.250  0.0143  0.2119 -0.2926
22959W        W38576  15.285  14.373  15.388  0.1058  0.0571  0.3101
22960W        W38577  12.620   9.103   5.432  0.0433 -0.1959 -0.1115
22961W        W38578   0.859   8.577   2.108  0.0207 -0.1063 -0.4214
22962W        W38579  12.359   8.035  14.286  0.2732 -0.0345  0.1587
22963W        W38580   5.927  14.017  14.976 -0.1838  0.0207 -0.0328
22964W        W38581   1.606   9.081   5.163  0.1253 -0.0123  0.1299
22965W        W38582  14.499   1.938  10.738 -0.2812 -0.1408  0.3848
22966W        W38583  14.477   1.744  14.666  0.0271  0.0610 -0.2022
22967W        W38584  10.308   8.355   1.473 -0.0144 -0.1161 -0.0885
22968W        W38585   7.801  10.484  13.594 -0.1617  0.0465 -0.0272
22969W        W38586  11.696   3.703  14.817  0.1161 -0.3304  0.4021
22970W        W38587  15.945  13.573   0.504  0.0828  0.2961  0.1642
22971W        W38588   3.000   7.332   2.337  0.0239  0.1246 -0.0443
22972W        W38589   1.555   0.449   0.873 -0.1236 -0.3084  0.2330
22973W        W38590   4.225  10.448  12.809  0.0419 -0.0384  0.3415
22974W        W38591   3.951   3.213   0.262 -0.1399  0.1421  0.1507
22975W        W38592   3.322   6.328  16.385 -0.1372 -0.0194  0.2098
22976W        W38593   7.861  12.583  16.909  0.1446  0.0309  0.0226
22977W        W38594  16.135   1.235   3.363  0.0158 -0.0994 -0.2387
22978W        W38595   9.411   0.370   1.412  0.0169  0.1979  0.3027
22979W        W38596   7.684  11.167  15.525 -0.2127  0.2511 -0.1288
22980W        W38597   4.345  13.924   5.556  0.2035 -0.0781 -0.1078
22981W        W38598  16.999  15.515   5.584 -0.0666  0.1648 -0.1735
22982W        W38599   5.987  13.929   4.476 -0.1962 -0.3249 -0.2208
22983W        W38600  16.131   3.419  14.123  0.0380  0.1688  0.0273
22984W        W38601   4.304  12.062  15.909  0.1011 -0.1065 -0.2399
22985W        W38602  16.139   9.073  13.894  0.2543 -0.0289  0.0933
22986W        W38603   8.991  17.122  12.571  0.0608  0.0859 -0.3156
22987W        W38604  15.831   8.311  14.436 -0.2456  0.0323 -0.0190
22988W        W38605   1.110   1.588  13.206  0.0115 -0.0529  0.0601
22989W        W38606   3.970  12.085   3.936 -0.0685 -0.4019 -0.3141
22990W        W38607  17.293  13.010   1.611 -0.0344 -0.1099  0.2957
22991W        W38608   5.995   5.416   4.063 -0.2512 -0.2699 -0.1813
22992W        W38609   7.062  10.030  10.999 -0.1081 -0.1745 -0.0382
22993W        W38610   3.125   2.538   2.301  0.1787 -0.1994 -0.2486
22994W        W38611   7.251  15.248   5.094  0.3565 -0.4335 -0.0118
22995W        W38612   4.557  10.917  14.221 -0.2531  0.0935 -0.0133
22996W        W38613  16.380   6.716   1.447  0.0354 -0.0284  0.0550
22997W        W38614   3.207   4.801  12.132 -0.2002  0.0846  0.0208
22998W        W38615   2.683   0.097   4.305 -0.3491 -0.0535  0.1687
22999W        W38616   5.165   2.693  16.895  0.1385  0.3164  0.0515
23000W        W38617  16.023  14.115   0.622  0.2082 -0.0882 -0.0123
23001W        W38618  10.726  15.443  13.865  0.0901  0.2346 -0.3537
23002W        W38619  13.497   4.046   4.894  0.0358  0.0899  0.0376
23003W        W38620   1.212   8.717  12.134  0.0259  0.1881  0.4348
23004W        W38621  10.098   4.042  13.016 -0.0633  0.0065  0.1011
23005W        W38622  14.294   2.031  16.721  0.2509  0.0245 -0.0465
23006W        W38623  14.877   4.254  16.740  0.0716  0.0292 -0.0489
23007W        W38624   1.363   0.376   4.185  0.2102 -0.0818 -0.1714
23008W        W38625   5.037  13.131   1.699 -0.0808  0.1232 -0.0300
23009W        W38626   2.361  17.229  15.864 -0.2085  0.0428  0.1021
23010W        W38627   9.939   4.459  12.381 -0.2838 -0.3702  0.1843
23011W        W38628   1.284   6.122  12.721  0.0405  0.0191 -0.2922
23012W        W38629  11.072   2.862   2.423 -0.2242 -0.1288  0.0830
23013W        W38630   3.017  11.832  15.217  0.2049  0.0984 -0.2544
23014W        W38631   7.548   4.604   2.188  0.0937 -0.2384 -0.2013
23015W        W38632   8.411   0.572   3.487 -0.0219  0.1246 -0.1505
23016W        W38633  16.235  15.000  13.227 -0.1981  0.1755 -0.3534
23017W        W38634  16.101  13.993   4.732 -0.2062 -0.0634 -0.1451
23018W        W38635  10.839  13.968  14.213 -0.0676  0.2078  0.0760
23019W        W38636   0.950   1.690   4.768 -0.2162 -0.0409 -0.0021
23020W        W38637   2.222  12.528  15.756  0.2126 -0.1344  0.0213
23021W        W38638   6.322  10.952   6.164 -0.0674  0.1404 -0.1048
23022W        W38639   3.905  10.297  13.182  0.0645 -0.3657  0.3044
23023W        W38640   6.598   5.207  14.613  0.1001  0.2423 -0.0541
23024W        W38641   6.903   1.854   5.138 -0.0920 -0.1077  0.1221
23025W        W38642  12.484   3.344  15.539 -0.0291  0.6047  0.0046
23026W        W38643   2.578   2.045   1.110  0.1846 -0.0932  0.0413
23027W        W38644  16.785   0.401  15.586  0.0666 -0.2493  0.0859
23028W        W38645  15.885  11.472  15.065 -0.1099 -0.2102  0.2956
23029W        W38646  12.460   2.149   0.383 -0.1082  0.0508  0.3923
23030W        W38647   2.735   1.223   3.206  0.1504  0.0005  0.0968
23031W        W38648   0.779  13.922   4.530 -0.0924 -0.0565 -0.0099
23032W        W38649  13.094  17.393   5.164 -0.4985 -0.0580 -0.2188
23033W        W38650   5.785  14.484   0.530  0.2354  0.1077 -0.1920
23034W        W38651  10.679   7.120  15.681 -0.0615 -0.0984 -0.0509
23035W        W38652  15.133   0.772  12.874  0.1254  0.2464 -0.2831
23036W        W38653   6.134  14.075  11.199  0.0184  0.0698 -0.0753
23037W        W38654  12.296  17.466   3.734 -0.1812 -0.0029 -0.2462
23038W        W38655   9.574   1.729   1.910 -0.1756  0.2748  0.2597
23039W        W38656  15.974   4.370   3.750 -0.0036  0.0527  0.1677
23040W        W38657   2.825   3.578  15.532  0.1327 -0.2780 -0.1766
23041W        W38658  10.099   1.169  16.845  0.0241  0.1212  0.3352
23042W        W38659   6.254   7.919  13.332  0.3038  0.4721  0.0893
23043W        W38660   3.669  15.727   2.858  0.2259 -0.0762 -0.1179
23044W        W38661   4.952   3.811   4.946 -0.1536 -0.0417  0.4198
23045W        W38662  12.749   4.824  13.028 -0.2103  0.0493 -0.2023
23046W        W38663   3.683  12.202   5.539  0.1040  0.1493  0.3742
23047W        W38664   0.225   4.893   3.922 -0.1548  0.0680 -0.0681
23048W        W38665   1.050   2.041  14.709 -0.0248 -0.0167 -0.0872
23049W        W38666   4.707   1.236   3.896 -0.0349 -0.0502 -0.0635
23050W        W38667   1.168  10.988   1.249  0.0415  0.0275 -0.0884
23051W        W38668   4.387   2.846   4.172  0.0364  0.1779  0.0123
23052W        W38669   2.833  11.448   5.745 -0.2862  0.0533 -0.0533
23053W        W38670   2.863  14.912   5.957  0.2382 -0.1970 -0.2589
23054W        W38671   9.587  13.797  14.709 -0.0644  0.0540 -0.0774
23055W        W38672  10.083   3.269  14.764  0.4190 -0.2547 -0.0015
23056W        W38673   8.913   8.845   1.858 -0.0433 -0.0694 -0.0597
23057W        W38674   9.518  17.027   0.965 -0.0805 -0.2001  0.0001
23058W        W38675   0.560   7.879  13.784 -0.3725 -0.1729 -0.0505
23059W        W38676  17.034   7.241  13.042 -0.0200  0.3096 -0.0755
23060W        W38677  16.460   8.360  17.256  0.0967 -0.0843  0.1086
23061W        W38678   2.417  14.748  14.176 -0.0905 -0.2907  0.2216
23062W        W38679   2.398   9.459   5.713 -0.2810  0.2291  0.1258
23063W        W38680  14.637   1.092   0.395  0.2853 -0.0827  0.3635
23064W        W38681  16.367   8.963   1.906  0.2187 -0.0984 -0.0265
23065W        W38682   3.519  10.477   6.132 -0.0236 -0.2548  0.0371
23066W        W38683  15.679  14.005  15.323  0.1425  0.0937 -0.1609
23067W        W38684  13.630   9.167   1.386 -0.1509  0.2072 -0.2268
23068W        W38685  13.734  11.084   0.794 -0.0502  0.1171 -0.0167
23069W        W38686  14.249   4.758  14.469  0.0514 -0.0139  0.2353
23070W        W38687   3.067  17.303  14.859 -0.0990  0.0758  0.1666
23071W        W38688  16.904   4.822  15.896  0.0226 -0.1040 -0.0207
23072W        W38689  16.962   4.007  13.773 -0.0840 -0.2867  0.2235
23073W        W38690   3.364  14.842   1.380  0.4789  0.1217 -0.0146
23074W        W38691   4.150  12.022   3.221 -0.1362 -0.1838 -0.0102
23075W        W38692  10.666  11.912  13.545 -0.2763 -0.1792  0.1534
23076W        W38693   7.569   7.484   0.045 -0.1345  0.0426 -0.3819
23077W        W38694   8.492  17.069   5.131 -0.2274  0.1235 -0.0053
23078W        W38695   3.866   6.205  14.368 -0.0943 -0.2439  0.0351
23079W        W38696   3.187   7.794   6.065  0.0334 -0.1360  0.0492
23080W        W38697   6.876   8.520   3.408  0.0452 -0.1352  0.3022
23081W        W38698  12.270   8.260   2.349  0.0789  0.0924  0.3013
23082W        W38699   2.709  13.674  16.064 -0.1134  0.0868  0.1474
23083W        W38700  10.572  10.267   2.165  0.0117 -0.3163  0.2888
23084W        W38701   2.960   4.047   5.118 -0.0023  0.1861  0.0374
23085W        W38702   2.940  14.029  17.173 -0.1172  0.2820 -0.2971
23086W        W38703  15.816   8.083  16.584 -0.2270  0.1127  0.4468
23087W        W38704   1.975  12.324  17.149 -0.0080  0.1771 -0.2151
23088W        W38705   1.055   4.675  15.020  0.0529 -0.2289 -0.1616
23089W        W38706  11.357  14.187  12.188  0.1076 -0.2001  0.2187
23090W        W38707   1.841  16.188  15.477 -0.0317  0.0649  0.0777
23091W        W38708   6.806   3.553   4.183 -0.0809  0.0562 -0.0280
23092W        W38709  10.638   0.659  11.377 -0.0022  0.2260 -0.2016
23093W        W38710  17.201  12.208   2.405  0.0063  0.2750  0.2671
23094W        W38711  15.695   1.101  13.171  0.5036  0.3470 -0.0352
23095W        W38712   7.835   6.911  11.901 -0.0937  0.2342 -0.1470
23096W        W38713   8.234  10.426   4.653 -0.0726 -0.0408 -0.2430
23097W        W38714   0.013   5.435  14.611  0.2251  0.2983  0.1457
23098W        W38715   6.004   2.955   4.940  0.1539 -0.0791  0.0346
23099W        W38716   0.940   1.946   3.420  0.3184  0.2315 -0.0939
23100W        W38717  11.179   6.747  10.687 -0.1773  0.0359  0.0365
23101W        W38718   1.976  10.954   5.484  0.0822 -0.1829  0.3892
23102W        W38719  17.505   7.974   0.140  0.2157 -0.2098 -0.2117
23103W        W38720   5.551  11.289  14.426 -0.0668  0.2236  0.3743
23104W        W38721  10.353  12.475   0.416  0.2562  0.1473  0.1625
23105W        W38722  11.600   2.772   5.094  0.1601 -0.1032 -0.0662
23106W        W38723  12.103   8.433  16.677  0.1939  0.2671 -0.1300
23107W        W38724   8.948   5.485  12.238  0.4405  0.1712  0.1005
23108W        W38725  13.793   3.426   5.469  0.3583  0.0227  0.1739
23109W        W38726   1.164  17.230  14.718  0.3638 -0.1637 -0.2889
23110W        W38727   9.671   4.803  14.879  0.3855 -0.0958  0.0725
23111W        W38728  16.414  12.233   3.950  0.1846 -0.2249 -0.0414
23112W        W38729   8.472   7.981   0.179  0.1264  0.1827 -0.0744
23113W        W38730   8.520  15.223  13.779 -0.3320  0.0214  0.0586
23114W        W38731  15.615  12.743   3.697 -0.1189  0.0683 -0.0899
23115W        W38732   5.274   2.329   2.956  0.2555  0.2451  0.2912
23116W        W38733   5.390  15.196   4.683 -0.0143 -0.0349 -0.1831
23117W        W38734  16.280  11.387   2.741 -0.0147 -0.1206 -0.2268
23118W        W38735   6.916   4.366  16.554 -0.3413  0.0234  0.1091
23119W        W38736  14.771   8.148   1.146  0.1681 -0.1692  0.2199
23120W        W38737   5.063   5.549   2.521 -0.0068  0.1788 -0.1321
23121W        W38738   5.282  16.991   3.020  0.1820  0.3276  0.1318
23122W        W38739   0.027   5.433   1.521  0.0804  0.1654  0.1509
23123W        W38740   0.786  15.131  16.547 -0.0688 -0.2536  0.0865
23124W        W38741   8.093   3.664  17.089 -0.2192 -0.0116  0.2088
23125W        W38742   9.383   3.105   3.649  0.0354  0.1539  0.0099
23126W        W38743   6.813  16.658  16.766  0.3911  0.1717  0.2415
23127W        W38744   3.276  10.714   3.958  0.3167  0.2391  0.2233
23128W        W38745  14.702   2.776   5.345  0.0026 -0.0640 -0.1312
23129W        W38746  11.492  14.111  16.663  0.1426 -0.2069  0.0229
23130W        W38747   4.697   2.802   4.549 -0.4281 -0.1978 -0.2256
23131W        W38748   3.595  15.915   0.491  0.1324 -0.2655  0.0126
23132W        W38749   4.581  17.547  13.078  0.1062  0.2718  0.1743
23133W        W38750  10.061   4.258   0.803 -0.1531 -0.1716  0.0536
23134W        W38751   4.951   3.314  13.673  0.3547 -0.1570 -0.0968
23135W        W38752   1.552  10.305   0.525  0.3324  0.0264 -0.0319
23136W        W38753  14.609   8.445   2.025  0.0142  0.0506  0.1124
23137W        W38754  14.781   1.871   1.891  0.2112 -0.0115 -0.0856
23138W        W38755   5.430   4.947   2.093 -0.2598 -0.0449 -0.1448
23139W        W38756   3.334   3.685   5.194 -0.0407  0.1323 -0.1225
23140W        W38757  15.515   0.882   4.613 -0.0802 -0.2300 -0.0187
23141W        W38758   1.753  15.502  16.548 -0.2130 -0.0490  0.4657
23142W        W38759  12.738  10.170   1.300  0.0721 -0.2866 -0.1078
23143W        W38760   5.294   9.000  17.107 -0.1853  0.0002  0.0283
23144W        W38761  10.919  15.391   0.111 -0.1204  0.0781 -0.2567
23145W        W38762   0.490   1.373  14.149 -0.0640 -0.0442  0.2103
23146W        W38763  15.038   3.455  16.166  0.1055  0.1117  0.0156
23147W        W38764  14.860  12.558  12.993 -0.0307 -0.3956 -0.1982
23148W        W38765  10.141   1.788   4.976  0.1907  0.0833 -0.1307
23149W        W38766  10.687   8.387   2.543  0.1754  0.1646  0.1007
23150W        W38767  17.385   4.679  14.621 -0.0493  0.3417  0.0954
23151W        W38768   1.205   3.361   3.903  0.1198  0.4185 -0.2359
23152W        W38769  10.996   5.035   5.617 -0.1551  0.1024  0.1344
23153W        W38770  15.991  17.194   1.875  0.0272 -0.0304 -0.0569
23154W        W38771   0.948  10.557   2.157 -0.0570  0.1190 -0.1920
23155W        W38772  10.849  17.453   6.217 -0.1655  0.4083  0.2097
23156W        W38773   7.702   9.350   4.524 -0.1365  0.4317  0.1514
23157W        W38774  13.297   7.837   6.148  0.3994 -0.1017 -0.0744
23158W        W38775   3.645  17.532   2.318 -0.0199  0.0617  0.0682
23159W        W38776  13.622  16.078   5.347 -0.1191  0.1513  0.1315
23160W        W38777  10.562   2.805   1.089  0.0820 -0.1414 -0.2150
23161W        W38778   9.930   0.037  15.842  0.0292  0.0527 -0.0295
23162W        W38779   7.683   5.382  11.511  0.2232  0.1995  0.3618
23163W        W38780   0.673   6.844   1.928 -0.1011 -0.1919 -0.0521
23164W        W38781   6.421  15.214  12.133  0.0161  0.0733  0.4874
23165W        W38782   9.890  17.019  13.730  0.1415 -0.0299 -0.1235
23166W        W38783   6.299  10.262   4.651  0.1072  0.0082 -0.2571
23167W        W38784   8.993   5.847   3.276 -0.0856  0.1099 -0.0379
23168W        W38785   1.553   0.869   2.429 -0.2062 -0.0360 -0.2643
23169W        W38786   9.176   7.368   0.064 -0.0845 -0.1564 -0.1546
23170W        W38787  16.686  12.406   0.822 -0.0299  0.1794 -0.1117
23171W        W38788   4.793   6.442   0.414  0.1690 -0.1823  0.1204
23172W        W38789   3.940   5.443  17.017 -0.3960 -0.0756 -0.4968
23173W        W38790   2.342   9.498   4.724 -0.1362 -0.2697 -0.1091
23174W        W38791  10.627   4.685   0.008 -0.1434  0.1149 -0.2567
23175W        W38792  13.243   7.058  15.031  0.0900  0.1844 -0.3168
23176W        W38793  13.226   4.497   0.883  0.2658  0.2771 -0.1661
23177W        W38794   4.092  12.786  14.586  0.2259 -0.0449  0.1268
23178W        W38795   7.459   9.404   2.113  0.1093 -0.1321 -0.0407
23179W        W38796   9.008   9.888   2.520  0.0768  0.0931  0.2164
23180W        W38797   0.717   1.465   3.628 -0.1452  0.1685  0.2828
23181W        W38798   6.262   4.164   3.674  0.0175 -0.2340  0.1108
23182W        W38799  16.016   5.425  16.670  0.0033  0.3014 -0.2706
23183W        W38800  15.964  13.683  11.895 -0.2045 -0.0918 -0.0050
23184W        W38801   7.795  16.154   3.249 -0.0746 -0.2053 -0.0469
23185W        W38802   8.922   0.321  12.255 -0.2726 -0.0180 -0.0455
23186W        W38803  15.156  13.900  13.447  0.1024  0.2518 -0.1114
23187W        W38804   7.050  17.070  13.619  0.0954  0.2295 -0.0208
23188W        W38805   8.773   6.235   4.089  0.2464 -0.2327 -0.4239
23189W        W38806   5.944  13.078  12.802  0.0504  0.2957  0.2042
23190W        W38807   5.878   9.126   2.179 -0.0403  0.0944 -0.1495
23191W        W38808   7.119  11.623  14.628 -0.0647  0.3220  0.2201
23192W        W38809  16.382   5.674  13.294 -0.2545  0.4181 -0.0220
23193W        W38810   0.350   9.039  15.278  0.0252 -0.0096  0.1685
23194W        W38811  12.355   0.857   4.705  0.0502  0.0448  0.0833
23195W        W38812   4.241  12.859   3.039  0.1663  0.0007  0.0550
23196W        W38813   8.311  16.605  16.689  0.2322  0.3312 -0.0122
23197W        W38814   4.463   8.676  14.677 -0.0747 -0.1497 -0.1235
23198W        W38815   1.055   7.172  16.047 -0.1587 -0.0539  0.1353
23199W        W38816   0.659   9.124   2.695  0.0823  0.1135 -0.2409
23200W        W38817   5.050   5.171   2.844 -0.1515  0.2439 -0.1006
23201W        W38818  10.154  13.000   2.762  0.3878  0.0267  0.0557
23202W        W38819  12.434  10.508  13.147  0.2065  0.0943 -0.0665
23203W        W38820   8.768   6.861   5.677 -0.0562  0.0904 -0.2289
23204W        W38821   8.445  12.815  14.194  0.0718  0.0548  0.0302
23205W        W38822  10.920  15.950   1.529 -0.0428  0.3940 -0.0957
23206W        W38823   5.876  11.792  12.433 -0.2052 -0.0734 -0.1737
23207W        W38824  11.239  11.169  15.420  0.1855 -0.1988  0.2138
23208W        W38825   9.629  15.723   1.843  0.1544 -0.2283  0.1292
23209W        W38826   6.086  17.246   1.530 -0.2642 -0.2912  0.0362
23210W        W38827  12.429   1.936  15.676 -0.0997 -0.0380  0.0515
23211W        W38828   5.461   0.060  12.296  0.4073  0.1906  0.4072
23212W        W38829  17.519  14.879  16.769  0.1626  0.2002  0.1204
23213W        W38830   8.129  12.843   0.561  0.3082  0.1318  0.0223
23214W        W38831   0.270   6.935   2.752  0.2207 -0.0637  0.0067
23215W        W38832   3.182  15.467  12.335  0.3464  0.1460  0.1085
23216W        W38833   9.041  15.543  16.047 -0.2558  0.4249  0.2401
23217W        W38834   1.737  15.156  15.785  0.0219  0.3124 -0.1134
23218W        W38835   1.491  16.233   6.784  0.2820  0.2018  0.2256
23219W        W38836  16.995  10.581   0.657 -0.0229 -0.2228 -0.0297
23220W        W38837   1.668   8.818   5.635  0.2428 -0.0569  0.0145
23221W        W38838  17.270  12.550   3.545 -0.1088  0.2023  0.1597
23222W        W38839  17.565  12.358  12.158 -0.2800  0.1480 -0.0077
23223W        W38840   9.753  15.876  13.835 -0.2301  0.1678 -0.1270
23224W        W38841   5.836   8.506   2.291  0.2366 -0.1172 -0.0339
23225W        W38842  10.259   2.805   5.294  0.1273 -0.1510  0.1184
23226W        W38843   5.542  12.692  15.246 -0.2561  0.2988  0.0803
23227W        W38844   3.041   9.997   1.904 -0.1486 -0.2259  0.2347
23228W        W38845  16.473   3.895   2.851 -0.0923  0.2946 -0.0413
23229W        W38846   3.159   7.479  12.832  0.0801 -0.2242  0.1392
23230W        W38847   7.440  13.740  14.383  0.1200 -0.0834 -0.0794
23231W        W38848  12.817   8.334   4.931  0.0752 -0.2131  0.1469
23232W        W38849   9.907  10.838   2.450 -0.3560  0.2311  0.0385
23233W        W38850   1.316   3.917  15.415 -0.1311 -0.1585 -0.1009
23234W        W38851  15.824  14.241  12.528 -0.1092  0.1602 -0.0858
23235W        W38852   3.812   9.550   0.491  0.1328  0.2956  0.4176
23236W        W38853   8.049   6.025   1.485  0.1927 -0.2847  0.1460
23237W        W38854   1.156  15.031   5.869 -0.1979  0.1513 -0.5968
23238W        W38855   5.776   4.182   5.216 -0.3948  0.4474  0.5306
23239W        W38856  17.103   9.740   4.434 -0.0382 -0.0699 -0.2345
23240W        W38857   6.463   7.162   0.665  0.3681  0.1436  0.5270
23241W        W38858   3.134   5.322   0.761  0.0549  0.2372 -0.0359
23242W        W38859   0.497   3.199   3.625 -0.0361 -0.0936  0.1687
23243W        W38860   1.513   1.307  13.156 -0.2332  0.1965 -0.0611
23244W        W38861  12.184  10.076   6.152 -0.0278 -0.2606 -0.0149
23245W        W38862   8.406   3.818  16.743  0.1108 -0.0169  0.4236
23246W        W38863  11.167   7.291  14.422 -0.0026 -0.2323 -0.1573
23247W        W38864  13.411  11.509   1.435 -0.0476  0.1672  0.2087
23248W        W38865   5.916  15.454   5.962 -0.2332  0.0629  0.1927
23249W        W38866   3.036  14.814   0.860 -0.0273 -0.0276 -0.2057
23250W        W38867   2.898   8.225   3.388  0.0059  0.0387 -0.0355
23251W        W38868   0.721   8.648   3.080 -0.2624  0.1562  0.1497
23252W        W38869   0.470   3.785  16.071  0.0607 -0.1105 -0.2756
23253W        W38870   5.816  11.208   2.916  0.0070  0.0446 -0.2904
23254W        W38871   1.306  14.354  15.615 -0.1125  0.3883  0.2579
23255W        W38872  12.777  15.172  14.885 -0.1806  0.1873 -0.1299
23256W        W38873   3.780   9.855   0.071 -0.3732 -0.0434 -0.1944
23257W        W38874   3.274  16.756   2.242 -0.0893  0.0207 -0.1531
23258W        W38875   7.132  15.779   3.718 -0.2944  0.2288 -0.0157
23259W        W38876   2.095   7.898  16.389 -0.0540  0.1497  0.0150
23260W        W38877   6.524  14.722   4.435  0.0597  0.2324  0.2634
23261W        W38878  17.494   2.164   6.377  0.0671 -0.0923  0.1926
23262W        W38879  16.240  16.122  12.662 -0.3062 -0.1206  0.0246
23263W        W38880   8.941   1.576   3.842  0.0492 -0.0339 -0.0147
23264W        W38881   5.685   4.907  13.870  0.0014  0.0270  0.2046
23265W        W38882  10.449  17.082  11.561 -0.1212  0.0467  0.4217
23266W        W38883  11.351   8.832  15.216  0.2971  0.0550  0.1028
23267W        W38884  16.312  14.103   5.196  0.0455 -0.2841 -0.1606
23268W        W38885   8.738   5.387   4.634  0.0609  0.0339  0.1812
23269W        W38886  16.919   7.109   2.516 -0.1802 -0.1487  0.0270
23270W        W38887  11.813   3.378  12.431  0.1491  0.3055 -0.0666
23271W        W38888  16.859   0.482   5.325 -0.0002 -0.0615 -0.1668
23272W        W38889   8.896   8.808  13.413 -0.3237 -0.0707 -0.1323
23273W        W38890  13.128   6.225  12.278 -0.0600 -0.1560 -0.1032
23274W        W38891  17.460   4.347   0.883  0.1800  0.1331 -0.0697
23275W        W38892   1.756   6.835   4.852  0.0072  0.1778  0.3695
23276W        W38893   3.703   0.912   2.527  0.2785  0.1189  0.0765
23277W        W38894   3.446  15.235   4.284  0.1253  0.0557  0.2009
23278W        W38895  10.731   5.661   2.173 -0.0818  0.0256 -0.0506
23279W        W38896   1.036  17.393   5.253 -0.0917 -0.0333  0.0604
23280W        W38897   8.543   1.834   5.357 -0.2410  0.0370 -0.1486
23281W        W38898   9.289  16.857  16.165  0.0299 -0.0157 -0.1765
23282W        W38899   6.876  17.570  16.028  0.2638 -0.0670 -0.1536
23283W        W38900  10.289  10.204   6.199 -0.2751  0.2957 -0.0872
23284W        W38901  13.125  13.801  15.619  0.3865 -0.2038 -0.0430
23285W        W38902   6.966   6.466  15.486  0.2756  0.4489  0.0919
23286W        W38903   8.896   7.165  12.294  0.0833  0.0195  0.1825
23287W        W38904   1.976  12.380   5.848 -0.2899  0.1744  0.2850
23288W        W38905   6.226   5.563   0.537 -0.0397  0.0333 -0.0644
23289W        W38906  13.798  10.621   3.610 -0.0662 -0.0968 -0.1130
23290W        W38907  17.329  15.441   6.004 -0.0149  0.0845 -0.0769
23291W        W38908  17.192  11.053   4.981  0.0692  0.2566  0.0309
23292W        W38909  15.499   8.382  15.418  0.0007  0.0276 -0.4739
23293W        W38910  15.717   5.603   2.653  0.1109  0.0288 -0.1393
23294W        W38911   8.977   8.852   5.918 -0.0386  0.1120 -0.1074
23295W        W38912  14.743   9.034   0.643 -0.0442 -0.0590 -0.2316
23296W        W38913  10.648   2.573   2.386  0.2982  0.1664 -0.0627
23297W        W38914   0.060  11.586  17.197  0.1702  0.0299  0.1347
23298W        W38915   5.748  14.813   2.351 -0.0918  0.5235 -0.0309
23299W        W38916   8.408   2.811  11.650  0.0174 -0.0162  0.0121
23300W        W38917   5.233   6.052   5.834 -0.0236 -0.1823 -0.1830
23301W        W38918   7.533   7.569   4.289  0.0332 -0.2796  0.0871
23302W        W38919   1.321  12.109  15.380  0.0014 -0.1295 -0.1599
23303W        W38920   8.494   6.119   4.981  0.2225 -0.1225  0.1372
23304W        W38921  13.805   7.285   3.565 -0.1348  0.0597  0.2996
23305W        W38922   7.386   1.342   3.956 -0.2448 -0.0321 -0.2318
23306W        W38923   5.638   6.756  14.385 -0.2053  0.1554 -0.0136
23307W        W38924  17.397  15.418   3.249  0.2280 -0.1356 -0.0959
23308W        W38925  15.593   8.214   5.368  0.0545  0.0034 -0.1124
23309W        W38926   2.538  17.559  13.556  0.0012 -0.0419 -0.0243
23310W        W38927   7.398   7.185   3.222  0.0314  0.2000  0.1055
23311W        W38928   9.091  11.521   4.221 -0.1563  0.2856 -0.0967
23312W        W38929   1.810   8.188  15.413  0.1425  0.0507 -0.2146
23313W        W38930   9.931  15.554  15.186 -0.0440  0.0851 -0.0021
23314W        W38931  12.581  11.050  14.952  0.0412 -0.1755  0.1606
23315W        W38932   6.406   0.732  14.020  0.0950  0.0839 -0.1364
23316W        W38933  12.610  15.944  11.242 -0.1870 -0.2149  0.1443
23317W        W38934   3.023  16.086   5.356  0.0485  0.0178 -0.2894
23318W        W38935   0.946   7.723   1.644 -0.1756 -0.1593 -0.2118
23319W        W38936  12.458  14.087   5.441 -0.0809  0.2299  0.2763
23320W        W38937  16.766  10.433  14.255 -0.3190  0.0916 -0.4041
23321W        W38938  16.161  11.801   4.948  0.2571  0.4567  0.1179
23322W        W38939   5.034   1.397  15.896 -0.3310  0.0530  0.0787
23323W        W38940   1.712  11.839   4.240  0.0082  0.0148 -0.1286
23324W        W38941  12.640   0.653   1.691  0.1352 -0.0795 -0.0075
23325W        W38942   5.032   2.806  13.957 -0.0546  0.0366 -0.0179
23326W        W38943  10.799   8.589   6.396 -0.0286  0.1065  0.1867
23327W        W38944   4.676   6.607  13.195  0.0705  0.1044  0.1282
23328W        W38945   7.797   7.867   0.571  0.0420  0.2929  0.0480
23329W        W38946  10.762   1.024   1.608 -0.0245  0.1762 -0.0274
23330W        W38947  15.586  16.363  14.882  0.1292 -0.2239  0.0003
23331W        W38948   1.132  14.483   1.372 -0.3131 -0.3015  0.2110
23332W        W38949  12.434  15.702   3.738 -0.3622  0.2024  0.1448
23333W        W38950   0.436   2.675   6.096  0.2315  0.0387 -0.1630
23334W        W38951   7.031   7.204   1.868 -0.2473  0.1017  0.4451
23335W        W38952   9.840   6.894   0.070 -0.0108 -0.1227  0.3242
23336W        W38953   4.710   2.573   5.030 -0.0314  0.1512 -0.3608
23337W        W38954  14.882  14.571  14.165 -0.1365 -0.0388  0.0645
23338W        W38955  13.830  17.588   3.068 -0.1256  0.0974  0.1815
23339W        W38956  11.991   9.753  16.547 -0.1166  0.0530 -0.0003
23340W        W38957  16.744  11.632   2.785 -0.0586  0.2332 -0.1224
23341W        W38958  15.709   0.042  14.516  0.0486 -0.0311 -0.0832
23342W        W38959   6.767   0.779   0.614  0.0094 -0.2257 -0.1433
23343W        W38960  11.158   8.841   0.792 -0.1204 -0.1624 -0.3059
23344W        W38961   4.753  11.604  14.648  0.1357  0.2457 -0.0130
23345W        W38962  16.021  10.413  16.090 -0.0189 -0.0158  0.0637
23346W        W38963  16.897   5.277   3.052 -0.0774  0.1257 -0.1836
23347W        W38964  12.686   3.034  13.113  0.5852 -0.3569 -0.0415
23348W        W38965   6.025   1.331   0.321 -0.1350 -0.2911  0.1637
23349W        W38966   5.056  10.102  14.570 -0.1856  0.0545  0.0316
23350W        W38967   9.777  16.771  15.987  0.0234  0.0449 -0.2195
23351W        W38968  17.539   0.776  12.124 -0.0583 -0.1359 -0.3168
23352W        W38969  16.491   9.947  14.244  0.2000 -0.0460 -0.3549
23353W        W38970   0.044   5.975   4.213  0.1310 -0.3502  0.1390
23354W        W38971  14.624  12.222  16.030 -0.0146 -0.0649 -0.0372
23355W        W38972   1.014   8.964   3.878  0.1226 -0.2033 -0.2168
23356W        W38973   1.454  14.830  14.324  0.1446  0.0489  0.1036
23357W        W38974   4.503   6.991  12.918  0.2389  0.2728  0.0389
23358W        W38975   9.280  12.303  12.240 -0.1076  0.1052 -0.3986
23359W        W38976  16.666  11.608  13.049 -0.3170 -0.2253  0.0226
23360W        W38977  15.089  16.128  16.998 -0.0596 -0.0095  0.1991
23361W        W38978   2.285   6.110   3.389  0.2347 -0.0353 -0.0195
23362W        W38979   1.326   1.633   5.131  0.0310  0.0119 -0.0951
23363W        W38980   2.918   5.753   0.849  0.0110 -0.1388  0.3932
23364W        W38981   6.743  14.697  14.605 -0.2684 -0.2567 -0.1394
23365W        W38982  10.029  12.345  16.746  0.2828 -0.0214  0.1625
23366W        W38983   8.225  11.698  12.485  0.2652  0.0723 -0.3260
23367W        W38984   9.397  10.729   4.125 -0.0797  0.0536  0.0007
23368W        W38985   7.729  14.953   1.390 -0.3773 -0.1212 -0.4137
23369W        W38986  15.114   7.829   0.969  0.1296 -0.1561 -0.2754
23370W        W38987  15.706   3.140  13.166 -0.1453 -0.2745  0.1666
23371W        W38988   6.765   1.785  13.981 -0.1362 -0.1023 -0.0326
23372W        W38989   0.119  12.619   3.835 -0.0265  0.1748 -0.2735
23373W        W38990  14.562  10.574   2.816 -0.3139 -0.0610  0.1841
23374W        W38991   9.626  15.716   3.546  0.1129  0.3284  0.3850
23375W        W38992  17.278   4.123   3.656  0.2974 -0.5360 -0.0095
23376W        W38993   6.591  11.959  15.774  0.1144  0.0631  0.1424
23377W        W38994   6.677   7.799   3.739  0.3415 -0.0371  0.4040
23378W        W38995  17.253  15.040   2.378  0.1670 -0.3406 -0.1843
23379W        W38996   2.566   6.958  16.828  0.0837 -0.0761  0.0481
23380W        W38997  15.505  16.584   0.638 -0.1263  0.2391  0.1643
23381W        W38998  13.574  17.423  14.091  0.0784  0.0679 -0.0093
23382W        W38999  11.228   6.589   6.574 -0.0835 -0.0082 -0.2335
23383W        W39000   1.498   0.298   3.624 -0.0723 -0.1256 -0.0013
23384W        W39001  13.434  14.902   0.102 -0.1099 -0.1552  0.0337
23385W        W39002   0.658  17.348  16.246 -0.0678 -0.0530 -0.1228
23386W        W39003   6.501  13.819  15.362  0.4184  0.1672  0.2344
23387W        W39004   9.654   4.379   1.742  0.1165  0.2034  0.2432
23388W        W39005  10.113   8.631  15.649  0.4184 -0.1509 -0.1746
23389W        W39006   3.196  13.894  13.834 -0.0245 -0.1586 -0.1771
23390W        W39007  13.901   7.609   6.438 -0.2908 -0.4626  0.1016
23391W        W39008   7.339  15.777   2.194  0.1807 -0.0833  0.1230
23392W        W39009  14.933   8.611  16.750 -0.1467  0.0185 -0.0542
23393W        W39010  10.819   2.666  16.336  0.0627 -0.0351 -0.0492
23394W        W39011  14.367  14.040  16.966  0.0291 -0.3069 -0.2396
23395W        W39012  16.281  14.945   4.520 -0.1451 -0.1285  0.3015
23396W        W39013  12.185  10.576  14.156  0.1520 -0.0071 -0.0069
23397W        W39014  14.256   2.103   0.717 -0.4890  0.1237  0.1509
23398W        W39015   2.523   3.717   3.612  0.1204  0.0512  0.1957
23399W        W39016   4.158   1.307   5.312 -0.1920  0.2359  0.0194
23400W        W39017   0.277   4.438   4.624  0.0933 -0.1092 -0.0541
23401W        W39018   9.072   5.230   5.088 -0.1291  0.0252  0.1027
23402W        W39019  11.507   7.183   5.370  0.1871  0.0257 -0.4170
23403W        W39020  13.632  10.519  15.454 -0.0531  0.2625 -0.2291
23404W        W39021   1.220  14.194  13.371 -0.0296 -0.2513 -0.2180
23405W        W39022  12.032   7.687  16.933 -0.2600  0.1294  0.1260
23406W        W39023   4.673   9.870   3.350 -0.3773 -0.0638 -0.0753
23407W        W39024   1.722  15.289  15.246  0.0277  0.2793  0.2285
23408W        W39025   7.730  12.713  13.597 -0.0356 -0.1289 -0.1332
23409W        W39026   4.842   0.469  11.799 -0.1054 -0.2203 -0.0037
23410W        W39027   1.549   4.598   0.448 -0.0166  0.0934  0.0381
23411W        W39028   4.482  14.652  12.782 -0.2368  0.0869  0.0787
23412W        W39029  10.755   4.453  15.729 -0.0197  0.0844 -0.0400
23413W        W39030  14.491  17.582  11.750  0.0775  0.0308 -0.0882
23414W        W39031  17.322   6.972   6.068  0.1312  0.2668 -0.0681
23415W        W39032  16.894   0.278  12.941  0.1621  0.2103 -0.0099
23416W        W39033  15.964   3.921   3.190  0.1728 -0.1017  0.0880
23417W        W39034   2.586  13.186  14.100  0.0652 -0.2701 -0.4954
23418W        W39035   0.875   3.093  16.744  0.2544 -0.0981  0.2757
23419W        W39036  17.602   8.128   4.581 -0.0993  0.2807 -0.0214
23420W        W39037   0.630  11.647  12.300 -0.1334  0.4524  0.2169
23421W        W39038   8.853   2.554   0.865  0.1452 -0.1658  0.0938
23422W        W39039   5.780   1.755  13.018 -0.1744 -0.0347 -0.0404
23423W        W39040  17.061   4.841   1.760  0.0099 -0.0079  0.0559
23424W        W39041  11.413  14.945  13.523  0.0494 -0.0602 -0.1124
23425W        W39042  11.771   4.347   1.467 -0.0292 -0.1370 -0.1304
23426W        W39043   2.631  11.803   1.698 -0.0814 -0.0838 -0.2832
23427W        W39044  15.040   1.420   0.532 -0.0207 -0.1454 -0.1311
23428W        W39045  13.457  12.728   1.757  0.0776 -0.0994  0.0202
23429W        W39046   1.663   4.449   4.851  0.2478  0.0075 -0.1403
23430W        W39047  14.940  11.774  14.638  0.1410 -0.0468 -0.1664
23431W        W39048   2.372   1.969   5.314 -0.0754  0.1766  0.3414
23432W        W39049   4.084   8.741  13.628  0.1075  0.0241 -0.1811
23433W        W39050  13.178  15.983   3.441 -0.1128  0.2044 -0.2619
23434W        W39051  17.196  17.593  13.851 -0.2702  0.1351 -0.1448
23435W        W39052  16.681   7.350   0.442 -0.0323 -0.2662 -0.0973
23436W        W39053   9.616   4.852   1.565 -0.3031  0.0875 -0.1075
23437W        W39054  16.238   9.889   1.557  0.1088  0.1045 -0.1537
23438W        W39055  10.065   6.582   5.989 -0.3519  0.2283  0.0503
23439W        W39056   8.235   9.567  12.162  0.0812 -0.2942  0.0601
23440W        W39057  14.864   1.853   0.210  0.3722 -0.4582 -0.4997
23441W        W39058   4.186   5.320   3.099  0.2362  0.0522 -0.0876
23442W        W39059   2.508   3.210  16.541  0.3257  0.1186 -0.0785
23443W        W39060  15.707   1.539  12.172 -0.0830 -0.1047  0.0124
23444W        W39061  15.986   5.531  14.551 -0.1060  0.0316  0.3820
23445W        W39062  12.223   7.472   0.220  0.2722  0.0718 -0.0212
23446W        W39063  12.474   1.480   5.517  0.1020 -0.3420 -0.1022
23447W        W39064  15.519  15.085   3.864 -0.2331 -0.2574  0.3133
23448W        W39065  17.446  11.824  15.562 -0.1147  0.2502  0.1861
23449W        W39066   8.080  10.225   5.898  0.0256  0.1135 -0.3481
23450W        W39067  12.385   3.665  11.718  0.1797 -0.2369 -0.0038
23451W        W39068  14.959  12.063   4.701  0.0043 -0.0188  0.1376
23452W        W39069  12.803   2.412   3.742  0.0605 -0.2795  0.1013
23453W        W39070  13.134   9.652  11.770  0.0821 -0.4426 -0.2799
23454W        W39071   5.841  10.284   4.926 -0.3262  0.5453  0.1468
23455W        W39072   4.548   6.849   3.012  0.0550 -0.0890 -0.1120
23456W        W39073  15.676   9.975  12.470 -0.0716  0.0192 -0.2052
23457W        W39074   6.652   5.321  12.501  0.1748 -0.2337  0.0838
23458W        W39075  15.958   1.961  16.084 -0.3201 -0.2458 -0.1811
23459W        W39076   0.757   6.075  16.453  0.0217  0.0193 -0.0497
23460W        W39077  16.864   9.705  15.167 -0.0597 -0.3820  0.6909
23461W        W39078  14.288  14.216   1.444  0.0315  0.1596 -0.0818
23462W        W39079  10.765   6.676   3.137  0.0753 -0.1349  0.0117
23463W        W39080  15.950   5.030  14.339 -0.1798  0.0025  0.2847
23464W        W39081   6.518   1.376   3.611  0.2202 -0.1116 -0.0628
23465W        W39082  10.974   0.766  14.577 -0.0787 -0.0742  0.1697
23466W        W39083  11.892   8.328   1.475  0.1328  0.0295 -0.1548
23467W        W39084   2.868   3.120   5.197  0.0511 -0.0268 -0.0500
23468W        W39085  17.568   8.571   2.065 -0.0154  0.0641  0.0745
23469W        W39086  11.349  10.042   2.674 -0.0191 -0.2123  0.1060
23470W        W39087   1.667  14.933   1.585  0.2257 -0.3284  0.0047
23471W        W39088  13.422  15.012   3.706  0.0891 -0.0501 -0.1136
23472W        W39089  15.187   7.818  16.451  0.2279 -0.2994  0.1662
23473W        W39090   8.999  16.715   2.157 -0.0267 -0.1923 -0.1026
23474W        W39091  16.498   6.435  15.240  0.1611 -0.3483  0.0505
23475W        W39092  10.917   0.992  13.513  0.0951 -0.2994  0.0155
23476W        W39093   3.760   7.783   0.356  0.2082  0.2583 -0.2459
23477W        W39094   1.213   6.867   1.781  0.1162 -0.0384  0.1009
23478W        W39095   3.322  13.022  16.657 -0.1654 -0.3343  0.0483
23479W        W39096  15.394   6.632  16.269 -0.0366  0.1559  0.0424
23480W        W39097  11.246  11.239   0.696  0.0180 -0.0578 -0.3728
23481W        W39098  12.269   7.121  12.335  0.2196 -0.1214 -0.1034
23482W        W39099  16.237   6.843   0.612 -0.1046 -0.2135 -0.0759
23483W        W39100   4.826   9.677   4.672 -0.1693  0.0709  0.3413
23484W        W39101  16.421  15.452   3.258  0.2926  0.0977 -0.1917
23485W        W39102   8.294  10.563   4.110 -0.2841 -0.0190  0.0141
23486W        W39103  13.374  10.970   2.168 -0.1475  0.2558 -0.2936
23487W        W39104  17.235  13.586  15.178  0.0905  0.3239 -0.0802
23488W        W39105   1.304  12.955  12.074  0.2623 -0.0001 -0.0570
23489W        W39106  11.634  14.854  10.598  0.1389  0.0192  0.0613
23490W        W39107   2.252   1.425  15.444 -0.2882  0.0509  0.0680
23491W        W39108   2.400   4.726   3.739 -0.0078  0.1780  0.2272
23492W        W39109  16.248   5.930  16.390  0.1731 -0.1459  0.1358
23493W        W39110   7.173   9.284   2.541  0.0482 -0.1556 -0.0578
23494W        W39111  10.128  10.716  12.182  0.0545  0.0159  0.1573
23495W        W39112   2.465  17.591   1.465  0.4052 -0.1358 -0.1445
23496W        W39113  14.972  17.061   2.317 -0.2043  0.1045  0.1352
23497W        W39114  14.479  11.952  14.859  0.0319  0.3269 -0.0342
23498W        W39115  11.375   7.304   3.375  0.2547  0.1144 -0.0027
23499W        W39116   8.899   5.604  14.233  0.0067 -0.2164 -0.3114
23500W        W39117  13.318   8.691   3.666 -0.0733  0.0808  0.1683
23501W        W39118  17.428  15.524  13.453 -0.3269  0.0563 -0.1251
23502W        W39119   1.390  12.843   0.372  0.1704  0.3037  0.1450
23503W        W39120   6.326   2.059   5.872  0.1332  0.0169 -0.1497
23504W        W39121  13.027   2.515  17.217 -0.1337  0.0496  0.0437
23505W        W39122  14.010   9.981   0.886 -0.0665 -0.0727 -0.0905
23506W        W39123  14.069  14.182  16.033 -0.1693 -0.0716  0.1247
23507W        W39124   9.397   8.836   0.776  0.0338  0.0389  0.2811
23508W        W39125  12.736   7.488  12.427 -0.1918 -0.0393  0.2845
23509W        W39126   6.460  16.750  11.695 -0.0303  0.1845 -0.1485
23510W        W39127   6.531   7.732  12.938 -0.2533 -0.1947  0.1913
23511W        W39128  15.932  11.754  13.452 -0.0634  0.0385 -0.1749
23512W        W39129  15.958   6.487   6.285 -0.0703  0.0442  0.0566
23513W        W39130  16.030   4.085   0.560 -0.3914 -0.4136  0.0459
23514W        W39131   5.744  17.180   0.236 -0.2222  0.1329  0.0592
23515W        W39132   0.693   2.768   2.208 -0.2407 -0.1290 -0.3448
23516W        W39133  13.669   4.749   3.023  0.0126 -0.0138  0.1849
23517W        W39134   9.337   4.934   1.167  0.2659  0.1052  0.4782
23518W        W39135   5.833   1.350   4.079 -0.2737 -0.1758 -0.2219
23519W        W39136  16.663   6.853   3.724 -0.0247  0.2032 -0.0280
23520W        W39137  16.559   0.706  13.494  0.1485 -0.0549 -0.1055
23521W        W39138  17.231  11.084  15.189 -0.0545 -0.2461  0.2867
23522W        W39139  14.700  12.974   0.564 -0.1935 -0.3387  0.2726
23523W        W39140   4.691   3.402  15.420  0.0567 -0.1244 -0.1291
23524W        W39141  15.228  10.814  14.490  0.0446 -0.0380 -0.2467
23525W        W39142   4.255  12.772  13.565  0.2685  0.1198 -0.1272
23526W        W39143   4.956  10.191   3.072  0.1214 -0.0462  0.0098
23527W        W39144   3.431   7.069   1.025 -0.0744  0.2310 -0.1497
23528W        W39145   5.815  17.107  12.793 -0.1288  0.2266  0.0200
23529W        W39146  16.627  15.672  13.899 -0.1650  0.4393  0.1599
23530W        W39147   9.866  14.760   0.305  0.1052 -0.0492  0.1471
23531W        W39148   5.824   3.721  13.701 -0.2174  0.2651  0.0630
23532W        W39149   2.730  12.749   3.303 -0.1234  0.1505  0.2068
23533W        W39150   0.767   0.576   1.512  0.0436 -0.0631 -0.0305
23534W        W39151  11.977  16.961  13.556  0.1502 -0.1646 -0.2318
23535W        W39152  11.754   2.454   4.028  0.0637 -0.2158 -0.0975
23536W        W39153   6.709   0.592   4.833  0.2203  0.0154 -0.2473
23537W        W39154   3.599  16.592  11.870  0.3390 -0.0193  0.0463
23538W        W39155  11.004   2.042   2.265  0.1248 -0.4594  0.0096
23539W        W39156  11.960   4.022   4.538  0.1146 -0.1269 -0.0685
23540W        W39157   9.729   1.998  15.309  0.0369  0.2866 -0.1794
23541W        W39158   5.173   5.535   6.081  0.0688 -0.0278  0.0333
23542W        W39159   3.879  15.944   2.422 -0.0147 -0.0309 -0.4147
23543W        W39160  11.920  16.222  16.049  0.3079  0.2040 -0.0989
23544W        W39161  15.506  13.525  14.532 -0.1590  0.1914 -0.1136
23545W        W39162   2.334   2.056   2.032 -0.1189  0.3577  0.0410
23546W        W39163   3.557   6.375   1.437  0.0049  0.2131 -0.0432
23547W        W39164  12.220   4.574   6.250 -0.3488  0.0681 -0.1836
23548W        W39165   0.827   9.983  13.919 -0.1202 -0.1534 -0.0665
23549W        W39166   3.636  14.140   2.147 -0.3285 -0.2726 -0.0112
23550W        W39167  11.155   2.106   1.141 -0.1626  0.0015 -0.0528
23551W        W39168  15.311  14.160  12.214  0.0265 -0.0695 -0.0511
23552W        W39169   8.997  12.260  11.828  0.0105  0.1728 -0.2469
23553W        W39170   5.732   6.290   6.975 -0.0080 -0.1204 -0.2356
23554W        W39171   7.444  15.704   4.997 -0.1559  0.0236  0.1031
23555W        W39172   7.312   9.569  14.841  0.0396  0.4013 -0.0448
23556W        W39173   5.062   6.421  16.084  0.0536  0.0471 -0.1137
23557W        W39174  14.203   8.453   2.283  0.2248  0.1965 -0.0981
23558W        W39175   2.598  17.599  15.599  0.0267  0.2961  0.4346
23559W        W39176   7.159  14.056  13.537 -0.1004  0.0406 -0.1870
23560W        W39177  14.203   2.999   2.873  0.0332  0.1660 -0.1364
23561W        W39178   4.546   1.142  13.210 -0.0032  0.1817  0.0254
23562W        W39179   3.005  11.964  17.254  0.3980  0.1006 -0.2362
23563W        W39180  16.526   0.363   2.785  0.3264  0.2382  0.0989
23564W        W39181  14.404  16.792  17.035 -0.0564  0.1513 -0.0946
23565W        W39182   6.539   2.776   4.219  0.1874 -0.0769 -0.3607
23566W        W39183  11.098  12.139  15.139 -0.1451 -0.1331 -0.1691
23567W        W39184  15.354   4.894   0.485 -0.2959 -0.0277 -0.3062
23568W        W39185  16.088   2.503   4.198  0.3488 -0.0483  0.1668
23569W        W39186   3.298   4.559   5.750  0.3411 -0.0490 -0.2363
23570W        W39187   3.188   8.561   2.108  0.0209  0.1462  0.1481
23571W        W39188  14.082   0.289  13.183  0.1035 -0.0942  0.0410
23572W        W39189  11.668  13.614  17.021 -0.0195  0.1877  0.0109
23573W        W39190   7.447   5.189   6.082 -0.0891  0.1301 -0.0191
23574W        W39191   9.862  11.078  16.356 -0.2555 -0.2139  0.2025
23575W        W39192   3.329   7.323  16.895 -0.0430 -0.2871 -0.1382
23576W        W39193   7.967  15.193  12.584 -0.0610  0.0843 -0.1128
23577W        W39194   9.611   6.865  16.791  0.0829 -0.3497  0.2102
23578W        W39195  15.950   2.326  12.060 -0.0912  0.0497 -0.2186
23579W        W39196  12.007  10.169   4.244 -0.0575  0.3932  0.1678
23580W        W39197   2.215   4.107   0.036 -0.3066 -0.0561  0.0027
23581W        W39198   4.916   5.493   1.991  0.6756 -0.0714 -0.1889
23582W        W39199   3.519  17.529   4.104 -0.0735  0.0791  0.3549
23583W        W39200  12.998   6.996   4.482  0.2612 -0.0717  0.2569
23584W        W39201  15.832  17.052  15.426 -0.0275 -0.3525 -0.1200
23585W        W39202  17.252   9.809  17.047 -0.0071  0.2117  0.0565
23586W        W39203  15.787   4.478  13.326  0.0482  0.2657 -0.0668
23587W        W39204   2.266   4.146  15.065  0.3303  0.1423 -0.1463
23588W        W39205   7.930   0.526   3.540 -0.0012  0.0681  0.0900
23589W        W39206  10.837   2.315  14.542 -0.1708 -0.4021  0.1164
23590W        W39207  10.586  11.605  12.633 -0.1718  0.4132 -0.0802
23591W        W39208  16.403   0.850   0.145  0.1240  0.1158  0.4120
23592W        W39209  11.050   5.194   6.103 -0.2731  0.0167 -0.2188
23593W        W39210  10.345   8.443   2.906  0.2599 -0.0025 -0.1352
23594W        W39211   3.455  14.058   2.707  0.1818  0.0756 -0.2983
23595W        W39212  17.432   1.945   5.655 -0.2084  0.1213 -0.1147
23596W        W39213   5.153  16.524   3.325  0.1809 -0.1134 -0.1166
23597W        W39214  13.249   6.241   3.826  0.1311 -0.0327  0.1389
23598W        W39215  12.668   7.698  14.481  0.1639 -0.0209  0.1653
23599W        W39216  16.449   0.422   0.761  0.3076  0.1859 -0.1179
23600W        W39217  11.464  12.189   1.059 -0.0615  0.0458  0.1717
23601W        W39218   8.266  15.132   5.880  0.2414  0.1942 -0.0161
23602W        W39219   4.480   0.780   4.585 -0.0659  0.1915 -0.2037
23603W        W39220  15.097  14.941   6.065 -0.0348  0.1443 -0.2011
23604W        W39221  15.463   3.638   6.159 -0.1659  0.0420  0.2298
23605W        W39222  16.481  17.177  14.143  0.0238  0.0867 -0.2096
23606W        W39223  16.491   9.928  14.933  0.2726 -0.0928  0.2856
23607W        W39224   9.430   6.266  13.156 -0.3395 -0.3175 -0.0042
23608W        W39225  10.394  14.379   1.909 -0.2900 -0.2856 -0.1044
23609W        W39226  14.361  13.427  17.059  0.0626 -0.3498 -0.0433
23610W        W39227   6.544  17.196   3.154  0.0706 -0.2862 -0.0112
23611W        W39228   4.094  13.383   3.425 -0.1606 -0.0747 -0.1504
23612W        W39229   0.796   0.331   5.260  0.2474  0.1678 -0.2373
23613W        W39230   8.083   5.591  13.648  0.3005 -0.2652 -0.0011
23614W        W39231   5.254   7.495   4.922  0.1574  0.0720 -0.0207
23615W        W39232   9.637   3.214   1.901  0.2645 -0.0389 -0.3261
23616W        W39233   3.458  12.084  16.417  0.3507 -0.0907  0.1529
23617W        W39234   6.772  15.870   0.996  0.0078  0.1340  0.3061
23618W        W39235  14.919   8.648   0.277 -0.0822  0.2841 -0.1418
23619W        W39236  12.003  10.077  14.014  0.0609  0.0341 -0.1330
23620W        W39237   9.060   0.986  15.542  0.2382  0.1405  0.3501
23621W        W39238   2.477   8.069   2.401  0.0434 -0.0361 -0.0499
23622W        W39239   4.546  14.377  11.573 -0.1898 -0.1688  0.2668
23623W        W39240   8.263  15.775   4.502 -0.3396  0.0680 -0.0772
23624W        W39241   6.212   9.399   1.893 -0.0230 -0.1795  0.1196
23625W        W39242  16.845  11.439   5.409 -0.0268 -0.2401  0.3295
23626W        W39243   9.478   5.955   5.922 -0.2038  0.1678  0.2493
23627W        W39244   9.377  13.458  11.502 -0.1129 -0.0442  0.1256
23628W        W39245  16.065   2.894  12.872 -0.1938 -0.1110  0.0970
23629W        W39246  13.145   0.051   4.636  0.0642 -0.0575 -0.2302
23630W        W39247  12.893   0.667   0.839 -0.0039  0.2120 -0.1295
23631W        W39248  11.490  13.271   4.240 -0.0699  0.1881 -0.0176
23632W        W39249  14.232  11.371  16.384 -0.0139  0.1814  0.0415
23633W        W39250   3.648  14.784  13.036  0.1664  0.2490  0.3026
23634W        W39251   1.806  16.620   6.032 -0.0268 -0.0619  0.1291
23635W        W39252   3.000   2.319   1.021  0.0428  0.1744 -0.1956
23636W        W39253   4.627  11.028   0.717 -0.2076  0.0058  0.1685
23637W        W39254   3.049  16.870  14.568 -0.0761 -0.1783  0.0839
23638W        W39255   6.474   0.144   2.337  0.1268  0.2732  0.1382
23639W        W39256  12.098  14.909  14.005 -0.0470  0.0938  0.2249
23640W        W39257  16.950   2.520   2.162  0.0193  0.3436  0.3349
23641W        W39258   3.772  12.783  16.735 -0.0350  0.0824  0.1615
23642W        W39259   6.868   1.635  16.536 -0.2492  0.0506  0.2674
23643W        W39260   3.859  15.284  11.146 -0.0970 -0.1687  0.0236
23644W        W39261   1.288  16.433  13.520 -0.0105 -0.0074  0.0888
23645W        W39262   9.065  13.341  11.959 -0.0895 -0.1141  0.0345
23646W        W39263   8.378  14.585   3.752 -0.2652 -0.1224 -0.1076
23647W        W39264  15.101  13.916   0.943  0.1700  0.0846 -0.0709
23648W        W39265  11.084   8.845  12.463 -0.1904  0.0718 -0.0798
23649W        W39266   4.198   0.852  14.534  0.2405 -0.1557  0.1164
23650W        W39267  15.602  17.126   0.624  0.3064  0.2378  0.1612
23651W        W39268  12.090   5.888  13.203  0.0460 -0.1935 -0.0567
23652W        W39269   0.339   1.189   0.486 -0.0351 -0.1706 -0.0601
23653W        W39270  15.151   3.667  16.717  0.1549  0.1321  0.2420
23654W        W39271  16.278  10.349   3.305 -0.0887 -0.0817 -0.2150
23655W        W39272   9.132   1.664  13.582  0.1707  0.1302 -0.0175
23656W        W39273   0.027  11.182   4.120  0.0242 -0.0314 -0.1736
23657W        W39274  11.175  13.522   6.516  0.0197  0.1154 -0.1225
23658W        W39275   6.342  12.055   2.745  0.2976 -0.1053 -0.4129
23659W        W39276   0.455   0.273   0.257  0.2573 -0.0506 -0.1070
23660W        W39277  15.648  15.053  13.993 -0.0244 -0.1714 -0.2289
23661W        W39278   8.222  14.161  11.170 -0.0118 -0.2860  0.0589
23662W        W39279  11.740  10.194  16.129 -0.0686  0.4147  0.0711
23663W        W39280   9.535   3.250  16.467  0.1675  0.1482 -0.1256
23664W        W39281   5.391   9.014   4.084 -0.1225  0.3638  0.1825
23665W        W39282   5.223   3.667  13.928 -0.1593 -0.0759  0.1833
23666W        W39283   4.966  15.245  16.391  0.0449 -0.0121  0.1250
23667W        W39284   2.467  15.821  11.752  0.1373 -0.0735  0.3477
23668W        W39285  17.089  16.244   0.667 -0.1636 -0.0093  0.0219
23669W        W39286   7.872  16.564   0.852 -0.1265  0.0521  0.0527
23670W        W39287   9.982   5.997  13.059  0.0777  0.2278 -0.2720
23671W        W39288  14.603  12.106   1.509 -0.0577 -0.0331 -0.0909
23672W        W39289   0.794  11.000  17.175  0.0275 -0.3098  0.0920
23673W        W39290  17.515  13.940   5.798  0.3071 -0.1534 -0.1388
23674W        W39291  11.004   8.359   5.930 -0.0166  0.2034 -0.2128
23675W        W39292   5.667   9.437   4.778  0.0974 -0.1471 -0.0565
23676W        W39293   4.352  14.513   4.437  0.1577 -0.0483 -0.1818
23677W        W39294   5.464  11.875   3.818 -0.1890  0.0044 -0.1791
23678W        W39295  10.079   1.568  13.599 -0.1355 -0.1655  0.0534
23679W        W39296   3.506   8.719  16.699  0.3092  0.2555 -0.0811
23680W        W39297   7.068   5.431   1.963  0.0295 -0.2465 -0.0282
23681W        W39298   2.641   0.697   0.660  0.1581  0.0516 -0.1649
23682W        W39299   3.058  15.556  13.763 -0.2595 -0.1833 -0.3332
23683W        W39300  15.694  15.040  11.741 -0.0919  0.3324  0.2211
23684W        W39301  14.851   8.216   3.485  0.1389 -0.0302  0.0323
23685W        W39302  10.342   1.933   1.461 -0.0621 -0.0490 -0.0971
23686W        W39303   5.356   9.847   4.695 -0.1242 -0.0189 -0.0299
23687W        W39304   0.512  14.681   0.115  0.0086  0.1388 -0.1651
23688W        W39305   4.554   6.977  16.154 -0.0321  0.0116 -0.0867
23689W        W39306  11.420   1.371  15.198  0.0378 -0.3254 -0.1464
23690W        W39307   9.291   2.304   0.613 -0.0535  0.0206 -0.1327
23691W        W39308  10.596  16.136   3.516 -0.0617 -0.0130  0.1512
23692W        W39309   5.672   7.092  11.708  0.1109  0.1040  0.1134
23693W        W39310  10.175   2.316   4.417 -0.3141  0.0178  0.0685
23694W        W39311  14.939   5.798  15.992  0.2034  0.2048  0.0717
23695W        W39312   4.155   8.808  15.067  0.1458 -0.1444  0.2466
23696W        W39313  11.815  17.554   4.544  0.1836 -0.1027 -0.1476
23697W        W39314   8.239   9.638   3.547 -0.3127  0.2689 -0.2006
23698W        W39315   3.829   8.822  13.228  0.0228 -0.0621  0.1053
23699W        W39316   5.174  15.391   2.646 -0.1602  0.0175  0.0338
23700W        W39317   2.893   0.485  14.335  0.0638 -0.3028  0.0901
23701W        W39318   1.687   7.028   1.600 -0.3077  0.3590  0.1788
23702W        W39319   3.839   5.235  13.213 -0.0043  0.0906  0.1309
23703W        W39320  11.450  13.490   5.278 -0.1225  0.2977  0.0610
23704W        W39321  16.960   2.120  16.768 -0.2033  0.0291 -0.1080
23705W        W39322   2.733   7.469   0.636  0.0152  0.0647  0.2125
23706W        W39323   3.782  15.682  13.950  0.0879 -0.0802  0.0277
23707W        W39324  17.377  11.496  14.466 -0.3719  0.0046 -0.2038
23708W        W39325   3.873   9.033   6.420 -0.1366 -0.0624  0.1871
23709W        W39326  13.432   0.217  16.464  0.0944 -0.2726  0.4725
23710W        W39327   8.362  10.572   3.527 -0.0968 -0.0764  0.1897
23711W        W39328   8.225   8.492  13.895 -0.0824  0.4741  0.0973
23712W        W39329  13.862  10.082   5.493 -0.1167  0.0595  0.2074
23713W        W39330  13.959   7.467   2.910 -0.1806 -0.0772  0.1934
23714W        W39331  10.500   0.857   4.099 -0.2938 -0.1264 -0.2216
23715W        W39332   7.819  17.043   0.082  0.0009  0.2892 -0.0450
23716W        W39333  11.745   9.900   5.006 -0.0329  0.0786 -0.0965
23717W        W39334  16.564   9.197  13.457  0.1714 -0.1515  0.2776
23718W        W39335   1.240  11.464   1.580 -0.0524  0.0440 -0.0333
23719W        W39336  11.483  10.069   3.627 -0.0414 -0.0812 -0.2804
23720W        W39337  11.918  17.376   1.969 -0.2154  0.0638  0.1752
23721W        W39338   5.898  12.342  15.821  0.1408 -0.1864 -0.2158
23722W        W39339   6.255   1.255   2.363  0.0960 -0.0015  0.5649
23723W        W39340   1.224  13.356   4.953  0.2034 -0.0166  0.1400
23724W        W39341  12.860   6.485   3.126 -0.2159 -0.1287  0.1272
23725W        W39342   5.692   8.726   0.005  0.0173 -0.1109 -0.4798
23726W        W39343  14.076  16.223   2.987  0.1674  0.0433 -0.0158
23727W        W39344   3.909   5.395  14.469 -0.3331  0.1199 -0.3042
23728W        W39345   4.855  15.799  16.507 -0.0316 -0.2526 -0.3213
23729W        W39346   7.072   7.975  14.953 -0.6068  0.2257 -0.0627
23730W        W39347   4.754   7.772   4.518  0.0387 -0.2581 -0.0674
23731W        W39348  10.955   9.916   5.737  0.0935 -0.2204  0.1335
23732W        W39349   5.367   8.526  14.618  0.1246  0.4105 -0.0566
23733W        W39350   3.658  16.974   0.685 -0.0980  0.3906 -0.1116
23734W        W39351  16.144   2.161  16.565  0.3546  0.1840  0.0683
23735W        W39352   3.496   8.088  13.782 -0.2019  0.0300  0.0217
23736W        W39353   1.109   8.914  12.997 -0.0335 -0.3483  0.2026
23737W        W39354  10.527   9.921   1.171 -0.2000  0.1656  0.0464
23738W        W39355  12.252   6.772   1.852 -0.0971 -0.1985  0.2060
23739W        W39356  11.961  15.887  15.686 -0.1694 -0.0558  0.2223
23740W        W39357  13.836   1.688   3.574  0.1743  0.1226  0.0931
23741W        W39358   3.641   4.802   4.272 -0.1439  0.0507 -0.0714
23742W        W39359   6.236   3.029   2.117 -0.0866  0.1396  0.0014
23743W        W39360   0.809  14.464  13.411  0.0668  0.1440  0.1578
23744W        W39361   4.672  14.633  12.246  0.0483 -0.3218  0.1502
23745W        W39362   7.380  12.320   0.958  0.0104  0.2152  0.0905
23746W        W39363   5.743  13.198   2.455  0.0469 -0.0370 -0.0006
23747W        W39364   4.311   0.087   5.116  0.0127 -0.1482 -0.2915
23748W        W39365   2.030  17.010   4.261 -0.0359 -0.1198 -0.1525
23749W        W39366   6.564   5.344   1.788  0.1588  0.2151  0.0375
23750W        W39367  11.982   5.420  13.357  0.0429  0.2910  0.0912
23751W        W39368   1.015   1.300   4.361  0.0622  0.1794 -0.1489
23752W        W39369  15.124   1.570  16.911  0.2578 -0.0209  0.3128
23753W        W39370  17.472   9.841   4.089 -0.1370  0.0590 -0.4609
23754W        W39371  12.558   0.070   5.778  0.1603  0.1114  0.0870
23755W        W39372  17.232  15.171   3.793 -0.2136  0.0347 -0.0050
23756W        W39373  15.865  15.497  14.389 -0.0674  0.0848 -0.0502
23757W        W39374  11.109   1.362   2.807  0.1984  0.1224 -0.1347
23758W        W39375  13.663  10.066   3.683  0.1325 -0.0190  0.0705
23759W        W39376   9.355  16.589   0.743 -0.0923  0.2140 -0.0741
23760W        W39377   5.688   0.953   1.900 -0.2592 -0.1201  0.1404
23761W        W39378  14.581  12.320   2.469 -0.2044  0.0449 -0.5607
23762W        W39379   1.884   2.840  12.439  0.1539  0.1967  0.2286
23763W        W39380   2.967   5.643   5.922  0.3143  0.1030  0.1243
23764W        W39381  15.197  17.143   2.781  0.0468 -0.1052 -0.0269
23765W        W39382  15.734   6.157   0.084  0.0599 -0.2888  0.1609
23766W        W39383   4.873  11.924   5.061  0.0009  0.4386 -0.0788
23767W        W39384   8.695   5.637   5.064  0.0426 -0.0334  0.0752
23768W        W39385  15.357   9.240   3.808 -0.1049 -0.0947 -0.2224
23769W        W39386  13.035   4.941   3.420 -0.1757  0.1835  0.1550
23770W        W39387   6.746   2.293   5.388  0.2083 -0.5722  0.0840
23771W        W39388  13.277  10.037  13.571 -0.3698 -0.1093  0.0535
23772W        W39389  12.403   8.297   1.332 -0.1224 -0.0791  0.1703
23773W        W39390   6.850   7.044   4.665 -0.4450  0.2952  0.0184
23774W        W39391  15.575  16.552   6.208 -0.3941 -0.0929  0.0554
23775W        W39392   0.690  17.445   4.799  0.2318 -0.0408  0.0159
23776W        W39393  13.729   3.693   3.982  0.1164  0.0204  0.1105
23777W        W39394   2.886   8.158   6.095  0.1310  0.1449 -0.0275
23778W        W39395  10.274  15.858  15.414  0.1757  0.1989  0.0082
23779W        W39396   7.493   7.950   2.468 -0.0046 -0.2858 -0.0951
23780W        W39397   3.547   4.103   4.300 -0.2120  0.1504 -0.2513
23781W        W39398  11.378  17.113  14.816  0.5620 -0.1123 -0.0840
23782W        W39399   2.979  16.691  13.295  0.0655  0.0212  0.2671
23783W        W39400   0.138  14.230   0.939 -0.1359 -0.0189  0.1562
23784W        W39401   0.483  12.905  12.417 -0.1746 -0.2432 -0.0183
23785W        W39402   3.019   1.607   2.449 -0.1338  0.0997  0.0399
23786W        W39403   4.660   3.456   6.616 -0.2298 -0.1933  0.0042
23787W        W39404  15.983  10.133  14.212  0.2729  0.1337 -0.0867
23788W        W39405  11.813  11.029   2.378 -0.2426 -0.1990 -0.2467
23789W        W39406   8.063  15.058  15.602  0.0356  0.2909  0.2678
23790W        W39407  15.343   4.225   1.133 -0.3917 -0.0449 -0.1803
23791W        W39408  16.806  10.682   0.181 -0.0273 -0.1909  0.1844
23792W        W39409   9.039  13.293   4.313  0.0973 -0.2019  0.2832
23793W        W39410  15.150   6.407  14.245 -0.3471  0.0088 -0.0346
23794W        W39411   5.295   0.850   1.047  0.1392 -0.2497 -0.1608
23795W        W39412   8.789   5.905  16.262  0.2430 -0.0821 -0.1466
23796W        W39413   8.232   6.131   5.402  0.0195  0.1613 -0.2108
23797W        W39414  10.110  11.654  12.904 -0.0901  0.0874  0.2221
23798W        W39415   4.751  12.798  16.261  0.3160 -0.0978 -0.0101
23799W        W39416  17.335   6.162  12.639 -0.1093  0.2774  0.1398
23800W        W39417   2.197   7.130   4.850  0.0118 -0.1207 -0.3464
23801W        W39418   8.258  15.595  12.855  0.2541 -0.0951  0.1722
23802W        W39419   4.745   9.259  16.511  0.1335 -0.2569  0.3517
23803W        W39420  10.420  10.980  14.734 -0.1120 -0.0585  0.0307
23804W        W39421  16.068   0.850  10.948 -0.0930 -0.1309  0.0689
23805W        W39422  17.187   5.086   3.473 -0.0148 -0.0342  0.0544
23806W        W39423   7.828   0.026  13.815 -0.0972 -0.1612  0.1287
23807W        W39424   9.927  10.820  14.260 -0.1594  0.1434 -0.0662
23808W        W39425   9.405   2.521   1.335  0.0600 -0.1757 -0.1700
23809W        W39426   7.776  17.000   0.607 -0.2665  0.2305  0.0701
23810W        W39427   2.838  13.952   5.355 -0.1161  0.0566 -0.0758
23811W        W39428   0.144  16.839  12.971  0.1316 -0.4748  0.0996
23812W        W39429   6.579   4.092   1.284 -0.3529 -0.2720 -0.4163
23813W        W39430   4.183  10.648  15.809 -0.2870 -0.1014  0.2193
23814W        W39431  16.636  17.044   2.287 -0.0422 -0.0737 -0.0270
23815W        W39432  11.570   6.334  13.894  0.4161  0.1269 -0.1391
23816W        W39433  11.872  13.457   5.667 -0.0941  0.2199  0.2568
23817W        W39434   6.649   5.617  14.209  0.0153  0.0621 -0.2445
23818W        W39435  10.729  11.142  17.278 -0.1776  0.1049 -0.0120
23819W        W39436   7.587   5.888   2.392 -0.0440  0.3132 -0.2842
23820W        W39437  10.770   0.746  16.357 -0.0324  0.0761 -0.0732
23821W        W39438  10.035  11.666   0.580 -0.1890  0.0007 -0.1658
23822W        W39439  14.314   0.623  16.320  0.0698 -0.1449 -0.2428
23823W        W39440   1.199   5.697   0.942  0.0070  0.2240  0.0093
23824W        W39441  15.671  11.041  16.513  0.0565 -0.1089 -0.1287
23825W        W39442   8.716   5.841   6.210 -0.3761  0.0305 -0.0346
23826W        W39443  10.642   3.839  12.145 -0.1021 -0.0014  0.1489
23827W        W39444  10.275  13.380  11.526 -0.0936  0.3130  0.2619
23828W        W39445   3.505  10.731  17.005  0.0827 -0.0261 -0.1876
23829W        W39446  15.650   4.685   3.641  0.2819 -0.1601 -0.0528
23830W        W39447   8.048   9.241  11.401  0.1318 -0.1495  0.1709
23831W        W39448   2.632   5.104  12.132 -0.4749  0.0006  0.3125
23832W        W39449   5.093  11.937   4.245  0.3135 -0.1111 -0.2527
23833W        W39450   8.897   6.212  11.860 -0.0383  0.1281  0.0143
23834W        W39451  14.215   2.257  12.883 -0.1420  0.0410 -0.2650
23835W        W39452  16.485  15.829   4.828 -0.3456 -0.1427 -0.2262
23836W        W39453  13.253  14.039  14.640 -0.0484 -0.0311 -0.0815
23837W        W39454   8.308   4.394   1.971 -0.1754  0.2648  0.3265
23838W        W39455   5.122  10.131  12.718 -0.0588  0.1309 -0.0207
23839W        W39456   4.671   0.653   2.723 -0.1028 -0.2028  0.1245
23840W        W39457   9.598   0.382   0.204 -0.0908 -0.1576 -0.1742
23841W        W39458  12.518  16.863   0.221 -0.0018  0.1001 -0.1709
23842W        W39459  14.036   3.826   0.925  0.1170  0.1746 -0.0851
23843W        W39460   5.544   8.065  14.909 -0.0330  0.0376  0.2339
23844W        W39461   8.818  17.444   4.882  0.1685  0.0067  0.1203
23845W        W39462  15.327   8.476  14.584  0.1741  0.0156 -0.0197
23846W        W39463   7.274  12.137  15.389  0.1998  0.0820 -0.0840
23847W        W39464  13.522   7.157   5.001  0.0390  0.4283  0.0490
23848W        W39465   8.892  13.146  14.938  0.0347 -0.1800  0.0458
23849W        W39466   5.449   5.766  13.595 -0.1063 -0.2106  0.2411
23850W        W39467  15.891  12.795   4.832  0.1892 -0.2071  0.2109
23851W        W39468   1.958  17.078   5.330 -0.2192  0.2128 -0.2017
23852W        W39469   3.438   7.983   4.131 -0.0596 -0.0461 -0.4000
23853W        W39470  10.015   2.227  13.501 -0.0881 -0.0785 -0.0392
23854W        W39471  13.407  14.182  11.424  0.1694 -0.1557  0.4451
23855W        W39472  13.479   1.425   5.824 -0.0890 -0.0427 -0.2623
23856W        W39473   0.266   8.150   5.174 -0.1074 -0.2914 -0.0494
23857W        W39474   4.439  10.032   4.587  0.0149  0.0160  0.0521
23858W        W39475   0.230   6.736  15.444 -0.2221  0.0038 -0.3234
23859W        W39476   8.159   3.561   3.950 -0.0055 -0.1770  0.0785
23860W        W39477   4.599  11.115  12.345 -0.1738  0.1667 -0.2495
23861W        W39478  15.575   7.957  17.005 -0.2920  0.1654  0.1749
23862W        W39479   3.128  11.872  13.270 -0.0640  0.2149  0.1235
23863W        W39480  15.093  11.176   3.666 -0.0661  0.1185 -0.1273
23864W        W39481   1.608   7.845  14.019 -0.0183 -0.2579  0.0037
23865W        W39482  10.670  12.422  12.412 -0.1468 -0.3438  0.2017
23866W        W39483   8.896  17.581  12.704 -0.0135  0.0402  0.0416
23867W        W39484  12.762   8.438   2.279  0.2650 -0.1278  0.4255
23868W        W39485   9.294  13.091   4.698  0.1640  0.2722 -0.1362
23869W        W39486  14.420  11.899   3.432 -0.0346 -0.0938  0.2099
23870W        W39487  13.463   6.951  16.472  0.2739 -0.0488  0.0422
23871W        W39488   7.298  13.179  15.104 -0.3647 -0.2315  0.2505
23872W        W39489  14.609   8.213  14.769 -0.0418  0.1418 -0.0361
23873W        W39490  15.653  16.546  11.892  0.0033 -0.0015 -0.0132
23874W        W39491  17.064   9.711   3.030  0.1591  0.3719  0.3179
23875W        W39492   5.909   5.688   0.074  0.1112  0.1099  0.1082
23876W        W39493   4.223  14.305   1.348 -0.2456  0.1920  0.0556
23877W        W39494   6.608   7.591  17.004 -0.1496 -0.0870 -0.0306
23878W        W39495  14.231   8.546  13.549  0.1952 -0.0017 -0.2085
23879W        W39496   3.046   2.038  13.296 -0.2301  0.1272  0.2252
23880W        W39497   6.420  16.000  12.873  0.0750 -0.0232 -0.2752
23881W        W39498   0.586  16.097  12.504 -0.2725  0.0647  0.1147
23882W        W39499  14.474  11.378  13.793 -0.1435 -0.0783  0.1559
23883W        W39500  13.594   6.077   3.074 -0.1473 -0.0216 -0.1065
23884W        W39501   2.501   8.625  12.302  0.0505 -0.1566 -0.1392
23885W        W39502   3.702   0.118  13.343 -0.1712  0.0392 -0.3671
23886W        W39503   5.366   1.201   5.748  0.1784 -0.2858  0.1518
23887W        W39504   7.739   2.533  14.591  0.1456 -0.0798 -0.0189
23888W        W39505  12.397  13.180  13.157 -0.0805  0.0835  0.1812
23889W        W39506  12.325   4.661   0.942  0.1087 -0.0839 -0.3511
23890W        W39507   8.222   6.861   0.999  0.1704  0.0080 -0.1052
23891W        W39508   8.874  14.686   3.753  0.2700 -0.4256  0.2588
23892W        W39509  13.264  15.636   3.072 -0.2876  0.0132  0.1621
23893W        W39510   2.941   8.408  13.581 -0.0434  0.0463  0.0877
23894W        W39511  13.427  16.465   3.477  0.2826 -0.0276 -0.3031
23895W        W39512  12.292  10.923   0.968 -0.0520 -0.1218 -0.0970
23896W        W39513   1.175  14.763  11.408  0.1513 -0.0150 -0.0728
23897W        W39514  15.639  11.643   0.664  0.3258 -0.0056 -0.1026
23898W        W39515  16.194   4.776  16.904 -0.0041  0.1947  0.1458
23899W        W39516  12.245   3.547   5.180 -0.1489 -0.0268 -0.1488
23900W        W39517   5.030   1.232  16.491  0.1565 -0.2159 -0.4818
23901W        W39518   8.421  12.971  13.700  0.0272 -0.1187 -0.1954
23902W        W39519   5.648   5.342   6.030  0.1367 -0.1920 -0.3528
23903W        W39520   2.309   0.257   2.972 -0.0442  0.0024 -0.1261
23904W        W39521  13.365  16.715   0.121  0.2735  0.0505  0.2570
23905W        W39522   8.667  13.310   5.560  0.2753  0.1018 -0.3387
23906W        W39523  11.296   4.142   2.601  0.1412 -0.2318  0.0782
23907W        W39524   1.892   2.554   4.421  0.0656 -0.1275 -0.0745
23908W        W39525   7.710   5.813   3.263  0.2531 -0.3350  0.0682
23909W        W39526   2.703   5.147  12.706 -0.0969 -0.1899  0.0887
23910W        W39527  12.888  15.537   3.859  0.1549  0.1288  0.2102
23911W        W39528   5.409   9.751   2.594  0.2473 -0.1133 -0.2708
23912W        W39529   1.991  13.941   3.735 -0.0198  0.5240 -0.1853
23913W        W39530  15.643   7.602  16.643  0.1296 -0.2324  0.1433
23914W        W39531  10.216   9.129   0.500 -0.0145  0.0122 -0.1506
23915W        W39532  13.966  10.778  13.340 -0.0874  0.3275  0.0060
23916W        W39533  12.089   6.684  16.449  0.0644  0.0268  0.0081
23917W        W39534  15.222   3.021  16.412  0.0174 -0.0025 -0.0580
23918W        W39535   7.665   3.406  16.821 -0.2316 -0.2232 -0.1726
23919W        W39536  15.827  17.301  14.808  0.3719  0.2048 -0.0749
23920W        W39537  17.530  13.347   4.585  0.1783 -0.1706  0.0635
23921W        W39538   7.750   3.400   1.193 -0.1517 -0.4241  0.2356
23922W        W39539   4.492   4.452   0.636  0.0972 -0.2801  0.0153
23923W        W39540   6.338   0.075   0.228  0.0698 -0.0275 -0.3906
23924W        W39541   8.950   1.704  12.620 -0.0403  0.2698 -0.0307
23925W        W39542   9.409  11.399   0.094 -0.0223 -0.0643 -0.1336
23926W        W39543   2.870   8.309  16.617 -0.1758  0.5235  0.1705
23927W        W39544   0.501  16.067  11.496 -0.0635 -0.1207  0.1875
23928W        W39545  15.235   9.800   1.702  0.0312 -0.1765  0.2862
23929W        W39546  11.872   0.938   4.582  0.0868  0.1371 -0.0633
23930W        W39547  15.181   6.835  13.534 -0.4123  0.0700 -0.3968
23931W        W39548   0.671   4.628   5.267 -0.1311  0.2010 -0.0628
23932W        W39549  15.478   3.159   1.472  0.0332  0.0555 -0.0564
23933W        W39550  17.161   1.896   1.565  0.2846 -0.1957 -0.0485
23934W        W39551  16.216   8.806   5.126 -0.0689  0.0651 -0.0562
23935W        W39552   9.497   3.813  15.068 -0.2465  0.2027  0.0877
23936W        W39553  13.616  15.351   0.278  0.1151 -0.0505  0.0568
23937W        W39554  17.443  15.383  16.826 -0.2071  0.0782  0.0815
23938W        W39555   7.938   8.846   4.464 -0.1403  0.0231 -0.1762
23939W        W39556  16.690  13.393   0.887  0.0936 -0.1567  0.0723
23940W        W39557  16.498   2.485   5.277 -0.1688 -0.0196 -0.1051
23941W        W39558  16.029   9.121   5.462 -0.3011  0.2542 -0.0062
23942W        W39559   1.379  11.885  12.721 -0.2066  0.0430  0.1461
23943W        W39560  13.824   7.382  15.654 -0.0971 -0.3313  0.0668
23944W        W39561  16.063  11.636   2.315 -0.1828  0.2211 -0.0555
23945W        W39562   4.684   8.175   0.559 -0.1996 -0.3845  0.1133
23946W        W39563   6.907  16.450  11.626  0.1603 -0.1973 -0.0892
23947W        W39564   1.913   8.558   1.671  0.2636 -0.1930  0.2287
23948W        W39565   4.739   2.172   5.785 -0.1004  0.1219  0.0873
23949W        W39566   6.620  13.790   2.173 -0.0187 -0.1100 -0.0158
23950W        W39567   5.534  17.407  15.469  0.1372 -0.0996 -0.0272
23951W        W39568   4.486   0.584  16.630  0.2849 -0.3435 -0.3309
23952W        W39569   6.561  14.715   2.845 -0.0650  0.0428  0.2139
23953W        W39570   0.311  10.275  16.195 -0.0665 -0.1278 -0.1143
23954W        W39571   3.562   1.024   3.572 -0.0248 -0.0069  0.2496
23955W        W39572   9.682  15.746   0.923  0.1041  0.4342  0.1573
23956W        W39573  11.657   4.148   3.721 -0.1894 -0.0734  0.1757
23957W        W39574   8.309   4.751  17.085  0.1137  0.1993  0.2804
23958W        W39575   2.967   3.642   1.250  0.1618  0.1273  0.0321
23959W        W39576   2.752  12.615   2.303 -0.0042  0.0722 -0.0977
23960W        W39577   0.117  14.909  15.449  0.1607  0.1145  0.3180
23961W        W39578  10.795  13.421   4.400 -0.0837  0.0745 -0.0523
23962W        W39579  16.102   6.958  15.219  0.1223  0.1823  0.1627
23963W        W39580   3.971   7.255   0.453 -0.1435 -0.0583 -0.1323
23964W        W39581   4.330  12.242  13.585  0.2427  0.0529 -0.3336
23965W        W39582   2.624  11.111   5.282  0.1747 -0.1837  0.4205
23966W        W39583   3.502   5.674   4.218 -0.0002  0.2324  0.0703
23967W        W39584   2.695   4.312  14.815 -0.0543  0.2482  0.2704
23968W        W39585   6.885  10.730   3.202  0.1056 -0.0798 -0.2926
23969W        W39586   8.128   7.921  13.824 -0.3274 -0.0769  0.0590
23970W        W39587   0.627  12.536   2.139 -0.3786  0.1236 -0.1948
23971W        W39588   3.243   1.605   5.044  0.4276 -0.1008 -0.1692
23972W        W39589   5.424   7.883   2.264  0.0056 -0.1087  0.2389
23973W        W39590   5.252   6.255  16.655 -0.1159 -0.1274 -0.0095
23974W        W39591   6.658   2.151  16.655  0.0111 -0.1465  0.1979
23975W        W39592   1.896  10.693   3.699 -0.1089  0.1700 -0.0004
23976W        W39593   3.060  11.810   4.752 -0.2107 -0.1985  0.1323
23977W        W39594   4.293  15.550   3.293  0.1615  0.1876  0.0780
23978W        W39595   1.433  16.783   5.125  0.1785 -0.0988  0.1005
23979W        W39596  16.166   4.072   2.492 -0.0937 -0.2523 -0.0544
23980W        W39597  12.523  10.183  13.494  0.0998 -0.0881  0.1809
23981W        W39598  16.559   6.693  16.350  0.1774 -0.3344 -0.0703
23982W        W39599  15.331  17.573   4.108  0.0824 -0.0160  0.1483
23983W        W39600  16.830  11.966   3.192 -0.3707 -0.0897  0.1550
23984W        W39601  12.449   8.903  12.756  0.0557 -0.1541  0.2192
23985W        W39602   1.489   6.056   6.238 -0.0756  0.1537  0.2495
23986W        W39603   4.843   6.377  14.123  0.0220 -0.2012 -0.3025
23987W        W39604  13.279   9.007   0.044  0.1960  0.0827 -0.0242
23988W        W39605  12.837   1.627   2.078  0.2746 -0.1868  0.0745
23989W        W39606  16.700   0.039  17.200  0.3351  0.0719 -0.3136
23990W        W39607   8.681  11.317  14.151 -0.1635 -0.1677 -0.0618
23991W        W39608  12.534  10.161  14.746 -0.0014 -0.0743  0.1985
23992W        W39609   3.899   6.840  16.717 -0.0328 -0.1154  0.0466
23993W        W39610   5.618   0.547   2.296  0.0559  0.0113  0.2190
23994W        W39611   1.147  15.961  15.752  0.1573  0.1429  0.0668
23995W        W39612   9.332   1.215  11.942 -0.2418 -0.0752 -0.1113
23996W        W39613   6.984   9.183   2.086  0.0500  0.0790  0.2956
23997W        W39614   2.015   0.965   2.579 -0.0978 -0.2191  0.0338
23998W        W39615   6.025  15.931   1.762 -0.3829 -0.0647  0.3966
23999W        W39616  14.935  13.635   2.859  0.3174  0.0750  0.1763
24000W        W39617   1.854  15.715  17.248  0.2495 -0.2994  0.2928
24001W        W39618  16.419   5.512   1.757  0.0496 -0.2430  0.3076
24002W        W39619  16.674  16.145   0.359  0.3732  0.0405 -0.4362
24003W        W39620   7.077  16.403  13.416  0.0403  0.1769  0.0669
24004W        W39621  11.632  12.348  16.075  0.2047  0.1992  0.1419
24005W        W39622   7.120   1.955  15.584 -0.1660  0.0665 -0.1090
24006W        W39623  15.776   5.481   1.343 -0.0254 -0.0617  0.0017
24007W        W39624  14.787   7.584  15.675 -0.0779 -0.0827  0.1471
24008W        W39625   4.263  15.963  13.348  0.2251  0.1511  0.1527
24009W        W39626  12.440  14.474   3.509  0.1694 -0.1412  0.1932
24010W        W39627  16.709   7.563   4.329 -0.1596  0.3033  0.0716
24011W        W39628  12.310  16.639  12.955 -0.1703  0.2899  0.2722
24012W        W39629  10.005   4.872  12.703  0.2186 -0.0298 -0.0325
24013W        W39630  13.063  17.472   1.303  0.0470 -0.0312 -0.0737
24014W        W39631   0.898   1.594   5.345  0.0965  0.1351  0.0769
24015W        W39632   3.048   7.842  16.792 -0.1801  0.0326  0.0208
24016W        W39633  14.539   5.664   5.169  0.2087  0.0689 -0.0947
24017W        W39634  12.073  16.547  16.966  0.0491  0.1598 -0.1809
24018W        W39635   3.724   2.621  14.772  0.0568  0.0707 -0.0186
24019W        W39636  17.511   9.393   4.985 -0.1826  0.0008 -0.1500
24020W        W39637  15.327   4.964  14.263  0.1031 -0.2216  0.1065
24021W        W39638  15.854   7.385  16.240 -0.1942  0.1448  0.1776
24022W        W39639  13.945   9.170   1.020  0.1137 -0.3001 -0.0007
24023W        W39640  16.638   3.998   1.383 -0.2558  0.0040 -0.3478
24024W        W39641   4.786  15.593  15.295 -0.1591 -0.1614 -0.1095
24025W        W39642  17.432   1.964  13.022  0.0211 -0.0032 -0.0645
24026W        W39643  14.645  17.590   5.554 -0.0567  0.2087  0.1239
24027W        W39644   8.491   9.993   4.801 -0.2556  0.5481  0.2059
24028W        W39645  14.108   7.901  16.320 -0.0388 -0.0803 -0.2825
24029W        W39646  12.031  17.078   0.387 -0.0041  0.3236  0.1220
24030W        W39647   8.314  11.618  13.827 -0.0815 -0.2748 -0.3383
24031W        W39648   7.650  14.799  15.629 -0.0415  0.0293 -0.1687
24032W        W39649  12.262   9.321  13.978  0.1472 -0.0850 -0.1777
24033W        W39650  13.361   3.103  11.914 -0.0913  0.2272 -0.0270
24034W        W39651  12.363   8.954  12.001  0.1508 -0.1996 -0.3267
24035W        W39652   3.981  15.961  12.609 -0.4577  0.1862  0.0401
24036W        W39653   9.271  16.843  12.880 -0.2160 -0.0439  0.0174
24037W        W39654   2.499   7.184   4.412  0.0540  0.0488  0.1930
24038W        W39655  17.292  10.026   1.416 -0.0967  0.0522  0.1706
24039W        W39656   5.826   4.311   2.812 -0.1468  0.1299 -0.0855
24040W        W39657  14.045  14.359   1.868  0.0319 -0.0895 -0.3005
24041W        W39658   3.064  14.421   1.749  0.0599  0.0544 -0.0579
24042W        W39659   2.858   7.751  15.718  0.1599 -0.0774 -0.1117
24043W        W39660   8.796  13.670   0.607  0.3566 -0.1555 -0.2302
24044W        W39661   7.577   3.875   1.485  0.2897  0.1449 -0.1134
24045W        W39662  14.624   7.186   4.165  0.2079 -0.1918  0.1393
24046W        W39663  13.099   5.784  15.781  0.1328 -0.0211  0.1484
24047W        W39664   0.574   2.303   2.351  0.1503 -0.1663  0.1388
24048W        W39665  13.749   4.290  16.052 -0.4975  0.3686 -0.2796
24049W        W39666  13.138   4.728  15.659  0.1977  0.1963 -0.1777
24050W        W39667   1.600   9.723  15.066 -0.0535 -0.2380 -0.1438
24051W        W39668  11.347   8.553   6.623 -0.2988 -0.0870 -0.0715
24052W        W39669   5.780  13.492  14.012  0.3447  0.0454  0.0168
24053W        W39670  16.006  16.025  13.692 -0.0992  0.3532 -0.1540
24054W        W39671   2.388   0.577   1.031 -0.1216 -0.0140  0.1580
24055W        W39672   5.290   7.493  12.381  0.4715 -0.1291  0.0324
24056W        W39673   3.581  15.268   1.192 -0.3214  0.1854 -0.0227
24057W        W39674   2.559   3.418   5.805  0.3130 -0.3075 -0.0995
24058W        W39675  10.245   6.594  12.566 -0.3310  0.3556 -0.3250
24059W        W39676  15.355  17.501  13.854  0.2416 -0.0789 -0.3552
24060W        W39677   0.887  13.446   1.224  0.0924  0.3747 -0.0231
24061W        W39678   0.013  16.147  11.781  0.2063  0.2319 -0.0336
24062W        W39679   1.551   4.859   2.817 -0.0448  0.0292  0.0754
24063W        W39680   2.776  14.490   0.205  0.2505 -0.1158 -0.0501
24064W        W39681   9.528   6.229   2.496  0.0481 -0.2162  0.2797
24065W        W39682   8.234  10.489  15.183  0.3662  0.0029 -0.0732
24066W        W39683   4.561   2.549   2.427 -0.0543 -0.1619  0.0487
24067W        W39684   4.373   1.568  12.352  0.2553  0.2243 -0.1844
24068W        W39685  15.894   3.631  16.683 -0.0436  0.2779  0.3594
24069W        W39686   1.585  13.201  15.442 -0.4907 -0.1823 -0.0873
24070W        W39687   8.262  17.370  11.489  0.1424 -0.0869 -0.0333
24071W        W39688  12.760   4.557   1.186  0.0665  0.1165 -0.1249
24072W        W39689   1.483   3.808   1.518 -0.0936  0.1646 -0.1839
24073W        W39690  12.041  13.963   1.481  0.0070 -0.0110  0.3548
24074W        W39691  15.555  13.290   4.936  0.2560 -0.3463  0.1245
24075W        W39692  11.614   1.124  12.929  0.2494  0.0346  0.0895
24076W        W39693   1.155   1.093  13.920  0.0037 -0.0270  0.0383
24077W        W39694   5.205   0.802   3.766  0.4624  0.4416  0.0599
24078W        W39695   7.707   6.952  13.821 -0.1095 -0.1276  0.3857
24079W        W39696   9.024   4.846   0.094 -0.0944  0.1217  0.3316
24080W        W39697  11.026   7.487   4.456  0.0699 -0.0735 -0.2518
24081W        W39698   5.485  13.530   2.926 -0.2919  0.0283  0.0655
24082W        W39699  14.435   2.650  13.235  0.1051 -0.1343  0.1451
24083W        W39700   4.939   5.232   4.557 -0.0652 -0.0887 -0.1109
24084W        W39701   4.261   5.116   6.142  0.0465  0.0464 -0.0041
24085W        W39702   3.472   6.007   2.357 -0.1178 -0.1517 -0.0710
24086W        W39703  11.317   4.760   6.193  0.3043  0.5022  0.0939
24087W        W39704   7.458  12.490  15.811  0.1447 -0.1707 -0.1302
24088W        W39705  15.681   1.302   3.233  0.1070 -0.0645 -0.0303
24089W        W39706   2.105  17.296   2.796 -0.1013  0.0081  0.0185
24090W        W39707  11.917  11.362  16.028 -0.0403  0.0689 -0.1702
24091W        W39708  17.215   3.292  13.335 -0.0069 -0.1028 -0.5589
24092W        W39709   1.084   2.093   0.126  0.3730 -0.1412 -0.1806
24093W        W39710  11.242   5.403  14.578  0.3251 -0.0949  0.0928
24094W        W39711  12.090   5.405  15.525 -0.2616  0.0097 -0.0081
24095W        W39712   1.626  14.419   5.659  0.0683  0.2447  0.1555
24096W        W39713  13.080  17.130  13.654  0.0256  0.1218 -0.0174
24097W        W39714  12.109   2.202   1.523  0.0653 -0.1018  0.0618
24098W        W39715   8.864  14.090  12.775 -0.1947  0.1612 -0.0599
24099W        W39716   2.376  13.087  17.154 -0.2814  0.0550 -0.1024
24100W        W39717  16.700  11.425   3.261 -0.2588 -0.0660 -0.0864
24101W        W39718   5.136  10.968   0.743  0.3216 -0.1569 -0.2075
24102W        W39719   4.797  17.514  17.134 -0.3606  0.1331 -0.1937
24103W        W39720   5.181   3.185  15.534  0.0429  0.3944 -0.0753
24104W        W39721  16.049  10.446  13.465 -0.2125  0.2298  0.2075
24105W        W39722   7.628   9.521   0.871  0.1858  0.1161 -0.0448
24106W        W39723  11.669   7.813   2.940  0.0599 -0.0457  0.0433
24107W        W39724  10.909  11.941  14.702 -0.3832 -0.4982  0.1018
24108W        W39725  12.294   5.519   3.168  0.0452  0.0755  0.2547
24109W        W39726   8.977  10.120   4.720  0.2451  0.3246 -0.1662
24110W        W39727  11.744  11.089  11.784 -0.0003  0.1534 -0.4303
24111W        W39728  11.949   5.137   3.472 -0.1343 -0.1420 -0.0303
24112W        W39729   9.574  12.671   4.631 -0.0429  0.2277  0.0899
24113W        W39730  11.298  15.549   4.686  0.0823  0.3145 -0.0878
24114W        W39731  16.239   2.735  13.402  0.1309 -0.2385 -0.1336
24115W        W39732   5.743  12.717  12.549  0.1457  0.3150 -0.1438
24116W        W39733   5.173  10.853   6.042 -0.3281  0.0524 -0.1362
24117W        W39734  15.830  11.355   4.007 -0.1960  0.0486 -0.2287
24118W        W39735  13.639  14.987  11.581  0.0865  0.1018 -0.0561
24119W        W39736   7.295   1.422  15.507  0.0180 -0.0439  0.2761
24120W        W39737   5.295  11.704  14.536 -0.1645 -0.0149  0.1044
24121W        W39738  17.252   5.479   5.093 -0.0538 -0.0584  0.2376
24122W        W39739  16.484   6.710  13.475  0.1088 -0.0046  0.0278
24123W        W39740  13.169   7.573   2.797  0.1630 -0.1463  0.2485
24124W        W39741  11.585  14.583   4.637  0.0180  0.3250  0.0168
24125W        W39742   3.496   2.105  16.034 -0.0990  0.2683  0.0600
24126W        W39743  11.896  13.871   2.874  0.2392 -0.1679 -0.1011
24127W        W39744   1.870  12.475  14.561  0.3272  0.0635  0.1615
24128W        W39745   9.359   8.404  15.385 -0.0870  0.0296 -0.2209
24129W        W39746  14.337   2.366  11.477 -0.0399  0.0552  0.3487
24130W        W39747  11.634   7.915  15.393  0.1470  0.1629 -0.0891
24131W        W39748  12.402   3.905  15.331  0.0978 -0.0958 -0.0648
24132W        W39749   4.618  13.005   1.325  0.1221  0.1558 -0.0724
24133W        W39750  15.321  10.556   4.893  0.1358  0.0666  0.2449
24134W        W39751   9.133   2.112   5.151 -0.1295  0.1238  0.0044
24135W        W39752  16.008  17.367  12.707 -0.2001  0.4496 -0.0308
24136W        W39753   6.301  11.408   3.800 -0.1703 -0.1918  0.2254
24137W        W39754   6.682   4.580   6.071  0.1584 -0.0293 -0.1024
24138W        W39755   0.715   6.046   0.438 -0.1415 -0.2095 -0.0983
24139W        W39756   6.599   3.692   3.244 -0.0570 -0.1076  0.1423
24140W        W39757   5.522  10.404  14.545 -0.0629 -0.0266  0.3246
24141W        W39758   0.208  11.310   6.274 -0.5440  0.1436 -0.1246
24142W        W39759  15.947   8.395  13.109  0.0512  0.4737  0.0087
24143W        W39760   0.959   7.312   0.889 -0.0534 -0.2597  0.2042
24144W        W39761  11.779  12.671   5.726 -0.0993 -0.3381  0.2282
24145W        W39762  13.167  16.946   3.487  0.2608 -0.0305 -0.2902
24146W        W39763  10.141   4.529  15.191  0.1339 -0.2095  0.0282
24147W        W39764   0.296  17.032   2.791  0.0806  0.3639 -0.0293
24148W        W39765   5.279  11.169  14.779 -0.1183  0.1494 -0.2422
24149W        W39766  10.665   8.295  17.236  0.0120  0.5143  0.1201
24150W        W39767   7.515   2.788  15.697 -0.2103 -0.0604 -0.0816
24151W        W39768  10.728  13.364  16.631  0.1989  0.0329 -0.1342
24152W        W39769   5.468   3.808   5.159  0.2433  0.1282  0.1183
24153W        W39770  17.016  14.419  16.586 -0.3302  0.0860  0.1900
24154W        W39771   9.212  15.005   2.888 -0.1916 -0.0232 -0.0578
24155W        W39772  12.754   0.372   4.274 -0.1200 -0.1730  0.0004
24156W        W39773   1.081  15.907   2.390 -0.1007  0.1713 -0.3655
24157W        W39774  11.715  13.156  13.897 -0.0572  0.3147 -0.1068
24158W        W39775   4.650   4.384  13.863  0.0625  0.0706 -0.0043
24159W        W39776   7.710  15.704   1.076  0.0360  0.0461  0.0626
24160W        W39777   3.788   1.933   6.013 -0.0993 -0.4843  0.0685
24161W        W39778  17.488   5.857   1.355 -0.0371 -0.1907  0.0222
24162W        W39779  17.251  11.542   4.189 -0.0580  0.0181 -0.1273
24163W        W39780  15.188   6.436   5.992 -0.0416  0.0312  0.1819
24164W        W39781   7.976   8.091   2.428  0.0662  0.2168  0.1420
24165W        W39782   4.172   7.899   3.097 -0.0342 -0.2721  0.2109
24166W        W39783   1.554   2.556   1.035 -0.0548  0.1532 -0.0016
24167W        W39784   2.722   0.658  15.938 -0.1755 -0.4227  0.1394
24168W        W39785   2.337   9.150   5.052  0.0915 -0.1597  0.0982
24169W        W39786  11.963   5.568  14.316  0.0845  0.1036 -0.0065
24170W        W39787   5.402  14.881   0.612 -0.0362  0.0771  0.1412
24171W        W39788   5.417   1.992   3.909  0.3331 -0.2151  0.2593
24172W        W39789  12.014  10.524   6.189  0.0971 -0.4376  0.0205
24173W        W39790  12.773  13.347  13.450  0.2089  0.0527 -0.2554
24174W        W39791   4.803   0.877  15.823  0.0465  0.1899 -0.0223
24175W        W39792  16.503  12.216  16.751  0.3172 -0.1099  0.2141
24176W        W39793  13.656  12.828  14.703 -0.0127 -0.0032 -0.1892
24177W        W39794   3.087   8.698   0.119 -0.1551  0.1176  0.2022
24178W        W39795   2.843   6.254   0.891 -0.1047 -0.0829  0.0634
24179W        W39796  11.782   8.722  15.473 -0.2439  0.2345  0.1356
24180W        W39797  13.344   7.185  15.544  0.0540 -0.0360  0.0766
24181W        W39798   6.803  13.009   2.465 -0.0343  0.1456 -0.3194
24182W        W39799   4.002   0.622  16.581  0.0654 -0.0153 -0.1659
24183W        W39800   0.916  16.815  15.497  0.2950  0.0219 -0.0347
24184W        W39801  14.951   9.397  12.401  0.2189  0.1443 -0.0135
24185W        W39802   8.100   3.760   3.169 -0.0475  0.0409 -0.2278
24186W        W39803   2.730  16.356   0.606  0.1209 -0.1959  0.1091
24187W        W39804  15.362   7.436   2.510  0.0200  0.3336  0.2609
24188W        W39805  16.805   9.660   2.301 -0.2977  0.2269  0.0549
24189W        W39806  13.450  12.922  11.862  0.0165 -0.1655 -0.0205
24190W        W39807  13.906   8.683  14.969  0.0130 -0.1498  0.0989
24191W        W39808   8.375   7.138  15.731  0.2562  0.0420  0.2516
24192W        W39809   4.552   6.011   3.550  0.3570 -0.0684  0.1374
24193W        W39810  10.039   5.547  14.344 -0.0105 -0.1304  0.1129
24194W        W39811  10.828   5.950   5.486  0.0353 -0.1178  0.0416
24195W        W39812   8.878  15.767   1.333 -0.1268  0.1843 -0.1330
24196W        W39813  11.475   0.605   1.944 -0.0850 -0.0520 -0.1935
24197W        W39814   8.657   3.906  14.222 -0.0383  0.0806  0.3364
24198W        W39815  14.970   6.379   5.488 -0.2206 -0.0859 -0.0064
24199W        W39816  10.787   8.751   2.953  0.0904 -0.1282 -0.0498
24200W        W39817   7.649  12.763  16.145 -0.0044 -0.3370  0.0243
24201W        W39818  15.522  13.846   6.218  0.0473  0.2003 -0.1947
24202W        W39819  14.103   9.716   2.663  0.4026  0.0713  0.0621
24203W        W39820  12.105   0.892   0.625  0.1387 -0.4075  0.0033
24204W        W39821  11.560   6.971  16.595 -0.0219  0.1095 -0.1132
24205W        W39822   5.020   8.136   6.650 -0.0703 -0.1068 -0.0053
24206W        W39823   4.525  11.549   3.551 -0.0267 -0.1356 -0.2826
24207W        W39824  16.742  17.566  11.731 -0.1734  0.1106  0.0418
24208W        W39825  13.624  11.524   0.979  0.0889  0.0214  0.0639
24209W        W39826  13.905   7.857   4.655  0.1860  0.1096  0.0289
24210W        W39827  17.410   4.145   1.335 -0.0714 -0.2631 -0.0030
24211W        W39828   6.883   5.892  15.043 -0.0689  0.1178 -0.0736
24212W        W39829   0.600   2.786   4.614  0.2483 -0.0191 -0.0608
24213W        W39830   5.291  14.613   2.176 -0.1317  0.0242  0.1044
24214W        W39831  12.018   5.957   3.433 -0.1707  0.0052 -0.2606
24215W        W39832   1.492  16.235   5.775 -0.1536  0.1959 -0.2665
24216W        W39833  15.089   0.095   5.460 -0.1972  0.0978  0.0097
24217W        W39834   0.401   0.513  13.006 -0.0107 -0.0996 -0.1015
24218W        W39835   7.550  15.820   0.157 -0.3045 -0.2260 -0.0865
24219W        W39836   7.578   5.030  14.084  0.1426  0.2851  0.1894
24220W        W39837   8.024  14.653  11.046 -0.0147 -0.1512 -0.2030
24221W        W39838   3.727  13.986  14.583  0.2417  0.0528 -0.0753
24222W        W39839   2.730   1.417  15.176  0.1407  0.0076  0.3557
24223W        W39840   7.670   1.705   4.753 -0.1388  0.0119 -0.0659
24224W        W39841   8.660   5.333   1.487  0.0532 -0.1728  0.2423
24225W        W39842   5.420  13.073   3.557  0.0487 -0.2740 -0.0652
24226W        W39843  11.249   9.793   5.200  0.2138  0.0971 -0.2538
24227W        W39844  10.343   6.810   2.739  0.1661 -0.1599  0.0296
24228W        W39845   5.620  14.644   5.471 -0.0894  0.0436 -0.0475
24229W        W39846  17.017   5.660  16.717  0.0741 -0.0145  0.1884
24230W        W39847  17.298   3.866  16.761 -0.1043 -0.0252  0.1751
24231W        W39848   1.489   1.480  11.779  0.0445  0.1508 -0.1631
24232W        W39849  12.129  15.772   4.969 -0.2932  0.0147 -0.1719
24233W        W39850  10.322  14.550   1.051 -0.0121 -0.0166  0.0040
24234W        W39851  13.924  11.084   2.133  0.0311  0.0260 -0.3161
24235W        W39852  13.231   0.464   4.339  0.1052 -0.0955  0.1409
24236W        W39853  10.851  12.814   1.286 -0.1253 -0.0976 -0.0819
24237W        W39854   3.849   4.312  12.602 -0.2148  0.0591 -0.1410
24238W        W39855   2.658   7.752  17.138 -0.3153  0.0152 -0.1427
24239W        W39856   5.884   9.768  14.050 -0.1311  0.3477  0.0022
24240W        W39857  15.161  13.855  16.714 -0.2413 -0.1458 -0.1333
24241W        W39858   4.301   7.794  14.677 -0.0864  0.0905  0.2352
24242W        W39859  15.406  13.797   5.697  0.0409  0.0638  0.1255
24243W        W39860  14.860   2.594   4.105  0.2177 -0.0978  0.2544
24244W        W39861  16.694  14.527   3.429  0.0372 -0.1671 -0.1869
24245W        W39862  10.585  10.967  15.838  0.0514  0.1193  0.0740
24246W        W39863   3.220  12.227   0.556 -0.0776  0.0580 -0.0827
24247W        W39864  13.958   3.444   4.566 -0.2923 -0.0341  0.2049
24248W        W39865  10.123   1.381  13.129 -0.1477  0.0436  0.1200
24249W        W39866  17.179  13.657   5.491  0.2095 -0.1962 -0.2448
24250W        W39867   9.896  15.099  14.874  0.2166 -0.1892  0.4314
24251W        W39868  12.971  16.358   4.398 -0.0147 -0.0310  0.4723
24252W        W39869  15.592   4.428  15.650 -0.1706  0.0668  0.1911
24253W        W39870   7.340   5.776  14.754 -0.1061 -0.1805  0.2205
24254W        W39871   8.054   5.538   1.569 -0.0828 -0.0204  0.0681
24255W        W39872   1.452   6.504   5.907 -0.2003 -0.1902 -0.0747
24256W        W39873   2.349  10.500   5.508 -0.1239  0.1211 -0.3612
24257W        W39874  13.250  10.037   3.915 -0.1703  0.2125  0.0680
24258W        W39875   6.869   9.162   0.523  0.3183  0.1739 -0.0303
24259W        W39876  16.615  13.828   4.854  0.0479 -0.3484 -0.1215
24260W        W39877   9.307   5.058  12.100  0.1890  0.2440  0.1735
24261W        W39878  13.512   6.635   3.767 -0.0286  0.3387 -0.0710
24262W        W39879  16.830   5.734   5.759 -0.0347 -0.1981  0.0172
24263W        W39880  14.326   5.780  17.238  0.0185  0.2312  0.0576
24264W        W39881   0.193  16.591  15.879 -0.3106 -0.1332  0.0911
24265W        W39882  17.309   1.538   3.013  0.3635  0.0964  0.0869
24266W        W39883   6.669  14.087   3.687 -0.4056 -0.0430 -0.3086
24267W        W39884  14.991  16.509   0.831  0.1010  0.3233  0.0326
24268W        W39885   3.793   1.101   5.010  0.2369 -0.0517 -0.0471
24269W        W39886  12.800  11.891   1.131 -0.1014  0.1781  0.2040
24270W        W39887   1.167   7.274   3.745  0.1618 -0.0121  0.3854
24271W        W39888   1.481  12.283   3.859 -0.1538 -0.0991  0.1564
24272W        W39889   6.380  11.228   1.741 -0.2754  0.0246 -0.1014
24273W        W39890  13.605   9.527   3.653  0.1745 -0.0355 -0.0936
24274W        W39891   1.299  13.022  13.476 -0.3334 -0.2502  0.0023
24275W        W39892  12.080   3.164  13.427  0.1640 -0.2062  0.1031
24276W        W39893   8.088  17.130   3.077  0.1605  0.0288 -0.0387
24277W        W39894  12.374   6.961   3.221 -0.3661  0.0464  0.1216
24278W        W39895  10.138   4.381  16.154 -0.0406  0.1086  0.1393
24279W        W39896  16.801   3.538  11.091 -0.0492  0.1238  0.0188
24280W        W39897   3.358  12.616   2.031 -0.2312  0.1325  0.0965
24281W        W39898  13.659   4.332   2.581 -0.2637 -0.2809 -0.0750
24282W        W39899   3.315  13.650  14.769  0.0500  0.0838  0.0516
24283W        W39900  17.539   7.567  16.717  0.1869  0.1789 -0.0473
24284W        W39901   0.039   7.146   3.648  0.2628  0.2122 -0.0024
24285W        W39902   3.720   0.321  17.159 -0.0489 -0.0966  0.0862
24286W        W39903   3.143   7.791   0.509  0.3225  0.0544 -0.0173
24287W        W39904   1.026  10.090   3.298 -0.0610  0.2238  0.1104
24288W        W39905  13.513   0.920   2.905  0.0838  0.0498  0.1839
24289W        W39906   7.725  15.366   0.102 -0.0363 -0.0862  0.1714
24290W        W39907  13.409   8.446   2.367 -0.0627 -0.2124 -0.3191
24291W        W39908  14.204   9.935  13.498  0.2571  0.0600 -0.0734
24292W        W39909   0.380  13.757  12.176 -0.1853  0.0666 -0.2839
24293W        W39910   4.967   3.429  13.153  0.3984 -0.0932 -0.0669
24294W        W39911   1.773  12.687   5.474 -0.0087 -0.0149  0.0097
24295W        W39912   6.542  12.666  15.229 -0.1022 -0.0063  0.2082
24296W        W39913  13.234   3.405   6.133  0.1184 -0.1392  0.0994
24297W        W39914   4.785   1.789   4.673 -0.1507 -0.1622  0.0591
24298W        W39915  15.518  16.274  14.372  0.0218 -0.1676  0.1749
24299W        W39916   7.412  15.395   1.376  0.0184  0.1899  0.1060
24300W        W39917   6.549   7.727  13.686  0.0277 -0.1146  0.0597
24301W        W39918  12.274   0.908  14.235  0.1227  0.0324  0.1264
24302W        W39919  11.434  15.540   5.184  0.0842  0.2398  0.0811
24303W        W39920  13.435  15.957  15.817 -0.2665  0.0347 -0.0469
24304W        W39921  12.107  14.467  12.615 -0.1028  0.0944 -0.0636
24305W        W39922   2.843  15.487   3.805  0.1220 -0.0207  0.0907
24306W        W39923   7.936   4.534   0.189  0.0981  0.1440  0.2170
24307W        W39924  11.593  14.223   2.706 -0.0784  0.2355  0.3329
24308W        W39925   6.207  12.446  16.793  0.0199 -0.3176 -0.1560
24309W        W39926  16.558   2.447   1.803 -0.1457 -0.3723  0.0486
24310W        W39927   9.818   1.007   1.592 -0.4648 -0.0529  0.1561
24311W        W39928  17.564  15.462   5.479 -0.0648 -0.0669  0.1973
24312W        W39929   4.405   3.744   4.334  0.2480  0.3279  0.2862
24313W        W39930  15.491   7.319   1.970  0.1701  0.3056  0.3210
24314W        W39931   2.564  16.698  13.630  0.3356 -0.3392  0.1546
24315W        W39932  15.758  10.016   1.619  0.0577  0.0955 -0.0420
24316W        W39933   5.311   3.688  12.809  0.0288 -0.1229 -0.0921
24317W        W39934  10.511   2.998  13.894  0.2310  0.1172  0.0682
24318W        W39935   3.522   8.491  17.109  0.0503  0.1834 -0.0201
24319W        W39936   1.128  12.121   4.229  0.0572 -0.3321 -0.1739
24320W        W39937  13.527   4.914   5.593 -0.1509 -0.0727  0.1823
24321W        W39938   6.635  17.134  16.241 -0.1166  0.2146  0.2329
24322W        W39939   3.060   1.305  15.850 -0.0470  0.1486 -0.0614
24323W        W39940   9.471   4.152  11.361  0.0729 -0.3119  0.2109
24324W        W39941   3.703  12.497  14.712 -0.3700  0.1106 -0.1803
24325W        W39942  16.943   2.133   3.503 -0.1782 -0.0217 -0.1881
24326W        W39943  13.002   2.103   2.004 -0.1131 -0.1912  0.1480
24327W        W39944  13.571  11.993  12.695  0.0405 -0.0337  0.0694
24328W        W39945   7.109  10.083   3.760 -0.3102  0.0613 -0.2806
24329W        W39946   8.259   3.529  14.636  0.1617  0.0797  0.0616
24330W        W39947   4.879   8.625   0.876  0.1536 -0.1785 -0.1543
24331W        W39948   5.145   9.527  16.860  0.0767  0.1551 -0.1829
24332W        W39949   9.046   0.258   3.961 -0.0193  0.0564 -0.1613
24333W        W39950   4.247   3.005  17.216 -0.2902 -0.0978 -0.1800
24334W        W39951  17.083   6.455  15.688 -0.1041 -0.2074  0.1088
24335W        W39952   3.023   8.270   0.365  0.2849  0.1557 -0.1802
24336W        W39953   5.241  10.823  14.400  0.0652 -0.1934  0.0583
24337W        W39954  14.532   4.848   5.092  0.2226  0.3416 -0.0664
24338W        W39955   3.942  17.550  12.280  0.2153 -0.0484 -0.1563
24339W        W39956  11.634   4.331   2.328  0.2240 -0.3848  0.2767
24340W        W39957   5.432   4.469  13.667  0.0464  0.0736 -0.2494
24341W        W39958  17.308   9.694   3.551  0.1491 -0.0859  0.0751
24342W        W39959   7.914   8.883  13.760  0.0359 -0.1878 -0.0501
24343W        W39960   1.960  14.855  14.319  0.3869  0.0273 -0.0181
24344W        W39961   5.151  11.200   1.220 -0.0045 -0.1494  0.2599
24345W        W39962   3.470   5.840  16.351  0.0946  0.1339 -0.0022
24346W        W39963  11.169   7.826  15.606  0.4172  0.0719  0.1991
24347W        W39964  11.163   2.020  11.416 -0.1070  0.1739 -0.2177
24348W        W39965   6.051   6.061   0.365 -0.0759  0.0135 -0.0890
24349W        W39966  11.455   7.562  12.625  0.3779  0.2088  0.0716
24350W        W39967  13.878  10.702  17.199 -0.1065  0.2843 -0.4055
24351W        W39968  12.302   7.642   2.641 -0.3838 -0.1608 -0.3531
24352W        W39969  11.824   0.095   5.356  0.0516 -0.1219 -0.1382
24353W        W39970  11.371   0.838  13.259  0.3049  0.0848  0.0234
24354W        W39971   2.483   6.871   2.273 -0.0597  0.0627 -0.4320
24355W        W39972   1.160  16.477  11.832 -0.3550 -0.4163  0.1437
24356W        W39973  12.685   5.072   0.896  0.0670 -0.3007  0.0229
24357W        W39974  15.025   9.081  15.072  0.2235 -0.0853  0.0582
24358W        W39975  11.157  11.805  13.577 -0.1881  0.0880  0.1169
24359W        W39976  11.597   4.634  11.955 -0.1477  0.2769  0.0833
24360W        W39977   4.931   7.218   1.567  0.2290 -0.2045  0.2377
24361W        W39978  12.115   2.640   4.952  0.1563  0.4761 -0.2358
24362W        W39979  14.458   3.267   3.783  0.1885 -0.2069 -0.2156
24363W        W39980   1.929   0.460  13.434 -0.1268  0.2754  0.0266
24364W        W39981  10.695  11.865   4.717  0.3839 -0.0005 -0.0180
24365W        W39982  15.391  14.609  13.982  0.2072 -0.0245 -0.0359
24366W        W39983   5.836  11.630   1.781 -0.2088 -0.2635  0.2387
24367W        W39984  13.170  14.753  17.046 -0.1892  0.2886  0.0359
24368W        W39985  17.283   2.324  17.091 -0.0786  0.1692 -0.1732
24369W        W39986   4.619   5.976   0.617  0.3874  0.1553  0.0441
24370W        W39987   0.838  16.051   1.382  0.1976 -0.1038 -0.0192
24371W        W39988   7.497   9.014  12.142  0.0746 -0.0785 -0.0435
24372W        W39989  14.984   0.387   2.109  0.3789  0.0885 -0.2337
24373W        W39990   1.126  15.499  13.456  0.3066  0.0095  0.1018
24374W        W39991   1.030   6.895   3.295 -0.0169  0.0645 -0.0027
24375W        W39992   1.977  15.172   3.608  0.2409  0.3052  0.3936
24376W        W39993  17.535   7.023   0.863 -0.0323 -0.1167 -0.1828
24377W        W39994   2.679  16.994   6.120  0.1625  0.3303 -0.2020
24378W        W39995  17.608   3.604  15.874 -0.0961 -0.4156 -0.1140
24379W        W39996   2.004   4.729  15.733  0.0354  0.1682  0.0826
24380W        W39997   3.104  14.901   1.788 -0.1129 -0.2967  0.0358
24381W        W39998   1.679   6.825  11.845 -0.0077  0.1984 -0.1711
24382W        W39999  11.806  12.013   3.059 -0.0007  0.1607 -0.2407
24383W        W40000   1.684  10.517   6.634 -0.2958  0.1217 -0.1671
24384W        W40001  16.339  16.529   0.236 -0.1820  0.1485  0.0029
24385W        W40002   4.496  17.604   3.829 -0.1350 -0.0062  0.1180
24386W        W40003   2.383   4.780  12.782  0.1021  0.3817  0.0272
24387W        W40004   8.736   3.805   6.737  0.1227 -0.0256 -0.1872
24388W        W40005   5.013   9.351   5.534  0.1212  0.0890 -0.2763
24389W        W40006  11.560   8.549   0.796 -0.1001  0.0119  0.0856
24390W        W40007   0.238  13.590  15.820 -0.3329  0.4806 -0.1690
24391W        W40008  14.387   8.432   3.332 -0.1252  0.0412  0.3329
24392W        W40009  13.740   1.394   1.908 -0.0436  0.0740  0.1422
24393W        W40010  15.480   6.746   6.487 -0.1311 -0.0139 -0.0700
24394W        W40011   9.824   2.542   4.096  0.0336  0.1862 -0.1534
24395W        W40012   7.613   3.827   4.814 -0.1543  0.0605 -0.1354
24396W        W40013  13.347  13.993   1.321  0.2933 -0.0981  0.1405
24397W        W40014   1.952  12.939  12.720 -0.1514 -0.0179  0.1265
24398W        W40015   9.023  11.865   4.624  0.1988  0.4365  0.0424
24399W        W40016  16.189  15.102  14.118  0.0486 -0.1721 -0.0614
24400W        W40017   1.233   5.858  14.930  0.0476  0.0614 -0.3974
24401W        W40018   6.485   1.007   3.271  0.1358 -0.1389  0.1237
24402W        W40019   2.075   2.383   2.280  0.1547 -0.1902  0.6413
24403W        W40020   5.865  13.055  14.893  0.4175  0.1166  0.0062
24404W        W40021  17.098   8.838  15.331 -0.1906  0.0607  0.1201
24405W        W40022   6.386   6.093   2.063 -0.2755 -0.4087  0.0259
24406W        W40023   0.909  11.920  13.545 -0.2106 -0.0064  0.1944
24407W        W40024   9.540   0.300   2.433 -0.1971 -0.1982  0.1136
24408W        W40025  11.933   8.812   1.764  0.1454 -0.0661  0.2486
24409W        W40026   0.550   5.304   6.018  0.5841 -0.1313 -0.1134
24410W        W40027  16.351   7.414   6.631  0.1656 -0.0106  0.0354
24411W        W40028  16.653   4.269   5.554  0.0643  0.1331 -0.2407
24412W        W40029  11.230  14.695  13.160  0.1258  0.3142 -0.0554
24413W        W40030   7.943  13.718   2.219 -0.4207  0.0579 -0.3187
24414W        W40031   8.861   3.391   2.583  0.1705  0.1235  0.2687
24415W        W40032   8.057  12.050  14.400  0.1090  0.1646  0.1191
24416W        W40033   7.001  15.300   3.821  0.1964 -0.1251  0.0138
24417W        W40034  11.992   1.241  13.915  0.2016  0.0940 -0.4165
24418W        W40035   9.301  14.513   0.920 -0.1022  0.0762  0.2149
24419W        W40036   9.115   7.460  14.632 -0.5797 -0.2696  0.3802
24420W        W40037  14.958   4.925  14.993  0.1105  0.0511 -0.0807
24421W        W40038  11.130   5.300  15.350  0.0106 -0.0244  0.1853
24422W        W40039  12.444   4.689   0.404  0.4605 -0.2328  0.0940
24423W        W40040   7.183  12.272  16.825  0.0590 -0.0409 -0.1047
24424W        W40041  16.469   3.386   5.192  0.2493 -0.1475 -0.2926
24425W        W40042  15.123   2.181   4.015 -0.0044 -0.2272  0.0834
24426W        W40043   0.541  12.967  15.301  0.0937 -0.0442  0.1804
24427W        W40044   6.935   3.706  11.682  0.0042  0.0573  0.2312
24428W        W40045   4.980   2.013   2.606  0.2935  0.2362  0.5937
24429W        W40046   2.445  14.481  17.170  0.1561  0.2301 -0.1097
24430W        W40047   1.562  13.646   0.186 -0.1391  0.2977  0.0440
24431W        W40048  14.396   0.807  14.205  0.0961  0.2151  0.1604
24432W        W40049  15.638  14.794   0.615 -0.0501  0.0528 -0.1559
24433W        W40050   1.438  15.667  11.558 -0.1956  0.0175  0.0846
24434W        W40051   9.994   2.976  11.941 -0.0431 -0.1779 -0.0190
24435W        W40052  17.089  10.276  16.335  0.0496 -0.5218  0.0162
24436W        W40053  11.813   6.517   2.123 -0.0967 -0.2688 -0.0014
24437W        W40054   0.188   2.996   0.478  0.2100  0.0255 -0.1669
24438W        W40055  12.988  12.311   1.346  0.1308  0.2817  0.3119
24439W        W40056  10.440   4.007   0.562  0.2387  0.1830  0.0136
24440W        W40057  16.781   9.165  15.243  0.1361 -0.0255  0.0594
24441W        W40058   8.346   8.569  15.772 -0.0294 -0.0316  0.1112
24442W        W40059  16.485   7.185   1.418 -0.2061  0.0997  0.2073
24443W        W40060   0.287   7.685  12.859  0.0579 -0.1161 -0.0728
24444W        W40061  10.556   5.454   0.374  0.0323 -0.4703 -0.1694
24445W        W40062   0.066   7.269   6.250  0.0864  0.2902  0.0024
24446W        W40063  13.219   1.249   3.142 -0.1986 -0.0164 -0.0011
24447W        W40064  11.417  16.668   2.031 -0.1374  0.0629  0.1120
24448W        W40065   4.678   5.816  17.092 -0.1774 -0.1406 -0.1687
24449W        W40066   3.819   1.486  12.125 -0.0263 -0.0350  0.0611
24450W        W40067  15.822  14.584  14.180 -0.0930  0.2347  0.0695
24451W        W40068  13.239   2.282  15.713  0.0552 -0.0397  0.5693
24452W        W40069   0.219   4.065   3.238  0.2266  0.1888  0.0985
24453W        W40070  17.338   6.064   0.353 -0.2430 -0.2908 -0.0576
24454W        W40071   4.539  13.707  15.244  0.2402  0.0236 -0.1506
24455W        W40072  12.879   7.785  15.768  0.0716  0.1655  0.0050
24456W        W40073  17.362  12.230  12.708  0.1105  0.0127 -0.3510
24457W        W40074   2.671  11.793   4.184  0.0709  0.0970 -0.3182
24458W        W40075   1.047  15.953  13.722 -0.0281 -0.3281  0.2908
24459W        W40076  10.339  13.531  15.406 -0.0523  0.2228 -0.1113
24460W        W40077   1.863   1.644   4.584  0.0299  0.2438  0.0241
24461W        W40078  10.254   1.317   5.175 -0.4273 -0.1320  0.2745
24462W        W40079   5.032  15.978  17.077  0.1381 -0.1808  0.0309
24463W        W40080   7.013  13.278   0.563  0.1372  0.0223  0.0515
24464W        W40081   0.235   3.020   3.983 -0.2281  0.2746 -0.1356
24465W        W40082   9.133  14.673   1.427 -0.0416  0.1056 -0.0167
24466W        W40083  11.270  13.627   5.777  0.0544  0.2660 -0.0035
24467W        W40084  16.832  13.204  12.309 -0.0616  0.0630  0.1758
24468W        W40085  15.905   7.825   4.959  0.0414 -0.1132 -0.0803
24469W        W40086  10.305  13.133   0.218  0.3299 -0.0891 -0.2313
24470W        W40087   7.445   7.364  13.107 -0.2334  0.0113 -0.1151
24471W        W40088  13.716   4.548  12.985  0.2193 -0.1359 -0.1884
24472W        W40089  11.081   8.469   3.378  0.0582  0.2837  0.1483
24473W        W40090  16.710  11.516  12.093 -0.1769  0.0585 -0.1263
24474W        W40091   6.155   4.572   5.155 -0.0392  0.2073 -0.4133
24475W        W40092   9.469   5.549   1.981 -0.0840  0.0145  0.2828
24476W        W40093  17.373   1.823   4.003  0.1465 -0.1850 -0.1666
24477W        W40094  12.136  10.192   4.710  0.3202  0.0957 -0.0736
24478W        W40095   4.470   3.097   3.722  0.1104  0.0372 -0.1069
24479W        W40096   0.864   6.595   0.392 -0.2780  0.2202 -0.0217
24480W        W40097   7.459   8.849  15.249  0.2667  0.1868 -0.1365
24481W        W40098  16.396   5.259   3.185  0.2096  0.1224 -0.0705
24482W        W40099   6.765   4.977   4.185  0.0322  0.3135 -0.0320
24483W        W40100   3.441   0.396  13.677  0.0186 -0.0420 -0.1189
24484W        W40101  15.595   2.386  13.345 -0.0311  0.0184  0.1443
24485W        W40102   4.684   2.654  14.943 -0.3906 -0.0259  0.1028
24486W        W40103   8.280  15.599   0.809 -0.0572  0.0845  0.2270
24487W        W40104  14.903   4.232  17.281 -0.3230  0.2045  0.0107
24488W        W40105   6.372   1.076  12.196  0.1472 -0.3427 -0.0003
24489W        W40106   7.063   6.255  12.633 -0.0158 -0.2408  0.2595
24490W        W40107   8.168  11.975  15.925 -0.0203  0.0963  0.1837
24491W        W40108  13.598  12.448   3.516  0.0993 -0.0393 -0.0740
24492W        W40109   7.142   3.399  15.622  0.1437 -0.1705  0.0226
24493W        W40110   4.481  12.031   0.686  0.0630 -0.3390 -0.1746
24494W        W40111   8.458   2.981  14.166 -0.0605 -0.0149 -0.0850
24495W        W40112   1.739  16.730  11.006 -0.3036 -0.1113 -0.1799
24496W        W40113   2.971   7.355  14.704  0.0154  0.0680 -0.1306
24497W        W40114  15.628  17.001   4.683  0.0820 -0.3663  0.1865
24498W        W40115   9.091  11.871  14.353 -0.1737  0.0728  0.0869
24499W        W40116  13.887   1.373  12.761 -0.0416  0.1191  0.1243
24500W        W40117   0.994   1.692   2.902  0.0378 -0.1537 -0.0275
24501W        W40118  12.516   3.133  11.552 -0.2184  0.1051 -0.1168
24502W        W40119   9.356  16.899  11.315 -0.0422  0.1562 -0.1239
24503W        W40120   2.852  17.241   4.552 -0.0131  0.0756 -0.1270
24504W        W40121   5.180  15.221   3.360  0.3128  0.2336  0.5116
24505W        W40122   1.273  13.931   5.720  0.0381  0.2444  0.2701
24506W        W40123   9.853   0.161  11.831 -0.2514 -0.0412  0.0060
24507W        W40124   3.300   0.851  13.501  0.2196  0.2647  0.0131
24508W        W40125  12.051  16.056   5.532  0.4964 -0.3271  0.1553
24509W        W40126   1.535  16.554   2.583  0.1626  0.0805 -0.0772
24510W        W40127   6.750   3.515  14.406 -0.1574 -0.1037  0.1345
24511W        W40128   8.912   6.763  12.751 -0.0811 -0.0430  0.2303
24512W        W40129   8.709  17.117  10.181  0.4805  0.0883  0.0702
24513W        W40130  12.813   0.646   2.468 -0.0225 -0.1893  0.0442
24514W        W40131  14.778  11.635  14.202 -0.1705  0.0598  0.0014
24515W        W40132   8.883  11.954  14.820 -0.3082 -0.3230 -0.0921
24516W        W40133   9.109   2.462  13.119  0.0228 -0.1213 -0.0333
24517W        W40134   3.552   8.918   1.125 -0.1117  0.0963  0.0911
24518W        W40135  15.368  10.438  12.115 -0.0367  0.3725 -0.4263
24519W        W40136   8.487   7.736  16.440 -0.2261 -0.2761  0.0717
24520W        W40137   3.846   1.264   1.743  0.1497 -0.0080 -0.0180
24521W        W40138  16.544  11.829   3.555 -0.1379 -0.2911 -0.2899
24522W        W40139   5.075  17.457  13.128  0.1409 -0.2902  0.0373
24523W        W40140  11.732  12.032   0.618 -0.2982  0.2475 -0.1498
24524W        W40141   9.531   0.319   0.884 -0.0802 -0.0591  0.1214
24525W        W40142  17.455   6.504  13.687 -0.5324  0.0526  0.2208
24526W        W40143   8.268  11.956   1.133 -0.1706  0.0581 -0.0378
24527W        W40144  17.424   5.715  14.986 -0.3283  0.3414  0.1749
24528W        W40145  10.539   5.707   4.574  0.0828  0.0204  0.0702
24529W        W40146   6.956  15.409  12.655  0.1206  0.1198  0.0765
24530W        W40147   4.636   0.398   4.915  0.0021 -0.3129 -0.1290
24531W        W40148   4.154   3.249   4.260 -0.1428  0.0583 -0.4421
24532W        W40149   1.635  13.657   4.877  0.2865  0.1730 -0.0414
24533W        W40150   3.344   6.005  16.810  0.2265  0.2461 -0.1254
24534W        W40151   5.106  17.447  15.830  0.0111  0.0486 -0.2247
24535W        W40152   5.290  14.788   3.550 -0.0637 -0.2411 -0.0474
24536W        W40153   3.817  14.564   0.144 -0.0793 -0.2339  0.1609
24537W        W40154   8.158   3.258  15.022  0.1534  0.0077  0.0348
24538W        W40155  14.146  10.989  14.659 -0.1896  0.0082  0.0287
24539W        W40156   8.327   8.399   5.556  0.0523 -0.0378  0.4852
24540W        W40157  15.087   7.431   4.107  0.0865 -0.0143  0.1670
24541W        W40158   1.469  16.893  15.652  0.0404  0.3113 -0.1361
24542W        W40159  12.812   3.865   3.535  0.0343  0.5504  0.1127
24543W        W40160   7.032  14.156  12.445 -0.1227  0.1817 -0.2308
24544W        W40161  12.356  13.955  14.473 -0.1854  0.0265 -0.1340
24545W        W40162   8.958   8.262  13.441 -0.0192  0.0399  0.1493
24546W        W40163  15.582  14.412  14.967 -0.2547 -0.0741 -0.0956
24547W        W40164   0.017   6.284  15.578 -0.0838  0.1904 -0.0156
24548W        W40165   5.000   7.223   3.454 -0.2160  0.1225  0.2295
24549W        W40166   6.385   4.274  11.817  0.0533 -0.3771 -0.2769
24550W        W40167   8.153   0.397   5.030  0.4270 -0.0865 -0.1066
24551W        W40168   2.507  11.934   0.376 -0.1380 -0.1054  0.2350
24552W        W40169  11.374   1.679  14.437 -0.1404  0.0097  0.2196
24553W        W40170  13.061  10.390   2.325 -0.2492  0.2906  0.1994
24554W        W40171  13.288   5.364   5.519  0.1482  0.4827 -0.2511
24555W        W40172   4.365  14.707   0.331 -0.0804 -0.2512  0.3385
24556W        W40173   9.506  14.429   0.486 -0.1580  0.0044  0.0111
24557W        W40174  14.946  16.230   5.387  0.2768 -0.0440 -0.1087
24558W        W40175   2.404   7.762  14.687 -0.3492  0.2122 -0.1760
24559W        W40176  11.266   9.103  16.333  0.0507  0.2703  0.1089
24560W        W40177  14.945  17.297  17.279 -0.1076  0.0613 -0.1226
24561W        W40178   5.781  16.858   0.597  0.0740 -0.0322  0.0288
24562W        W40179   3.687  10.523  12.535  0.3427  0.0711  0.0285
24563W        W40180   6.969   6.262   5.056  0.0694  0.2316  0.2111
24564W        W40181   9.060  10.936  14.170 -0.2741  0.0128 -0.2396
24565W        W40182   7.079  14.546  11.879  0.1381  0.0538 -0.0129
24566W        W40183   8.793   1.647   2.561  0.3158  0.4035  0.0701
24567W        W40184   8.093   1.856  13.842 -0.0798  0.0488  0.2127
24568W        W40185   1.036  11.804  16.735  0.1753  0.2256 -0.1951
24569W        W40186   3.515   2.044  15.453 -0.0743  0.1616 -0.1542
24570W        W40187  14.379  13.765  16.007 -0.3252 -0.0080 -0.4020
24571W        W40188   4.476  13.095   6.000 -0.0194  0.2017  0.0405
24572W        W40189   5.729  14.740   1.037  0.1627 -0.0457  0.0866
24573W        W40190   0.897  11.362  15.521  0.1528  0.0341 -0.1008
24574W        W40191  17.070  14.632   4.645  0.2097  0.0360 -0.0949
24575W        W40192  10.199   1.660  12.173 -0.0327 -0.0919 -0.2253
24576W        W40193  14.007   5.205  13.198  0.0723  0.6169 -0.1274
24577W        W40194   0.925  12.857   3.608 -0.0236 -0.1389  0.2468
24578W        W40195  15.039   8.873  13.159  0.0424 -0.0764 -0.1239
24579W        W40196   0.835   1.522   6.562  0.0844  0.0541  0.0884
24580W        W40197  11.116   3.095  12.614 -0.1601 -0.1066  0.1081
24581W        W40198   2.764   4.746   3.215  0.2093  0.0115  0.1466
24582W        W40199  16.582  10.257  13.358  0.0130 -0.0208  0.0195
24583W        W40200   9.494   9.368  16.357  0.1850 -0.1111  0.1887
24584W        W40201   9.454  10.960   1.513  0.0429  0.0984  0.1336
24585W        W40202   5.542  13.062  14.539  0.0589  0.1965  0.0303
24586W        W40203   1.972   2.660   4.917  0.1504  0.1938 -0.2401
24587W        W40204  11.605   0.160  16.763  0.2659 -0.0495 -0.0440
24588W        W40205  12.957   2.027   3.465  0.0871  0.1950  0.1586
24589W        W40206  16.294   3.158   2.097 -0.0045 -0.0829 -0.0494
24590W        W40207  15.393   1.955  13.553 -0.2788 -0.0617 -0.0475
24591W        W40208  14.131   8.640  16.152  0.0236 -0.0228 -0.0538
24592W        W40209   6.971  15.194   2.786  0.1421 -0.0599  0.2868
24593W        W40210  11.091   0.953   4.739 -0.0119  0.0365  0.0094
24594W        W40211   3.156   9.115   0.328  0.0117 -0.2591  0.0182
24595W        W40212   4.936   4.512  12.975 -0.0476  0.1406  0.0143
24596W        W40213   2.334  12.591   1.471  0.2769 -0.0180 -0.2761
24597W        W40214   3.707   3.711  16.291  0.2854 -0.1219  0.0484
24598W        W40215  15.754   5.664  15.568 -0.0111  0.1097  0.0984
24599W        W40216  10.195  15.750  14.614 -0.1548 -0.3367 -0.2873
24600W        W40217   1.635   4.954  16.020  0.1271 -0.1764 -0.0085
24601W        W40218  12.161   9.560   5.468  0.3348  0.1068  0.0638
24602W        W40219  10.474   6.896  13.786 -0.0748  0.2486  0.2004
24603W        W40220  13.764   0.493   0.892 -0.5660 -0.1907 -0.0186
24604W        W40221   5.431   6.304   3.043 -0.2963  0.2740 -0.0284
24605W        W40222  12.232   0.538  15.061  0.1286  0.0926  0.1334
24606W        W40223   1.961   9.119   5.919  0.0378 -0.0373  0.1073
24607W        W40224   5.387   4.127   2.594  0.3803 -0.0007 -0.3118
24608W        W40225   5.016  10.416  13.609  0.0890 -0.1659  0.1653
24609W        W40226   7.642  13.517  17.263 -0.1911  0.0679 -0.0475
24610W        W40227   9.437   6.565  15.071  0.0712 -0.2025  0.3681
24611W        W40228   3.804   1.062  13.640  0.1884 -0.2314  0.2190
24612W        W40229   6.177   4.122   1.605  0.0134 -0.3419 -0.0352
24613W        W40230  17.392  14.119  12.262 -0.0690  0.2338  0.1896
24614W        W40231  11.458   2.936   2.129  0.0141 -0.1281  0.1912
24615W        W40232   2.006   5.824   5.772 -0.0157  0.0751 -0.2424
24616W        W40233  11.181   9.474   3.131  0.0076 -0.1237 -0.0973
24617W        W40234   6.671  10.104  11.781  0.3116  0.0210  0.1123
24618W        W40235  15.580  12.091  14.295 -0.4099  0.1773  0.1336
24619W        W40236   4.616   1.456   0.429 -0.1432 -0.1732  0.1720
24620W        W40237  14.674  11.838  11.288  0.0479  0.1119  0.1202
24621W        W40238  15.243   8.766  16.200  0.0326  0.3539 -0.0962
24622W        W40239  14.240  11.584   6.358 -0.0604 -0.0416 -0.4028
24623W        W40240  14.758   5.508  14.388  0.0270  0.0982  0.2089
24624W        W40241   1.497   5.945   0.323  0.0439 -0.0283  0.2464
24625W        W40242  10.833   6.621   1.906  0.1096 -0.3853  0.1582
24626W        W40243  13.806   1.954   1.853  0.2748 -0.2191 -0.2046
24627W        W40244   1.995  16.964   0.799 -0.0483 -0.1836  0.0256
24628W        W40245  10.858  15.276   4.511 -0.2456 -0.0194 -0.0781
24629W        W40246  11.895   3.191   5.114 -0.2337  0.1348  0.0161
24630W        W40247  16.270   2.543  16.158  0.0669  0.1797  0.1719
24631W        W40248   9.029   3.582  13.241 -0.4272 -0.0038 -0.2033
24632W        W40249   2.073   3.682   5.350 -0.1189  0.0831 -0.0079
24633W        W40250  10.894   7.131   3.012 -0.6251  0.0875  0.0097
24634W        W40251  11.491  12.135  12.987  0.2074  0.0196 -0.0378
24635W        W40252   4.988  12.262   3.296 -0.3732  0.0268 -0.0167
24636W        W40253  11.509   2.208  16.776 -0.0756 -0.1144  0.0641
24637W        W40254   1.834  14.153  15.591 -0.1151 -0.0123 -0.1350
24638W        W40255   7.770   3.058  16.445 -0.1924  0.2113 -0.0194
24639W        W40256   6.884   6.858   3.698  0.3711 -0.3689 -0.2383
24640W        W40257   7.661  14.626  13.163 -0.2321  0.2099  0.6069
24641W        W40258   5.401  14.011   3.000 -0.0112  0.1241 -0.0118
24642W        W40259   7.230   4.964  17.092  0.0855 -0.1228  0.0780
24643W        W40260   9.472  12.722   1.694  0.0127  0.1680  0.1879
24644W        W40261   7.956   3.409   2.833 -0.0450 -0.1771 -0.1882
24645W        W40262  11.612   1.452   3.054  0.2794 -0.1330 -0.1715
24646W        W40263  14.392   8.274  12.611  0.0693  0.0548 -0.1569
24647W        W40264  10.629   1.203  11.451 -0.4721  0.0298 -0.2402
24648W        W40265  10.594   7.491   0.405 -0.1724 -0.0506 -0.0917
24649W        W40266   3.332   9.489  12.626 -0.2981 -0.0943  0.3081
24650W        W40267   5.070  13.674   1.216  0.0685  0.1346 -0.0969
24651W        W40268   8.464   6.692  15.131  0.0295  0.2598 -0.1991
24652W        W40269  13.519  14.746   4.943 -0.0505  0.0252  0.0247
24653W        W40270  17.445   2.873  15.069  0.0833  0.2836  0.2959
24654W        W40271  17.586  11.676   5.478  0.1848  0.2338  0.0697
24655W        W40272   1.858  10.517   4.702  0.0240  0.0890 -0.1708
24656W        W40273  14.923  15.077  12.638  0.2740  0.2742 -0.0987
24657W        W40274  11.488  14.578   3.481  0.0695  0.1973  0.1603
24658W        W40275  10.013   4.425   2.844  0.0910  0.0224 -0.0711
24659W        W40276   6.739   8.323   1.853 -0.1447  0.1979 -0.2772
24660W        W40277  10.127  14.475  12.436  0.0230  0.0820  0.1622
24661W        W40278   1.500   4.130   2.089  0.0577  0.0278  0.0668
24662W        W40279   6.233  16.916  13.855  0.2808 -0.1860  0.2367
24663W        W40280  12.205   9.041  13.171  0.1427  0.1010 -0.1091
24664W        W40281   1.060   9.135  14.034  0.0530  0.1248  0.1180
24665W        W40282  13.380   2.527  12.190 -0.1787 -0.1010  0.1511
24666W        W40283  15.364  13.994  14.801  0.0816 -0.1169 -0.2116
24667W        W40284   8.771  13.860   2.255  0.0278  0.1673  0.1045
24668W        W40285  14.884   5.948   0.974 -0.0875  0.0806 -0.0672
24669W        W40286  17.358   2.984  17.017  0.1530  0.0018  0.3671
24670W        W40287  15.126  15.489  11.373 -0.0967  0.2252 -0.0566
24671W        W40288  15.941   6.434  16.978 -0.0111 -0.0907  0.2432
24672W        W40289   8.995   8.701   2.974 -0.0088  0.3315 -0.2496
24673W        W40290   5.629  10.437  15.394 -0.0738 -0.5918  0.0885
24674W        W40291   8.930  16.727   0.368 -0.1331 -0.0776 -0.2103
24675W        W40292   6.783   4.040   3.721 -0.1325  0.0709 -0.1023
24676W        W40293  11.382   5.350   2.228 -0.0062  0.1082 -0.0061
24677W        W40294  10.077  13.684  13.318  0.0771  0.4157  0.1119
24678W        W40295   2.669  13.150  16.161 -0.0088 -0.2405 -0.0228
24679W        W40296   0.660   1.425   2.052  0.0150  0.0536 -0.1912
24680W        W40297   6.920   5.396   6.380  0.3225 -0.0418 -0.1195
24681W        W40298   8.741  10.775  12.484 -0.1877  0.1411  0.0962
24682W        W40299  10.991   6.338   0.838  0.1562  0.1414  0.1238
24683W        W40300  17.424  14.333  11.780 -0.0092  0.2225  0.0253
24684W        W40301   1.775   5.844  17.160  0.4261 -0.0592  0.2385
24685W        W40302   1.801   0.492   2.787 -0.1744 -0.2993  0.1801
24686W        W40303   9.336  16.921   4.532  0.2779  0.1634  0.1984
24687W        W40304  12.031  16.229   6.373  0.3533  0.0899  0.0010
24688W        W40305   3.284   1.797   5.725  0.0761  0.1356  0.0395
24689W        W40306  11.913   7.375  12.701  0.0511 -0.2582  0.1392
24690W        W40307  11.718   2.448  14.152 -0.0529  0.0508  0.0297
24691W        W40308  15.287  12.316   2.380 -0.0704  0.1794  0.1779
24692W        W40309  17.251  12.362   0.041  0.1656 -0.0893  0.0394
24693W        W40310  16.558   0.430  12.573 -0.2202  0.1638  0.0855
24694W        W40311  14.841  13.706  17.059  0.1405 -0.1386  0.1756
24695W        W40312   3.104  15.763   5.772  0.0842  0.1743 -0.2734
24696W        W40313  12.823  13.586  16.047 -0.0937 -0.0250 -0.2197
24697W        W40314   0.736  14.403  16.497  0.1027  0.0179  0.1720
24698W        W40315  12.845  10.969   0.973  0.2606  0.1205 -0.3023
24699W        W40316  15.944   9.351  12.703 -0.0369 -0.2339  0.2189
24700W        W40317   0.983  17.598   4.396 -0.3085  0.0467  0.2891
24701W        W40318   3.205  15.802   3.519  0.0230 -0.2126  0.1480
24702W        W40319  14.236   7.883  16.861 -0.3338  0.0451  0.2848
24703W        W40320   4.024   7.194   0.983 -0.1830  0.1945 -0.2435
24704W        W40321   0.905   0.311   2.984 -0.1802 -0.1873 -0.0595
24705W        W40322  15.476   6.130  13.366  0.1011 -0.0500 -0.3242
24706W        W40323  11.899   6.324   4.739  0.1179 -0.0405  0.0259
24707W        W40324   8.752  11.673   0.594  0.1900  0.1700  0.0533
24708W        W40325  16.885  14.425  11.776 -0.0591 -0.4586  0.0414
24709W        W40326  12.392   5.752   5.397  0.3370 -0.0085 -0.1084
24710W        W40327   4.366  14.780   3.523 -0.2799  0.3020 -0.0019
24711W        W40328   4.776  10.993  14.741 -0.0093  0.0662 -0.1452
24712W        W40329  13.176  13.093  14.051 -0.2831 -0.2916  0.0451
24713W        W40330   5.999   2.537   4.490 -0.0125  0.1588  0.1832
24714W        W40331   0.132  12.361  14.299 -0.4400 -0.2806 -0.1409
24715W        W40332   4.212  16.982  15.837  0.3247  0.2625 -0.0439
24716W        W40333  15.926  13.696   2.717  0.1544 -0.1004 -0.1969
24717W        W40334  15.193   4.786   4.997 -0.0821  0.1533  0.1573
24718W        W40335   7.515   8.860   5.550 -0.1170 -0.3495  0.1586
24719W        W40336  12.840  14.384   3.247 -0.3224  0.1355  0.0829
24720W        W40337   6.159  10.766  14.758  0.0708  0.1091 -0.0442
24721W        W40338  13.464  10.169  15.802  0.0356 -0.0580  0.0400
24722W        W40339  16.174   8.805  13.387 -0.1052 -0.0542 -0.0637
24723W        W40340  16.900   2.758   3.627 -0.1538 -0.0320 -0.1166
24724W        W40341   0.580   5.672  15.674 -0.3144 -0.0625 -0.1700
24725W        W40342   8.218  10.972   3.735  0.1716 -0.2252  0.2486
24726W        W40343   6.316   7.251  16.249 -0.0777 -0.0961 -0.3207
24727W        W40344   6.456   2.827  16.009  0.0490 -0.0149 -0.0165
24728W        W40345  16.959   3.114   4.366  0.1407  0.1664  0.0065
24729W        W40346   0.453  13.409  16.746 -0.1214 -0.0420  0.0943
24730W        W40347  10.328   8.014  15.016  0.1294 -0.1867  0.1555
24731W        W40348  11.388  15.994  16.989 -0.1447 -0.1044 -0.0663
24732W        W40349   3.180  13.947   4.745 -0.2616 -0.0885 -0.0294
24733W        W40350   1.661  17.465  14.786 -0.0219 -0.2366  0.5496
24734W        W40351   6.789   8.506   2.902  0.0497 -0.1733  0.1263
24735W        W40352   9.490  13.119   1.217  0.3284 -0.2631 -0.1231
24736W        W40353   8.546  16.484  11.905  0.0102 -0.1392 -0.1028
24737W        W40354  10.590   6.172  15.528  0.0018 -0.1205 -0.2530
24738W        W40355   9.408  15.845  11.119  0.1671 -0.0764 -0.1310
24739W        W40356  15.452   0.783   4.110  0.0468 -0.0260  0.0442
24740W        W40357  16.377  15.951  16.284  0.0593  0.0090 -0.2074
24741W        W40358   0.855   5.187   5.534  0.1281  0.1129 -0.0879
24742W        W40359   1.108   7.401   3.165 -0.1744 -0.4543  0.3155
24743W        W40360  11.109   8.393  12.690 -0.0203  0.0364  0.1228
24744W        W40361   9.515  16.938  14.196 -0.1501 -0.0835 -0.2331
24745W        W40362   9.343   7.082  15.951  0.1938 -0.1794 -0.1510
24746W        W40363   1.942  15.363  13.528  0.1545 -0.1334 -0.0168
24747W        W40364   5.114   3.065   4.436  0.1744  0.1889  0.0590
24748W        W40365   0.949   2.272  16.888  0.0373  0.0621 -0.2075
24749W        W40366  17.566  13.768  14.431 -0.3740 -0.1407  0.2630
24750W        W40367   6.106  14.491   5.099  0.0098  0.3248 -0.2747
24751W        W40368   4.161  14.019  13.103  0.0616  0.0556  0.0879
24752W        W40369  16.993   8.100   0.251  0.0558  0.0529  0.2661
24753W        W40370   8.664   9.848   1.727  0.2796  0.4670 -0.0961
24754W        W40371   7.524   7.300  15.871  0.0264  0.3675 -0.0167
24755W        W40372  16.851   7.492   1.256  0.2468  0.0419  0.1461
24756W        W40373   7.452   0.738  12.125  0.1097 -0.1512  0.0732
24757W        W40374   1.139  14.957  17.177 -0.0570 -0.0385  0.1386
24758W        W40375  14.656   1.384   4.790 -0.1528  0.1852 -0.2179
24759W        W40376   4.650   1.670  15.899  0.1640  0.2205  0.2119
24760W        W40377  10.239   6.876  14.689  0.2668 -0.2484  0.0626
24761W        W40378   0.433   0.268  16.104 -0.0837  0.0629  0.1585
24762W        W40379   1.683  10.625  14.693 -0.2747 -0.2247 -0.0434
24763W        W40380   8.761  11.504  14.635 -0.1118  0.0714  0.2133
24764W        W40381  11.239   8.101  13.114 -0.0250  0.1171 -0.0851
24765W        W40382  10.894  15.373  11.719 -0.1191  0.2967  0.3906
24766W        W40383   3.521   6.182   4.880 -0.3965  0.1492 -0.2467
24767W        W40384   0.182   1.273  17.217 -0.0857 -0.4273  0.2751
24768W        W40385   6.592   7.549  11.937  0.1378  0.2206 -0.2069
24769W        W40386   0.709  12.733  17.038  0.0416 -0.3037 -0.0358
24770W        W40387  15.687  16.042  12.037  0.0637  0.0371  0.0291
24771W        W40388   4.344   9.584   4.728 -0.1534 -0.0158 -0.0876
24772W        W40389   4.843  15.217  14.817 -0.0904 -0.0141  0.1062
24773W        W40390   6.856   0.995  13.630 -0.1624 -0.2198 -0.1700
24774W        W40391   5.405   2.998  16.557  0.0182 -0.0472 -0.0888
24775W        W40392   1.950  17.577   1.484 -0.0060 -0.2158  0.0299
24776W        W40393   9.691   5.351   1.579  0.0397  0.1209 -0.0160
24777W        W40394  14.376  15.896  16.062 -0.4046 -0.0029  0.1252
24778W        W40395   0.085  12.873   1.330  0.1131 -0.1519  0.1271
24779W        W40396   4.520   9.008   1.006 -0.0838  0.0277  0.2584
24780W        W40397  15.227  10.276   1.761  0.1475 -0.1037 -0.0502
24781W        W40398   2.469   7.444  11.963  0.3491 -0.2449  0.0704
24782W        W40399  15.111  16.025   1.030  0.3665  0.1539  0.1604
24783W        W40400  12.076   1.100  11.498 -0.2388 -0.0857 -0.0343
24784W        W40401   4.631   1.005   0.046  0.0768  0.1129  0.3603
24785W        W40402   4.807   8.392   4.225 -0.0897  0.2340 -0.1571
24786W        W40403  10.490  17.361  12.993  0.2464 -0.4463 -0.2379
24787W        W40404   2.038  12.277  16.111  0.1066 -0.0203  0.1379
24788W        W40405   7.928   4.344   0.782 -0.0110  0.1607 -0.0116
24789W        W40406   5.967  15.201  12.611 -0.2057  0.1613 -0.0416
24790W        W40407   2.741   4.392  15.753 -0.1026  0.2530 -0.1915
24791W        W40408  14.893   2.720  17.156 -0.1055  0.2660  0.1596
24792W        W40409   5.883  12.030   5.122  0.2437  0.1586 -0.0043
24793W        W40410   5.317  11.963  16.371  0.2247 -0.0554 -0.2171
24794W        W40411   5.123   3.977  13.160 -0.0106 -0.0853 -0.0416
24795W        W40412   7.915  12.981  11.570 -0.1246 -0.0870  0.2170
24796W        W40413   3.107   0.126   0.017  0.1089 -0.0636 -0.0056
24797W        W40414   3.744  13.874  15.092  0.1356 -0.0214  0.1240
24798W        W40415  11.397  13.241  16.816  0.1736 -0.0081 -0.1098
24799W        W40416   6.619  14.501   4.895 -0.1471  0.3120  0.1073
24800W        W40417  17.018  13.426   1.310  0.1885 -0.2283 -0.2308
24801W        W40418   5.328  16.558  13.678 -0.1445  0.1297 -0.0768
24802W        W40419   7.425   3.173  16.022 -0.0462  0.2509  0.0927
24803W        W40420   6.185   5.378  15.777 -0.3103  0.2837  0.1441
24804W        W40421  14.236  13.938  12.268  0.1336 -0.0531 -0.1182
24805W        W40422  16.316   4.131   5.893  0.1496  0.2295  0.5094
24806W        W40423   3.696   3.694  17.074  0.0018  0.2730  0.3017
24807W        W40424   9.950  13.821  15.608 -0.1220 -0.0349 -0.0397
24808W        W40425   4.189   8.245  14.882  0.1719 -0.1569  0.1661
24809W        W40426  16.851  16.405  12.237 -0.1423  0.0255 -0.3423
24810W        W40427   5.863   0.028  13.723 -0.0756  0.4076 -0.1585
24811W        W40428  12.303   9.010  14.350  0.3185  0.0248 -0.0742
24812W        W40429   2.020   5.551  14.871 -0.0663 -0.1602  0.3763
24813W        W40430  13.059   8.450   1.806 -0.1489  0.1470 -0.2694
24814W        W40431   0.866   6.997   0.040 -0.0778 -0.1540  0.1434
24815W        W40432  11.473   3.512   5.167 -0.2753  0.0169 -0.2505
24816W        W40433  10.257   3.318   2.757 -0.0263 -0.0408  0.1721
24817W        W40434   4.393  14.376   0.875  0.0461 -0.4661  0.1904
24818W        W40435  15.149   1.150  13.415  0.3014  0.0663 -0.1306
24819W        W40436  13.891   5.185   3.942  0.1938  0.1351  0.6147
24820W        W40437   8.842  17.233  15.327  0.0973  0.1750  0.2843
24821W        W40438  10.447  17.524   5.873 -0.0336  0.0431  0.0596
24822W        W40439   6.898   5.414   5.288  0.2520  0.0418 -0.1276
24823W        W40440   2.063  10.524   0.472  0.1075  0.0130 -0.2122
24824W        W40441   6.409   1.198   4.161  0.0632 -0.0035 -0.0016
24825W        W40442   3.281   0.375   1.526 -0.2043 -0.2966  0.1536
24826W        W40443   6.738   8.521   4.772  0.3152  0.0015 -0.0755
24827W        W40444  14.606   2.257   5.618 -0.1077 -0.1013 -0.1703
24828W        W40445  10.726  11.593   5.352 -0.1502  0.1755 -0.0430
24829W        W40446  14.367   6.047   4.848  0.1276  0.0962 -0.0934
24830W        W40447   3.048  12.387  12.186 -0.1159 -0.2189  0.3580
24831W        W40448  11.986  12.749  13.932  0.3436  0.0194 -0.2684
24832W        W40449  14.928   4.154   3.919  0.3152 -0.1820  0.2568
24833W        W40450  12.766   7.013   5.930  0.0958 -0.0272 -0.0170
24834W        W40451   1.570   4.454  16.072 -0.1689  0.0180 -0.3936
24835W        W40452  15.143   8.045  15.712  0.1940  0.0599 -0.0204
24836W        W40453  10.960  11.064  11.648 -0.1254  0.2636  0.0861
24837W        W40454   7.815  17.336   5.770  0.1200 -0.0237 -0.1925
24838W        W40455  11.343  10.810   3.157  0.1548 -0.0087  0.0876
24839W        W40456   6.476   6.254  14.883 -0.2118  0.1455  0.0334
24840W        W40457  12.694  11.246  16.182  0.0221  0.0608 -0.0118
24841W        W40458  11.633   5.776   3.137  0.2077  0.0076  0.2319
24842W        W40459  15.723   1.524   0.044 -0.0716  0.4171 -0.1137
24843W        W40460   5.719  16.662   3.930 -0.0663 -0.0377 -0.1551
24844W        W40461   6.740  13.498  12.873  0.3266 -0.0942  0.0128
24845W        W40462   5.981   7.663   2.310 -0.0942 -0.1008 -0.0551
24846W        W40463   7.592   9.175   0.057  0.0763  0.1091 -0.0464
24847W        W40464   7.857  15.483  14.015  0.1150 -0.0585 -0.1949
24848W        W40465   0.703   2.654  16.383 -0.1448  0.2885  0.1262
24849W        W40466   8.438   4.071  14.670 -0.0960  0.0540  0.2759
24850W        W40467   1.411  10.000   4.264  0.0208  0.4562  0.2951
24851W        W40468   6.182  12.994   2.471  0.0236  0.0696  0.1371
24852W        W40469   9.043  13.059   0.975  0.4367 -0.1240  0.0226
24853W        W40470  16.863  16.527  16.661 -0.2205  0.0665 -0.1037
24854W        W40471  12.204  11.116   2.676  0.2843 -0.1692  0.1088
24855W        W40472   6.312   7.257  15.782  0.3329 -0.3971  0.0870
24856W        W40473  17.562  11.872  13.402  0.2075  0.1477  0.3128
24857W        W40474   3.949  12.104  13.108  0.1064 -0.0191 -0.0185
24858W        W40475  14.243  12.237   0.987 -0.0405 -0.0527  0.4405
24859W        W40476   3.926   6.998  15.335  0.1160 -0.2560 -0.0101
24860W        W40477   3.530  12.069   3.068 -0.2275 -0.0756 -0.2530
24861W        W40478   9.183  15.131  16.303 -0.0859  0.1564 -0.0586
24862W        W40479  11.348   5.040   1.783  0.0537 -0.0168 -0.0071
24863W        W40480   9.994   0.499   1.661 -0.0121 -0.1910  0.1436
24864W        W40481  10.673   5.610  13.406  0.2169  0.1214 -0.4222
24865W        W40482  14.551  14.619  15.137 -0.0923  0.1672  0.0082
24866W        W40483  16.851   7.266   4.756 -0.1514 -0.0877  0.1391
24867W        W40484   3.967   0.593   0.240 -0.0886  0.1752  0.1834
24868W        W40485   9.135   2.202  13.615 -0.0102  0.0142 -0.0506
24869W        W40486  11.623  12.980  16.451  0.2547  0.1470  0.1458
24870W        W40487  16.927   1.819   0.532  0.1495  0.0027 -0.3903
24871W        W40488  14.797  14.788   0.783  0.3536 -0.1254 -0.4893
24872W        W40489   9.827  16.126  14.969 -0.0459 -0.0053 -0.0880
24873W        W40490   8.873   8.236   0.293  0.0069 -0.2033  0.1907
24874W        W40491   2.488   3.773   4.845 -0.0932  0.0083  0.2733
24875W        W40492  11.650  10.329   2.375 -0.1754  0.2884  0.4215
24876W        W40493   2.240   7.173   2.760  0.1412 -0.0490 -0.0916
24877W        W40494   8.409  14.220   1.384  0.0709 -0.0886  0.1990
24878W        W40495   8.082  14.594   1.516 -0.0399  0.5124  0.0429
24879W        W40496   0.719   8.193   6.442 -0.1134 -0.3926  0.1182
24880W        W40497  10.536  10.257   3.452  0.0277  0.2011  0.0514
24881W        W40498  12.599  12.079  16.370 -0.0122 -0.0176  0.0573
24882W        W40499   7.926  14.779  13.711 -0.1943 -0.1264  0.0752
24883W        W40500  17.033   8.266   2.259  0.2147 -0.0176 -0.3374
24884W        W40501   5.930   0.959   4.907  0.3468  0.1276 -0.0473
24885W        W40502  13.068  17.243   5.742 -0.3556  0.0211  0.0322
24886W        W40503   2.434  17.595   0.281  0.0549 -0.0485  0.0222
24887W        W40504  17.013   1.280  14.160  0.0101  0.0212  0.2166
24888W        W40505  13.947   0.716   5.868 -0.1418  0.2633 -0.1717
24889W        W40506   8.671   1.953  16.108 -0.0027  0.0516 -0.0086
24890W        W40507  14.475   7.988   0.489  0.2862 -0.0920 -0.2553
24891W        W40508   5.229  11.837   1.122 -0.2723 -0.0264  0.1137
24892W        W40509   7.599   1.786  11.720 -0.1427 -0.2789  0.1775
24893W        W40510   2.396   4.228  14.439 -0.1711 -0.3717  0.2116
24894W        W40511  14.112   0.918   3.272  0.0334 -0.1408 -0.2299
24895W        W40512  17.032   3.352  12.890  0.0237 -0.0597 -0.2806
24896W        W40513  13.123   7.261  11.030  0.0017  0.3458 -0.3425
24897W        W40514  10.601   0.694  12.605  0.1970  0.0005  0.1238
24898W        W40515   4.592  13.917  16.635  0.0794  0.1393 -0.2214
24899W        W40516  15.087   7.497  16.793 -0.1603 -0.0509  0.0691
24900W        W40517  17.529  14.285  13.678  0.0565 -0.3122 -0.0317
24901W        W40518   5.388  13.763  16.673  0.0725 -0.0983  0.0697
24902W        W40519   0.271  13.630   0.783 -0.0570  0.2286  0.3910
24903W        W40520  11.842   0.647  13.176  0.0311 -0.3644 -0.2359
24904W        W40521  12.833   8.293   6.835  0.2478 -0.1266  0.1814
24905W        W40522  17.432  13.357  15.608  0.1958 -0.0724 -0.1951
24906W        W40523   6.697   9.252   1.688  0.0763  0.0230  0.1953
24907W        W40524   3.944   3.297   3.664  0.1541  0.0670  0.0750
24908W        W40525  14.732   0.842   4.003 -0.0791 -0.1658 -0.1594
24909W        W40526  17.173  11.565  15.094 -0.1692  0.0023 -0.1830
24910W        W40527  11.569  12.018   2.590 -0.1477  0.4928 -0.2189
24911W        W40528   3.050   4.493   1.617  0.0264 -0.1243  0.0055
24912W        W40529  13.125   2.758   3.914 -0.2924  0.0545  0.1597
24913W        W40530   3.866  12.608   0.196  0.2404 -0.1596  0.0731
24914W        W40531   7.799   4.322   5.875  0.0950  0.0382 -0.0372
24915W        W40532   7.928   7.473  15.044 -0.1210  0.0341 -0.0783
24916W        W40533  11.886  13.587   4.930 -0.0056 -0.1193  0.0842
24917W        W40534  10.989  10.810  16.381  0.4915 -0.3261 -0.0659
24918W        W40535  16.122  13.031   3.667 -0.0103 -0.0018  0.1082
24919W        W40536  14.642   8.730  16.293  0.1712 -0.3337  0.1590
24920W        W40537   5.352  16.267  12.008  0.0045 -0.1409  0.0083
24921W        W40538   8.009  15.250  13.574  0.0720 -0.1529  0.1143
24922W        W40539   0.795   8.567   1.185  0.0907 -0.0136  0.0719
24923W        W40540   9.941   6.974   1.097 -0.0886 -0.0923 -0.1950
24924W        W40541   5.951   3.103   3.030  0.0222 -0.0544 -0.1029
24925W        W40542   0.152  16.576   3.041 -0.1191  0.0774  0.0724
24926W        W40543  17.032  15.103  13.735 -0.1068  0.1532 -0.0835
24927W        W40544  10.295  16.715  15.056  0.0902  0.0149 -0.4865
24928W        W40545   3.324  16.376   1.869  0.1605 -0.0001  0.0488
24929W        W40546   2.097   6.811  15.448 -0.0895 -0.1244 -0.1763
24930W        W40547  13.340   8.109  14.916 -0.1277  0.1437  0.0599
24931W        W40548  11.015  12.193  13.240 -0.0464 -0.1336 -0.0514
24932W        W40549  16.857   3.202  15.709  0.1089 -0.1771  0.0373
24933W        W40550   3.089   0.797   4.136 -0.0842  0.1321 -0.1659
24934W        W40551   2.591  17.119  16.852 -0.0567  0.0993  0.3184
24935W        W40552   4.825   6.556  11.691  0.2936  0.1183 -0.1236
24936W        W40553  16.371   3.381  14.547 -0.0493  0.1184  0.0524
24937W        W40554  14.537   2.987   2.513 -0.3229  0.3422 -0.2569
24938W        W40555   8.809   3.894  10.534 -0.1175 -0.2548  0.2426
24939W        W40556  14.641  14.137   4.619 -0.0346  0.0856  0.4654
24940W        W40557   1.197  11.025   0.774  0.0424 -0.5122 -0.0609
24941W        W40558  15.500  17.329   5.869  0.1046 -0.3207  0.0071
24942W        W40559   5.940   9.659  12.739 -0.0501  0.2860 -0.3583
24943W        W40560   8.094  13.781   5.875 -0.1055  0.0765 -0.1317
24944W        W40561  10.845   1.592   0.830 -0.4327  0.0096 -0.0844
24945W        W40562  11.070   8.306   0.744 -0.0425  0.0891 -0.4080
24946W        W40563   3.801  10.797   1.910  0.2032 -0.0683  0.0178
24947W        W40564   9.856  13.282  17.208 -0.2437  0.1969 -0.0678
24948W        W40565  15.376  10.008  13.994  0.2567 -0.0382 -0.3618
24949W        W40566   6.034   8.253   6.636  0.1219 -0.0672  0.0792
24950W        W40567   0.695  16.577  11.830  0.0024 -0.2419  0.0150
24951W        W40568  10.629  11.217  15.180  0.1539 -0.0794  0.0490
24952W        W40569   6.029   9.508  15.357  0.0287 -0.2090  0.2482
24953W        W40570   5.701  11.265   2.418  0.0727  0.0241 -0.0373
24954W        W40571   9.658   8.488   5.272  0.2180 -0.1640 -0.0767
24955W        W40572   4.802   7.231  12.444  0.1169 -0.2840 -0.1154
24956W        W40573  15.442  10.546  13.893 -0.0485  0.0538  0.1196
24957W        W40574   8.170   8.372  17.284  0.2629  0.1373 -0.0597
24958W        W40575   8.742   6.756   2.864 -0.1437  0.2854  0.2132
24959W        W40576   4.716   2.936   5.990  0.0300 -0.1264 -0.0221
24960W        W40577   1.901   4.212   0.451 -0.2362 -0.3097  0.0452
24961W        W40578  13.060  15.227   2.290  0.2447  0.0313  0.3160
24962W        W40579  16.882   5.837  12.388 -0.0049 -0.0188 -0.0695
24963W        W40580   5.771  15.687   3.543 -0.4098  0.0831 -0.1021
24964W        W40581  14.767  12.985  15.717 -0.1678  0.1844  0.1337
24965W        W40582  10.512   4.533  12.338 -0.2767  0.1240  0.1206
24966W        W40583  15.500  13.512  13.297 -0.3627 -0.0102  0.0298
24967W        W40584   3.907   2.167  14.829 -0.0487 -0.1568 -0.0136
24968W        W40585   1.602   1.901   1.040 -0.1185 -0.1395  0.1437
24969W        W40586   8.821  10.247   1.124 -0.3869  0.2740 -0.3552
24970W        W40587  16.758   5.880   0.577 -0.2140 -0.0775  0.3106
24971W        W40588   4.562   4.282   6.190  0.4100  0.0473  0.3189
24972W        W40589   9.965  12.703   0.201  0.0906  0.3099 -0.0630
24973W        W40590   0.999  16.337  17.068  0.2705 -0.1305  0.4085
24974W        W40591   8.242  12.509  15.249 -0.5061  0.3379 -0.0192
24975W        W40592  16.503   1.938  13.188  0.1464  0.1451  0.1920
24976W        W40593   8.258  16.833  16.249  0.0124  0.1433 -0.2621
24977W        W40594  10.266  14.354   3.785 -0.2088 -0.3019  0.2831
24978W        W40595   1.337  15.085  15.499 -0.1806  0.2614  0.2539
24979W        W40596   1.432   6.763  15.914  0.0597  0.2751 -0.2888
24980W        W40597   3.212   1.129  15.421  0.1478 -0.0259  0.1974
24981W        W40598  15.553   7.586  14.025  0.0022  0.0243 -0.0516
24982W        W40599   4.205   9.080  15.931 -0.1079  0.2760 -0.0430
24983W        W40600  12.802   2.015  12.080  0.3439  0.1991 -0.0464
24984W        W40601  17.570  11.426   2.801 -0.1801 -0.2233 -0.2006
24985W        W40602   1.518  16.847  16.145 -0.1934 -0.3896  0.1923
24986W        W40603   7.879  11.997   0.869 -0.1197 -0.2262  0.0615
24987W        W40604   6.171  16.762   0.260  0.0182 -0.2072  0.0461
24988W        W40605   0.197   4.043   1.602  0.1236 -0.1830  0.1568
24989W        W40606   3.783   8.501   6.210 -0.2287 -0.1108 -0.2602
24990W        W40607   9.097   8.186  14.124  0.0027  0.0577 -0.2513
24991W        W40608   1.060  12.341   5.194 -0.0819  0.1531 -0.1011
24992W        W40609   1.563   2.426  12.667 -0.0031  0.1041  0.2391
24993W        W40610  13.589   7.003   0.083  0.3302 -0.0491  0.1497
24994W        W40611   9.977   6.876   3.094 -0.1234 -0.3779  0.0085
24995W        W40612  12.313   3.322   2.179  0.3025 -0.0611  0.1067
24996W        W40613   8.097  14.177  16.035  0.0901 -0.3198 -0.2251
24997W        W40614   9.378   0.062   4.257 -0.1108 -0.0034 -0.0592
24998W        W40615   9.709   2.939  13.540  0.1602  0.0602 -0.3390
24999W        W40616   6.743   3.592   0.397  0.0956  0.0244 -0.0932
25000W        W40617   4.622  13.151   3.256 -0.0078  0.0161 -0.0150
25001W        W40618  14.775   0.546  15.865 -0.2907 -0.1312 -0.0524
25002W        W40619   0.534  16.129  16.825 -0.1899 -0.0603  0.0500
25003W        W40620   6.041   7.588  15.510  0.0407 -0.1119  0.3400
25004W        W40621   2.506  15.844  13.207  0.0079 -0.3133  0.0874
25005W        W40622   8.582   6.334  14.240 -0.1191  0.2562  0.0703
25006W        W40623   8.597  10.319  12.667  0.2237  0.1663  0.1284
25007W        W40624   8.380   8.708   1.781 -0.4380 -0.0669 -0.2217
25008W        W40625   4.318   6.107   4.064  0.4068 -0.1013  0.0210
25009W        W40626  13.538   6.427  13.414  0.2946  0.0503 -0.2054
25010W        W40627  16.750   2.316  14.300 -0.0200 -0.3248  0.2394
25011W        W40628  10.795   9.661  15.011  0.1564  0.2878 -0.1213
25012W        W40629  12.096  11.291   3.602  0.0668 -0.1741  0.1836
25013W        W40630   9.613   0.688  15.719 -0.1196  0.1085  0.0622
25014W        W40631   8.276   5.293   0.718 -0.1370 -0.0882  0.0286
25015W        W40632   7.168  15.187   4.358  0.2078 -0.1615 -0.1242
25016W        W40633   0.777   7.702   3.434  0.1324  0.1046  0.0465
25017W        W40634   4.941   3.041   4.955 -0.0299 -0.0463  0.0880
25018W        W40635   1.874   3.296   0.422  0.2368 -0.0959 -0.3427
25019W        W40636   7.336  15.567  12.884 -0.0378 -0.3198  0.3401
25020W        W40637   1.314  15.292   4.060  0.2445 -0.0354 -0.1734
25021W        W40638  11.196   1.828   1.813  0.1402 -0.3314  0.2939
25022W        W40639   8.746  16.641   3.732 -0.0181  0.1028  0.0626
25023W        W40640   1.389  13.060   4.512 -0.0090  0.0179 -0.0069
25024W        W40641  13.283  14.648   3.297 -0.1509  0.1003  0.1067
25025W        W40642   7.228  17.117  14.129  0.1145  0.1121  0.1872
25026W        W40643   7.462   3.756   3.267 -0.1819 -0.3742  0.0652
25027W        W40644  13.244   3.807   3.944  0.3895 -0.0782  0.0432
25028W        W40645  13.757   2.107   5.805  0.0914 -0.1435  0.2852
25029W        W40646   1.085  17.139   4.020 -0.2391  0.2770 -0.3440
25030W        W40647   9.341  14.855  13.839  0.0433  0.0389 -0.0951
25031W        W40648   5.254  14.339  12.980 -0.0236 -0.2324  0.1011
25032W        W40649  15.570   3.917  11.656  0.2082  0.0248 -0.5557
25033W        W40650   0.683  15.144   5.833  0.4476 -0.0444 -0.1381
25034W        W40651   0.516  13.030   2.104 -0.1504 -0.3566  0.1139
25035W        W40652  10.292   0.908  10.241  0.0008  0.1584  0.3844
25036W        W40653  12.666  12.136   4.647  0.0561  0.0010 -0.0715
25037W        W40654  14.718  14.488  12.819  0.0139 -0.2570  0.0079
25038W        W40655   3.542   6.876  11.644  0.0565  0.0482  0.1408
25039W        W40656   8.392   1.188  16.274 -0.3005  0.1606  0.0002
25040W        W40657  10.320   4.485  12.783  0.0596 -0.0660  0.1991
25041W        W40658  14.764   8.732   2.994 -0.1763 -0.0501  0.1414
25042W        W40659   7.899   0.423   4.602 -0.1675  0.1937  0.0048
25043W        W40660  11.749   6.564   1.565 -0.1904  0.0037  0.1168
25044W        W40661   7.846   2.467  15.872  0.1072  0.3234  0.0469
25045W        W40662  11.134  14.786   3.250  0.1470  0.0932 -0.1484
25046W        W40663   7.534   4.457  11.747  0.1537 -0.2466 -0.0948
25047W        W40664   7.855   1.047  16.244  0.0158 -0.1990 -0.3305
25048W        W40665   4.767  11.803  15.972 -0.2208 -0.0948  0.0129
25049W        W40666  16.444   9.743   3.812  0.0721  0.0871  0.1292
25050W        W40667   9.147   8.843   5.160  0.2618 -0.1380  0.2979
25051W        W40668  11.843  10.614   1.136  0.1932 -0.1057 -0.0375
25052W        W40669   1.903   2.386   3.915 -0.1507 -0.1445  0.2942
25053W        W40670   7.200   2.119  16.910  0.0576 -0.0903  0.2002
25054W        W40671   8.335  11.660   1.492  0.1012 -0.0610  0.1461
25055W        W40672   6.212  10.102   4.154 -0.3263  0.2147 -0.2301
25056W        W40673  13.991   2.466  15.234 -0.0560 -0.2527  0.0608
25057W        W40674   8.337   5.946  14.993 -0.0077 -0.2982 -0.0497
25058W        W40675  15.152   0.850  14.661  0.0828  0.2148 -0.1378
25059W        W40676   3.037  16.611  15.455  0.0005 -0.1752  0.1213
25060W        W40677   9.529   9.351   0.950  0.1765  0.3624 -0.0819
25061W        W40678   2.149   6.680  13.038 -0.1146 -0.0352 -0.1194
25062W        W40679   7.470  17.377  16.690 -0.0763  0.0464 -0.1439
25063W        W40680  13.009  15.958   5.021  0.1294 -0.3267  0.3564
25064W        W40681  10.879  11.158  12.115  0.3515 -0.1200 -0.1232
25065W        W40682  14.313   3.461  14.859 -0.0464 -0.2977 -0.0982
25066W        W40683   1.399   2.848   3.262  0.2053 -0.3144 -0.0137
25067W        W40684   7.872  10.842  16.528 -0.0141 -0.1076  0.0039
25068W        W40685   0.632   4.357  15.461  0.3156 -0.1138 -0.0957
25069W        W40686   6.237   6.280   6.801  0.0378 -0.2687 -0.1696
25070W        W40687   4.978   0.371  14.987  0.0774  0.1733 -0.0032
25071W        W40688   1.905   8.404   3.930 -0.1389 -0.1798 -0.3234
25072W        W40689   1.226  10.158  14.824 -0.1949  0.0631  0.2629
25073W        W40690  14.165   7.448  15.138 -0.1744 -0.1997 -0.1229
25074W        W40691  14.384   0.224   5.135 -0.2857 -0.1209  0.2515
25075W        W40692   3.021   3.140   4.661  0.1068 -0.1944  0.2030
25076W        W40693   9.986  10.084   3.809 -0.0857  0.1521 -0.1396
25077W        W40694  15.215  16.281   1.989  0.1087  0.1857 -0.1514
25078W        W40695  11.963  16.326  13.790 -0.3581  0.3202  0.0839
25079W        W40696  12.456   5.241  16.452 -0.3506  0.0478 -0.1996
25080W        W40697   5.559   7.921   5.013 -0.1773 -0.1960  0.1676
25081W        W40698  10.885   6.238   2.652 -0.0261  0.0048 -0.4850
25082W        W40699   2.899   8.296  13.060  0.1749 -0.0166  0.2675
25083W        W40700   9.347   4.515   3.382  0.0867 -0.2411 -0.0985
25084W        W40701  12.846  14.123  15.197 -0.1417  0.4023  0.2048
25085W        W40702  15.088   4.903   0.894 -0.2422  0.4798 -0.1140
25086W        W40703   7.326  11.259   2.725  0.0757  0.1158 -0.0379
25087W        W40704  15.423  11.939  12.380 -0.1848 -0.0841  0.0303
25088W        W40705  16.995  12.214  16.814  0.1025 -0.1293 -0.2091
25089W        W40706  13.088  10.286  16.139 -0.1487 -0.3651  0.1246
25090W        W40707  10.893  15.592   4.998  0.1824 -0.0617 -0.2256
25091W        W40708  14.754   0.560   4.919  0.6369  0.0651 -0.1665
25092W        W40709   4.912   1.052   2.378  0.0165 -0.2090  0.1679
25093W        W40710   5.991   6.127  15.269  0.0006  0.1207  0.0034
25094W        W40711   1.127   9.524  17.056  0.2892  0.3715 -0.0223
25095W        W40712  17.482   6.227  14.946 -0.1542  0.1662 -0.2402
25096W        W40713   7.607   3.080  11.899 -0.0278  0.0932 -0.2492
25097W        W40714   3.830  16.753  12.280  0.0102 -0.2757  0.0380
25098W        W40715  10.471   0.822   0.915 -0.1643  0.1934  0.1005
25099W        W40716   2.268   2.247   4.236  0.3653  0.1089  0.1054
25100W        W40717   2.712   7.443   6.738 -0.1769 -0.1183 -0.0655
25101W        W40718  11.345   7.320   4.902 -0.2898  0.0335 -0.2076
25102W        W40719  10.216   4.126  11.896 -0.2626 -0.1664 -0.0422
25103W        W40720   1.195   2.909   1.077 -0.0709  0.1737  0.0344
25104W        W40721  11.717  17.359  14.375  0.1415  0.1508 -0.1761
25105W        W40722   4.622   9.295   0.247  0.0600 -0.1275  0.2912
25106W        W40723  17.146   0.748   3.760  0.0787  0.2477 -0.2326
25107W        W40724   2.443   0.614   5.653  0.3012 -0.0839  0.2441
25108W        W40725  10.359  17.041  13.983  0.0361  0.1005 -0.2397
25109W        W40726   1.199  15.477  16.428  0.0482 -0.1573 -0.4222
25110W        W40727   2.947   8.866   5.004  0.0445 -0.0799  0.0339
25111W        W40728   6.536  15.738   1.468  0.0210 -0.1007 -0.2721
25112W        W40729   2.625  17.274  14.649 -0.0640 -0.0348 -0.1938
25113W        W40730   2.708   2.973   6.239  0.1718 -0.2129  0.2605
25114W        W40731  17.428   2.678   2.962 -0.0116 -0.2066  0.0152
25115W        W40732   1.806   4.142   2.462  0.2206  0.2611  0.0198
25116W        W40733   2.769   0.627  14.801  0.1590 -0.0206 -0.2418
25117W        W40734  16.993   0.059   3.038 -0.1094 -0.0485 -0.0929
25118W        W40735   0.950  13.138   4.050 -0.0040 -0.0822  0.0015
25119W        W40736   0.091   5.409   5.794  0.2069  0.2623 -0.3349
25120W        W40737  17.096   6.413  14.626  0.2540 -0.0371 -0.0649
25121W        W40738  12.903   2.851  11.639  0.2747  0.3989  0.1901
25122W        W40739  13.853  15.238  13.551 -0.1823 -0.3304  0.0875
25123W        W40740  10.730   6.882   4.367  0.0487  0.0877  0.3480
25124W        W40741   4.110   6.820   4.852  0.1073  0.4662  0.1764
25125W        W40742   9.582  14.480   1.489  0.3008  0.3131 -0.1149
25126W        W40743  12.677  12.662   1.502 -0.1044  0.0461 -0.5022
25127W        W40744   1.188   5.070   6.011  0.0426 -0.1135 -0.2743
25128W        W40745  17.110   9.737  13.228 -0.0728  0.1509 -0.1004
25129W        W40746   7.258  15.432   0.749 -0.1652 -0.0242  0.0661
25130W        W40747  13.423   3.248   4.069  0.1573  0.0893  0.0554
25131W        W40748   4.695  16.011  15.598  0.0530 -0.0091  0.3010
25132W        W40749  13.799  13.521  14.060 -0.0779 -0.2668  0.1879
25133W        W40750   3.240  17.225   6.041 -0.0097 -0.0634  0.1613
25134W        W40751   6.760   4.900   0.760 -0.0880 -0.2022 -0.0251
25135W        W40752  10.297  11.997  16.892  0.0431 -0.2213 -0.0023
25136W        W40753   4.843  11.467   0.840  0.0157 -0.1654 -0.0739
25137W        W40754  11.236  11.616   4.032  0.2513  0.2057 -0.1205
25138W        W40755   8.103  14.712  16.424  0.0182  0.3173 -0.0137
25139W        W40756   4.262  10.915  16.292 -0.2011  0.3273  0.2002
25140W        W40757   2.937   0.594   2.111  0.1661 -0.0633  0.2204
25141W        W40758   6.182   0.245   3.066 -0.1260  0.2410  0.0092
25142W        W40759  15.503   0.366  12.749 -0.0648 -0.0801 -0.1463
25143W        W40760   2.610   7.193   1.929  0.3783  0.0077 -0.2834
25144W        W40761  15.713   0.143   0.186  0.1470 -0.2017 -0.2359
25145W        W40762  12.688   2.151  13.363  0.1256 -0.1729  0.1025
25146W        W40763  10.718   7.568  16.334 -0.0291 -0.0192 -0.1679
25147W        W40764  16.388  15.375   2.353  0.4822 -0.1015  0.1024
25148W        W40765   4.816  13.973   1.777  0.3270  0.2641 -0.1906
25149W        W40766   7.777   3.170   2.065 -0.0418  0.0672  0.0571
25150W        W40767   3.226  12.500  13.008  0.0228 -0.1959  0.0915
25151W        W40768  10.318   1.880  13.251  0.0990  0.0089 -0.0124
25152W        W40769   9.044   1.785   3.162  0.0006 -0.2069 -0.0954
25153W        W40770  12.994  13.027  13.068  0.1366 -0.0140  0.1709
25154W        W40771  14.060  12.871   1.326 -0.1688 -0.0321 -0.1336
25155W        W40772   0.595  10.030   5.356  0.1065 -0.3186 -0.0037
25156W        W40773   2.905   0.140   1.797 -0.1902 -0.2822  0.0564
25157W        W40774   8.843  13.476   3.838  0.2610 -0.3065 -0.1447
25158W        W40775   6.134  16.718  15.016 -0.0226 -0.1291  0.2195
25159W        W40776   6.545   0.741   4.425  0.1204 -0.2762 -0.1152
25160W        W40777   1.780   5.308  12.442  0.1270 -0.1079 -0.1470
25161W        W40778   0.038   6.565  16.964 -0.2933 -0.0592 -0.2226
25162W        W40779   4.996  16.624   5.658  0.0429 -0.1981 -0.1684
25163W        W40780  12.532   3.694   3.089  0.2061 -0.3602 -0.1940
25164W        W40781   7.800   6.309  14.255  0.0827 -0.0409 -0.0443
25165W        W40782   2.258   2.973   5.996  0.0177 -0.1283 -0.2271
25166W        W40783   0.167   2.943   0.967 -0.1140  0.1141  0.2495
25167W        W40784  15.352  14.630  15.834 -0.0183 -0.0207 -0.1217
25168W        W40785   5.446  10.920  16.779 -0.0249 -0.2778 -0.0471
25169W        W40786  13.239  12.277   5.318  0.0574  0.0291 -0.1103
25170W        W40787  11.165   4.850  12.985  0.1610 -0.1900  0.1958
25171W        W40788  16.791  11.016  12.840 -0.2162  0.0688  0.0078
25172W        W40789   3.446  15.759  16.002  0.2519  0.0611  0.0798
25173W        W40790   7.911  10.502   3.778 -0.3215 -0.1359 -0.0597
25174W        W40791  15.008  11.116  12.695 -0.1696 -0.0473  0.0187
25175W        W40792  12.269  13.244   2.193 -0.2689 -0.0772 -0.2544
25176W        W40793   8.411  12.445   1.602  0.1384  0.1302  0.2197
25177W        W40794   9.995   3.969  15.421  0.0796 -0.1056 -0.0373
25178W        W40795  11.191  13.672   4.310  0.0654 -0.2865 -0.1545
25179W        W40796   1.347  11.241   2.501  0.1172  0.1772  0.2631
25180W        W40797  14.838  14.621  15.563  0.4424  0.2438 -0.1070
25181W        W40798  12.000  15.534   3.559 -0.0878 -0.1164 -0.2551
25182W        W40799   9.243   4.718   2.896  0.0571  0.0785 -0.1962
25183W        W40800   1.698   1.641  12.238  0.0109 -0.1222  0.0220
25184W        W40801   8.895   1.134  11.679 -0.1309 -0.1620  0.2371
25185W        W40802   7.001  13.984  15.991  0.1707 -0.1543  0.0653
25186W        W40803  10.550   3.906   4.981 -0.1953 -0.1068 -0.0012
25187W        W40804  14.607   8.244  17.018 -0.1711  0.0199  0.3452
25188W        W40805   6.166  16.868   3.236  0.2090 -0.4500 -0.0651
25189W        W40806  11.244  12.587  14.675 -0.0875  0.1911  0.5493
25190W        W40807  11.776   0.608   3.831  0.0539 -0.2188  0.3073
25191W        W40808   3.382   9.960   5.921  0.1444  0.0232 -0.1025
25192W        W40809   6.402   1.608   0.056  0.0013 -0.2254  0.2748
25193W        W40810  14.400  16.214  13.470 -0.2754  0.1662  0.0072
25194W        W40811   7.970  12.534   2.653 -0.0864 -0.0765 -0.0474
25195W        W40812   4.153  10.314  16.861  0.2248 -0.1608  0.1135
25196W        W40813  10.586   8.286   3.847 -0.2516 -0.1211 -0.0309
25197W        W40814   1.055   3.013   4.626  0.1979  0.2590 -0.0845
25198W        W40815  15.022   1.903  10.725  0.0019  0.1101  0.0013
25199W        W40816   7.046  10.182   4.436 -0.0954  0.0659  0.1632
25200W        W40817  10.570   1.418  15.651 -0.0621 -0.2437 -0.0372
25201W        W40818   4.997  12.683   1.164 -0.2192  0.1148  0.4359
25202W        W40819   6.539   0.432  11.000 -0.0597 -0.2117 -0.1560
25203W        W40820   8.974   6.050   5.804  0.1354 -0.0415 -0.0451
25204W        W40821  13.379   1.088  11.498  0.0326  0.1535 -0.0685
25205W        W40822   6.738   0.153  12.484 -0.1387 -0.1740  0.2648
25206W        W40823  16.547  16.078   2.992  0.1675 -0.2110 -0.2719
25207W        W40824  11.427  12.999   3.821  0.1522  0.1150  0.1462
25208W        W40825  10.345   5.602  12.428  0.0609  0.0072  0.1410
25209W        W40826  11.168  10.465   4.486  0.1368 -0.0750  0.1535
25210W        W40827  15.173   0.930  11.574  0.1539  0.0831  0.1091
25211W        W40828  13.171  13.245  12.673 -0.0270 -0.2612 -0.3038
25212W        W40829  11.868  15.911  14.354 -0.0304  0.2108 -0.1671
25213W        W40830   7.043  17.083  15.992  0.2108 -0.0198  0.1464
25214W        W40831  15.193   7.374   0.897 -0.1170 -0.0858 -0.0906
25215W        W40832   5.761   6.419  12.787 -0.2576 -0.0143 -0.3263
25216W        W40833  11.646  14.943   0.415  0.5639  0.0576 -0.0919
25217W        W40834  12.632   4.102   1.456  0.2004  0.0206  0.1537
25218W        W40835   6.980   5.773   4.720 -0.0151 -0.3776  0.0295
25219W        W40836   4.628  10.457   2.572 -0.0058 -0.1506  0.0157
25220W        W40837  10.975  10.527  13.365  0.2579 -0.0559 -0.0627
25221W        W40838   4.623   8.660  13.788 -0.2587  0.2791  0.1448
25222W        W40839   1.592   9.761  15.756 -0.0191  0.3518 -0.5650
25223W        W40840   3.986   2.801  15.466  0.1419  0.1554 -0.1248
25224W        W40841  13.040  15.980  12.954  0.0686 -0.0990  0.1101
25225W        W40842   2.573  10.332  12.445 -0.0492 -0.1996  0.1503
25226W        W40843   9.509  14.042  11.194  0.2609 -0.1074  0.2203
25227W        W40844   8.634   4.184   5.769  0.1966 -0.2992  0.1933
25228W        W40845   4.108   6.076  13.785  0.0959  0.1504  0.2294
25229W        W40846  13.276   3.461   5.599 -0.0011 -0.0348  0.1316
25230W        W40847   6.129  13.030   4.293 -0.1429 -0.0760  0.0480
25231W        W40848   8.075  13.095  15.372  0.2199  0.0689  0.1187
25232W        W40849   7.762  16.482   4.226  0.2942 -0.0065  0.1150
25233W        W40850  13.060   3.573  14.260  0.1847 -0.0212  0.2974
25234W        W40851   3.969   5.733   4.035 -0.1371 -0.0436  0.0316
25235W        W40852   8.459   6.701  12.562  0.0728  0.3442  0.2783
25236W        W40853   7.280  17.112  12.760 -0.1126  0.2136  0.2592
25237W        W40854   0.076  15.055   5.766  0.0956 -0.0142 -0.3022
25238W        W40855   0.747  13.165   4.967  0.0420 -0.0423 -0.2404
25239W        W40856   1.855   4.706  12.554 -0.1099  0.0143  0.0259
25240W        W40857   0.359   1.074  13.184  0.1483 -0.0057  0.0280
25241W        W40858   6.081   1.228  17.144 -0.0681 -0.0632 -0.1350
25242W        W40859   1.350   3.471   6.867  0.1131 -0.0217 -0.3609
25243W        W40860  15.548   7.043   1.114 -0.1471  0.0566 -0.0631
25244W        W40861   1.447   8.401   4.689 -0.1374  0.2164  0.0986
25245W        W40862   1.898   0.533  15.312  0.1684  0.1515 -0.0472
25246W        W40863   0.685   7.769   4.973 -0.1962 -0.0070  0.1709
25247W        W40864  12.576  14.391   5.014 -0.0936  0.1755  0.1121
25248W        W40865   6.152   0.111  10.942  0.1787  0.0270 -0.1249
25249W        W40866  15.656  12.707   1.605 -0.0493 -0.0185  0.1447
25250W        W40867   7.307   3.388   4.165  0.1536 -0.1838  0.1965
25251W        W40868  13.838  12.542   0.982 -0.0168 -0.0363  0.0304
25252W        W40869  14.453   4.490   1.386 -0.0350 -0.2182  0.0617
25253W        W40870   8.114   8.576  12.025  0.1065 -0.0207 -0.1169
25254W        W40871   5.806  11.941  15.116 -0.1470  0.2524  0.1636
25255W        W40872   4.627   5.520   0.681  0.0398  0.2192  0.0831
25256W        W40873   1.284  10.116  13.669 -0.2155  0.2136  0.0533
25257W        W40874   6.303   5.595   2.140  0.0261  0.1899 -0.5502
25258W        W40875  15.620  10.983   2.370  0.0925 -0.4135  0.0692
25259W        W40876   4.546   3.325  12.300  0.1328  0.3247 -0.2575
25260W        W40877   6.840  16.540   1.354  0.2406 -0.0764 -0.1686
25261W        W40878  10.650   2.704   0.424  0.1420  0.0753  0.1786
25262W        W40879   8.083  14.984   6.296 -0.0829 -0.1005  0.0420
25263W        W40880   4.444   1.970   4.317 -0.2443  0.2423  0.1533
25264W        W40881   2.023  11.723  15.851  0.2750 -0.1197  0.1683
25265W        W40882   9.061   4.815   0.815  0.1613  0.1567  0.1743
25266W        W40883   6.867  11.217   5.201  0.0448  0.0774  0.1045
25267W        W40884   5.333   8.359  13.426  0.3998  0.0054  0.0387
25268W        W40885   9.821   2.089   4.712 -0.0537 -0.1160  0.0119
25269W        W40886   1.957   6.863   2.419 -0.0894  0.3663 -0.0737
25270W        W40887  14.625  14.137   5.159 -0.0198 -0.2383 -0.0799
25271W        W40888  16.146   4.857  12.482 -0.3591  0.0292 -0.2446
25272W        W40889  15.501   6.976   4.646  0.2507  0.0436 -0.2243
25273W        W40890   2.229  16.634  11.959  0.0067 -0.0820 -0.0724
25274W        W40891   2.860   5.006   3.671  0.2257  0.0442 -0.0164
25275W        W40892   2.834  10.672   0.357 -0.0723 -0.2305  0.3046
25276W        W40893   2.525   6.229   4.832  0.1085  0.1933 -0.1437
25277W        W40894   2.951  17.225  14.283 -0.0210 -0.1733 -0.0742
25278W        W40895   5.989   6.301  14.210  0.3450 -0.0935  0.1413
25279W        W40896  16.609  14.290  13.904  0.2222  0.0853 -0.1859
25280W        W40897   2.361   6.116  11.361  0.0900 -0.1108  0.0449
25281W        W40898   6.399   2.905  16.989  0.1220  0.2223 -0.0570
25282W        W40899   5.669   2.135   6.129  0.0043  0.2165  0.1204
25283W        W40900   8.202  15.978   2.734 -0.2953 -0.1897 -0.2136
25284W        W40901  13.693   6.013  15.084 -0.0873  0.1781 -0.1969
25285W        W40902   3.582   9.856  16.229  0.0949 -0.1243 -0.2512
25286W        W40903  13.116  13.745  15.031 -0.1873 -0.2942  0.1137
25287W        W40904  13.977  12.835  12.841  0.0068 -0.1258 -0.3355
25288W        W40905   4.519  11.460  15.573  0.3678 -0.0138 -0.2265
25289W        W40906  15.876   1.778  13.492 -0.2475 -0.1994 -0.0701
25290W        W40907  11.553  13.939   1.540 -0.1013  0.2129 -0.1865
25291W        W40908   3.674   3.012  12.284 -0.0512  0.2517  0.0081
25292W        W40909  10.032  17.201  13.153 -0.3623 -0.0807 -0.0045
25293W        W40910   0.707   0.872  14.008  0.1776 -0.1422 -0.4095
25294W        W40911  16.756   8.776  13.109  0.2718 -0.0424  0.0282
25295W        W40912   7.469   4.589   6.212  0.0925 -0.1405 -0.2570
25296W        W40913  14.472   4.708   3.387 -0.0637 -0.0363 -0.0287
25297W        W40914   5.120  16.202  14.092 -0.1476  0.0662  0.0205
25298W        W40915  16.298   7.372  15.449  0.0639 -0.2884 -0.0200
25299W        W40916   6.063  16.117   0.776 -0.2050 -0.1706 -0.1675
25300W        W40917  16.824   1.711  16.461  0.2315 -0.2752 -0.0332
25301W        W40918   2.267  16.258  13.545  0.0238 -0.2332  0.4251
25302W        W40919   2.578   1.350   5.987 -0.2735 -0.0200  0.1663
25303W        W40920  17.249  10.292   0.310 -0.3272 -0.1483  0.1748
25304W        W40921   4.073   1.848  12.688  0.1053  0.1227 -0.0430
25305W        W40922  10.825   8.069  15.358 -0.1052 -0.1726 -0.1516
25306W        W40923   6.969  16.872  11.859  0.1132 -0.0010 -0.2590
25307W        W40924   0.740   3.272  14.079  0.1278  0.0802  0.2213
25308W        W40925   0.911   1.115  13.119  0.3095  0.1516  0.3252
25309W        W40926  14.468   6.184  16.888  0.2434 -0.1932 -0.1655
25310W        W40927  11.090   1.650  12.263  0.1574  0.0481  0.2869
25311W        W40928   6.028   4.819  14.218  0.0629 -0.2724 -0.3440
25312W        W40929   2.777   8.563   0.704 -0.2181 -0.1471  0.0851
25313W        W40930   2.165  15.758   4.169 -0.3069  0.0686  0.1206
25314W        W40931   4.427  10.663  14.969 -0.0587 -0.2563 -0.2400
25315W        W40932   5.147   0.271  10.953 -0.0113  0.0976  0.1878
25316W        W40933   3.061  17.557   4.920 -0.0100  0.0588 -0.0021
25317W        W40934   2.698  15.858  11.303  0.0541 -0.1802  0.0718
25318W        W40935  14.908   6.064   4.950  0.0615  0.3045  0.3083
25319W        W40936   1.976  12.698  13.634 -0.1175  0.0652  0.1394
25320W        W40937   2.777  11.042  15.973 -0.1848 -0.0272 -0.1701
25321W        W40938   7.436   7.663   3.360  0.3447 -0.2068  0.1149
25322W        W40939   5.409  16.275   5.450 -0.0075 -0.0630 -0.0373
25323W        W40940  17.100   5.603   0.264 -0.1855  0.2288  0.2491
25324W        W40941   1.565  15.689  12.420  0.0799 -0.1554 -0.2235
25325W        W40942   0.671   7.794   0.379 -0.3416 -0.1172  0.0579
25326W        W40943   2.254  12.516   4.489  0.3942  0.0299  0.3307
25327W        W40944   5.098   4.829   4.301 -0.3011 -0.0750  0.0872
25328W        W40945   2.739  17.566  17.091  0.0751  0.1929 -0.0145
25329W        W40946   9.139  14.659  16.561 -0.2079 -0.1278  0.2089
25330W        W40947   2.568  15.017   4.555  0.1856  0.1105  0.1319
25331W        W40948  16.485  17.028  16.386 -0.1531 -0.2380 -0.0160
25332W        W40949   0.302  12.212  13.548  0.0113  0.0077  0.0274
25333W        W40950   2.256  10.220  15.673  0.1834  0.0457  0.1866
25334W        W40951  14.899  11.301  17.150 -0.0942 -0.0220 -0.0766
25335W        W40952  15.351   8.443   5.824  0.1953 -0.1192 -0.3095
25336W        W40953   1.573  12.577  17.223  0.2064  0.0384  0.0896
25337W        W40954   2.883  13.305  15.424  0.2862 -0.1500  0.0019
25338W        W40955   7.761  12.176  15.495  0.1383  0.0064 -0.1222
25339W        W40956  12.590  14.584  16.902 -0.1020 -0.1788 -0.1666
25340W        W40957  10.934  10.334  15.592 -0.1038  0.2790 -0.3328
25341W        W40958   6.398   8.782   0.240 -0.2222 -0.1071  0.0116
25342W        W40959  14.980  15.810  14.362  0.1465  0.0839 -0.1477
25343W        W40960  10.943   5.040   1.280  0.2044 -0.0367 -0.0430
25344W        W40961   7.668  16.458  11.702  0.0841 -0.1139 -0.1946
25345W        W40962  15.123  13.420  14.116 -0.1536  0.1573  0.1821
25346W        W40963   5.848   0.180   0.920 -0.0169  0.2774 -0.4421
25347W        W40964  13.131   4.060   4.407 -0.0101 -0.0201 -0.2252
25348W        W40965  10.759  14.151   2.913 -0.0839 -0.0477  0.1370
25349W        W40966   9.958  15.529   2.807 -0.0377  0.1247  0.0773
25350W        W40967   6.004   8.729  12.252  0.1403  0.0067 -0.0835
25351W        W40968   0.220   2.675   2.431 -0.1818  0.2032  0.1079
25352W        W40969   7.021  13.383   2.681 -0.0211  0.1014  0.0716
25353W        W40970   7.226   1.718   0.193 -0.0305 -0.1015 -0.1086
25354W        W40971  13.802   6.605  14.262  0.0374 -0.2533 -0.3715
25355W        W40972   6.763  10.330  13.286  0.0732 -0.1877 -0.0253
25356W        W40973   5.514   3.665  16.163 -0.1151 -0.3300  0.1228
25357W        W40974  16.355  15.185   2.830  0.2458 -0.0346  0.1075
25358W        W40975  14.945  17.610   3.269  0.0225 -0.1881  0.0274
25359W        W40976   4.346  12.314   0.257 -0.0649  0.3910 -0.0051
25360W        W40977   9.565  13.254  12.206 -0.0363 -0.3732  0.4191
25361W        W40978   5.633   5.831   6.139 -0.1464 -0.0707 -0.3232
25362W        W40979  12.876   5.112  12.673 -0.1034  0.0981  0.0072
25363W        W40980  15.363  15.388  15.267 -0.1484 -0.0417  0.2459
25364W        W40981   4.268  16.555  12.539  0.3369 -0.0587 -0.1053
25365W        W40982  17.533   3.702   2.776 -0.1523 -0.1060 -0.0910
25366W        W40983   9.334  10.530   6.423  0.1787  0.0753  0.2790
25367W        W40984   4.317   2.213  15.068  0.2067 -0.2238  0.2877
25368W        W40985   5.601  12.044   3.340  0.1796 -0.2965 -0.0150
25369W        W40986  15.144   9.976  17.271  0.2579  0.1767  0.0556
25370W        W40987   5.239  17.068  14.949 -0.0048 -0.0448  0.2174
25371W        W40988  14.279  17.192  10.935  0.1457 -0.1245 -0.2858
25372W        W40989  12.103   2.320  16.017  0.1293  0.1126 -0.0901
25373W        W40990   7.198   6.693   1.614 -0.4413 -0.2012 -0.3657
25374W        W40991  12.880  11.238   1.931  0.0103  0.3565 -0.2194
25375W        W40992   2.037  11.300   6.109 -0.3239  0.1841 -0.0810
25376W        W40993  12.261   6.477   4.453  0.5337  0.2078  0.2243
25377W        W40994   3.606   7.653  12.713  0.3008 -0.2146 -0.3205
25378W        W40995   4.899  10.843   0.291 -0.1520  0.0997 -0.0218
25379W        W40996  13.350  14.130  12.937  0.2282 -0.0288 -0.2312
25380W        W40997  11.015  17.101  16.396  0.0558 -0.0069  0.0304
25381W        W40998   8.205  15.640  10.123 -0.0163  0.2516 -0.0318
25382W        W40999   6.098  14.764  11.810 -0.0708 -0.0456 -0.0006
25383W        W41000  14.716   7.108   3.269  0.1943  0.2068  0.1680
25384W        W41001   4.009  15.130   1.045 -0.0833 -0.1258 -0.1653
25385W        W41002  12.310   6.221  13.582  0.3073 -0.1246  0.1226
25386W        W41003   2.162  17.488   0.792  0.0615 -0.1328 -0.3201
25387W        W41004  14.479   3.090  15.814  0.2398  0.1442  0.3862
25388W        W41005   6.822  11.064  11.962  0.1990 -0.0947  0.0312
25389W        W41006   2.085  13.319   5.578  0.0776 -0.4102  0.0186
25390W        W41007   7.550  13.976  13.844 -0.1391  0.1339 -0.0432
25391W        W41008   7.010   3.213   5.848  0.2412 -0.0189  0.0885
25392W        W41009   9.451   6.560  13.609 -0.0368 -0.2278  0.3089
25393W        W41010   3.625  17.069   2.127  0.0460 -0.0372 -0.0129
25394W        W41011   2.488   9.264  16.878  0.0332 -0.3869  0.0655
25395W        W41012   3.559   3.118  14.572  0.1350  0.0025 -0.0758
25396W        W41013   6.786  12.538  11.880 -0.3584 -0.0505 -0.3051
25397W        W41014   5.265  16.524  14.538  0.1894  0.0496 -0.5328
25398W        W41015  15.798   7.361  15.344 -0.0070  0.2004  0.0191
25399W        W41016   8.557  10.188   5.582 -0.0618  0.0822 -0.0853
25400W        W41017  14.773  14.860  16.915 -0.0982 -0.0058 -0.3185
25401W        W41018   0.344   5.037  16.674  0.1898 -0.1195  0.2576
25402W        W41019   5.458   8.758   5.991 -0.2853  0.0885 -0.0944
25403W        W41020  16.612  11.789   5.754 -0.3544 -0.1326 -0.0804
25404W        W41021   7.471  11.099  13.463  0.0623 -0.0644  0.1371
25405W        W41022  12.303   3.354  12.455 -0.3522 -0.1011  0.4103
25406W        W41023  11.878   7.493   6.009  0.2411 -0.0665 -0.2004
25407W        W41024   4.689  13.334   5.490 -0.0515  0.2593  0.0752
25408W        W41025   5.965   4.077   0.655  0.1333  0.1776 -0.1842
25409W        W41026   7.406  13.936  15.737 -0.1391 -0.0507  0.0501
25410W        W41027   0.749   3.116  15.459 -0.1174  0.1484 -0.1876
25411W        W41028   3.017   5.835   5.446  0.2043  0.1080  0.0006
25412W        W41029  16.647   1.740   4.653  0.1123 -0.2753  0.0643
25413W        W41030  12.099  14.494   4.657 -0.3042  0.1195 -0.0537
25414W        W41031  16.505  14.587  13.052  0.3066 -0.0634 -0.1350
25415W        W41032  16.964   0.111  12.109 -0.4534 -0.1505 -0.2406
25416W        W41033  11.965   4.047   3.333 -0.0396  0.2469 -0.1079
25417W        W41034   2.160   5.086  17.260 -0.4692  0.0743  0.0726
25418W        W41035  10.820   2.451   4.466 -0.0983 -0.1503  0.2530
25419W        W41036  10.708  17.123   5.830 -0.0640 -0.1939 -0.0196
25420W        W41037   0.684   3.584   6.320  0.0153  0.0652 -0.1415
25421W        W41038  16.076   4.565  12.933 -0.0246  0.0440 -0.2746
25422W        W41039  14.759   6.558  16.364  0.1324 -0.2148 -0.0433
25423W        W41040  16.287   3.844   0.175 -0.0689 -0.0660  0.0772
25424W        W41041   3.228   8.342   1.639  0.5056  0.4576  0.1026
25425W        W41042  16.833   5.323  14.882  0.1124 -0.0950  0.1449
25426W        W41043  16.828  16.085  15.443 -0.0553  0.1566  0.2729
25427W        W41044   1.474  14.709  16.951 -0.1524  0.1852 -0.0096
25428W        W41045   8.460   8.201  12.089  0.1250  0.0353  0.0673
25429W        W41046   6.595  15.902  16.553  0.0236  0.2443  0.1200
25430W        W41047  16.078   1.507  16.182 -0.1628  0.3290 -0.1745
25431W        W41048   1.386   6.495  15.436  0.3997  0.1869 -0.0128
25432W        W41049  13.162   0.106   3.924 -0.1255 -0.0393  0.3611
25433W        W41050   6.794   1.485   3.168 -0.3915  0.1619 -0.1383
25434W        W41051  16.993   1.622  11.971 -0.1038 -0.3082  0.1372
25435W        W41052  13.704   6.049  12.539 -0.0001  0.2453  0.0158
25436W        W41053  15.957   1.744   5.556  0.2455  0.0067  0.0956
25437W        W41054  11.512   3.158   2.990  0.1143 -0.2328 -0.0687
25438W        W41055   9.035   3.530  14.204 -0.2224  0.2821 -0.1230
25439W        W41056  12.821  16.031   2.140  0.2423  0.0257 -0.0258
25440W        W41057   4.803  12.568  12.938  0.0418 -0.1394 -0.3247
25441W        W41058   0.583  11.384  13.645 -0.1574 -0.1334 -0.0950
25442W        W41059  16.197   0.896   0.616 -0.0126  0.0667  0.0929
25443W        W41060   4.172   6.932   1.596 -0.2175 -0.0993  0.1079
25444W        W41061  16.546   3.905   0.631  0.1649  0.1895  0.2887
25445W        W41062   3.792  11.642   1.954  0.0151  0.0704 -0.0037
25446W        W41063   7.237   6.988  12.840  0.1259 -0.0381  0.1338
25447W        W41064  14.304   3.090   5.520 -0.0065 -0.0076 -0.0848
25448W        W41065   1.950   0.070   0.041  0.0289 -0.1062 -0.1068
25449W        W41066   6.105   2.491  13.020 -0.1443 -0.0479 -0.1352
25450W        W41067   8.216   4.656   1.415 -0.1681  0.1394  0.0581
25451W        W41068   6.098   0.885   1.388  0.0240 -0.1276 -0.0870
25452W        W41069  11.781  14.799   1.004  0.2085 -0.1188 -0.2046
25453W        W41070  16.551  11.663   1.488  0.2763  0.0575 -0.1395
25454W        W41071   3.279   3.809   0.945 -0.1238 -0.1336 -0.3210
25455W        W41072   8.998   8.553  12.948  0.0004  0.2821  0.0384
25456W        W41073  16.911  15.369   0.123 -0.0632  0.1990 -0.0025
25457W        W41074  12.590  17.583  14.092  0.0349 -0.1403  0.2824
25458W        W41075   3.740  14.578  16.256 -0.4833 -0.0336 -0.0189
25459W        W41076   5.591   1.025  16.952 -0.1763 -0.1769  0.0581
25460W        W41077  16.266   4.546   0.547 -0.2425 -0.0106 -0.3232
25461W        W41078  12.984  11.769   4.447  0.0372  0.0396  0.1328
25462W        W41079   4.873   9.749   1.948 -0.2175 -0.0288  0.0729
25463W        W41080  13.816  11.250   1.371 -0.4523 -0.1945  0.0842
25464W        W41081  17.351   8.428   2.610 -0.2324 -0.1479 -0.2490
25465W        W41082   2.269  11.668   5.870  0.2991  0.2577  0.0595
25466W        W41083  16.272  11.253   4.160  0.0189 -0.3402  0.0801
25467W        W41084  15.511   1.323  14.514  0.1291  0.2652 -0.0581
25468W        W41085   0.789   7.855  14.715 -0.2013  0.0886  0.0736
25469W        W41086   4.931  11.377  15.010 -0.0671 -0.2316  0.1139
25470W        W41087  17.212   0.089  13.348 -0.0661 -0.1402 -0.2118
25471W        W41088   7.776   0.852   4.431  0.1075  0.0349 -0.0107
25472W        W41089  17.152  13.986  12.723  0.0400 -0.2270 -0.0845
25473W        W41090   1.481  12.725  12.544 -0.0959  0.0042  0.2251
25474W        W41091   2.885   1.522  14.138 -0.3376 -0.0999  0.1254
25475W        W41092  11.685   0.565  16.382 -0.2943  0.0386 -0.0059
25476W        W41093   2.631   8.765   1.148 -0.4741 -0.0335 -0.2631
25477W        W41094  12.363   8.397   3.212  0.1692 -0.0887 -0.2979
25478W        W41095   6.882   9.422   6.391 -0.1296  0.1927  0.1309
25479W        W41096   4.461  11.783  13.636  0.0960 -0.1118  0.0255
25480W        W41097   2.519   0.177  14.715 -0.1754  0.0529  0.0156
25481W        W41098  12.722   0.193  12.567  0.1044 -0.2171  0.2559
25482W        W41099  12.583  14.371  14.837  0.1872  0.0346 -0.2049
25483W        W41100  14.537   5.656   1.275 -0.0074 -0.0571  0.2018
25484W        W41101   0.166   6.332  12.443 -0.1459 -0.0412 -0.0140
25485W        W41102  15.335  10.713   4.401  0.2925  0.0478  0.0652
25486W        W41103   7.214   3.514   0.276  0.0648 -0.2616 -0.1852
25487W        W41104  14.789   4.675  15.925 -0.1456 -0.2033 -0.0159
25488W        W41105  15.307   6.032   5.685  0.0749 -0.0969 -0.0504
25489W        W41106   6.489   6.382  13.972 -0.3988  0.1254  0.3895
25490W        W41107  13.314  12.510   4.724  0.0244  0.1128 -0.1020
25491W        W41108  17.532  10.509   0.648 -0.2200  0.0378 -0.2315
25492W        W41109   6.401  17.490   5.378 -0.1757  0.0180  0.0678
25493W        W41110   8.941  16.526   5.115  0.1932  0.1511  0.2349
25494W        W41111   7.870  12.129   2.308 -0.1547  0.0463 -0.0043
25495W        W41112   7.032   2.639   5.632 -0.1951  0.0336  0.0002
25496W        W41113  17.300   0.174   3.878 -0.1073 -0.0059  0.0751
25497W        W41114   8.328   8.620   6.534  0.0486 -0.1874  0.1527
25498W        W41115   9.082   7.229  15.076 -0.3162  0.0142 -0.2011
25499W        W41116  16.966  13.036   5.493  0.0320  0.5000  0.0780
25500W        W41117  11.663   8.187   4.534  0.0501  0.0315 -0.1723
25501W        W41118   7.365   7.110  17.059 -0.0946 -0.0433 -0.2029
25502W        W41119   5.603   7.712   4.533  0.4601 -0.1157 -0.1067
25503W        W41120  14.173   1.574  12.054 -0.2702 -0.1112  0.0046
25504W        W41121  14.589   4.626  16.459  0.0675  0.3040 -0.2300
25505W        W41122  11.835  14.338   1.792 -0.0188 -0.1614 -0.0797
25506W        W41123   2.203  16.824   5.814  0.0145  0.3864  0.0057
25507W        W41124  11.655   6.058   2.055 -0.1421  0.3821  0.0119
25508W        W41125   1.498  12.962  16.307 -0.1291 -0.0351 -0.0595
25509W        W41126  12.772  13.136  12.209 -0.2433  0.1514  0.1625
25510W        W41127   7.158   1.110  14.460  0.2735  0.4559 -0.6741
25511W        W41128  11.936   1.819   5.707 -0.0273  0.2143 -0.0687
25512W        W41129   6.459   1.290  15.156  0.0442  0.1449  0.0077
25513W        W41130   5.558  12.315  14.914 -0.1996  0.1115  0.0481
25514W        W41131  10.789   5.888  16.950  0.4369  0.1502 -0.0266
25515W        W41132  14.889   3.898   3.462  0.0885 -0.3078 -0.1712
25516W        W41133  12.747   6.713  14.310 -0.1557 -0.1678 -0.2528
25517W        W41134  12.533   6.758   6.326  0.1317  0.1209  0.0717
25518W        W41135  10.793  15.144   2.884  0.1021 -0.2197  0.1419
25519W        W41136   5.675  16.290   2.589 -0.2309  0.1612 -0.0214
25520W        W41137  11.887  11.381  13.073 -0.1532 -0.1040 -0.0424
25521W        W41138   5.341  14.240   2.462  0.2502  0.0713  0.0795
25522W        W41139   5.059  17.214  15.423 -0.0813 -0.0825 -0.2680
25523W        W41140   8.934   0.165   4.494  0.0055  0.3274 -0.1062
25524W        W41141   8.694   3.221  12.138 -0.0199  0.1700 -0.0297
25525W        W41142  10.157  16.393  14.637  0.3048  0.1204 -0.0497
25526W        W41143   0.825   6.628  15.365  0.3889 -0.1976  0.1062
25527W        W41144   1.368   6.569  12.112 -0.1915 -0.1949  0.0459
25528W        W41145   7.466   9.650  13.381  0.1119 -0.1822 -0.1872
25529W        W41146   9.819  14.448  11.197 -0.0224 -0.1610 -0.1707
25530W        W41147  16.725   4.484  14.253  0.2853  0.3098  0.0600
25531W        W41148   3.815  16.674  17.217  0.2118  0.0835 -0.3914
25532W        W41149   7.839  13.078   2.858  0.0126  0.0897  0.2612
25533W        W41150   7.169  10.386  13.015 -0.0742  0.0483  0.0397
25534W        W41151   0.882  11.062   3.419  0.1508 -0.0449  0.2190
25535W        W41152   8.340   2.915   2.166  0.0597  0.1696  0.1305
25536W        W41153   8.699   7.743   4.696 -0.2217 -0.0240  0.1905
25537W        W41154   2.680  16.347  15.775  0.0472 -0.1143  0.2448
25538W        W41155   5.163  12.081  15.811 -0.3467  0.0222  0.4726
25539W        W41156   9.447   4.770  14.425  0.3688 -0.0204 -0.0734
25540W        W41157  10.887  13.921   6.596 -0.3041  0.0890 -0.0506
25541W        W41158  16.167   6.920   3.759  0.0074  0.1381 -0.2525
25542W        W41159   6.465   9.676  15.061  0.0927 -0.3339  0.0751
25543W        W41160  15.305   0.908  15.680  0.1096 -0.3046 -0.1437
25544W        W41161  10.812  17.016  13.642  0.1957 -0.0591  0.1146
25545W        W41162   6.939   2.298   3.283 -0.1098  0.0222  0.4015
25546W        W41163   6.892  13.622  11.323  0.1118  0.1809  0.1480
25547W        W41164   7.952   3.812  16.543  0.0823  0.2065 -0.1503
25548W        W41165   6.259   8.320   6.054 -0.3098 -0.1587 -0.0914
25549W        W41166  12.203   5.215   4.613  0.0563 -0.0162  0.0778
25550W        W41167   0.637   8.161   2.884 -0.1219 -0.0886  0.3129
25551W        W41168   6.748   5.895   2.335 -0.1628 -0.0161 -0.1015
25552W        W41169   1.498   3.601   2.290 -0.0898  0.1609 -0.1313
25553W        W41170   4.543   2.874  13.912  0.1598 -0.0121 -0.2801
25554W        W41171  15.946   4.098  13.047  0.1253 -0.1042  0.0775
25555W        W41172  11.387   9.653   4.726  0.0140  0.3158 -0.0958
25556W        W41173   9.628   0.814  13.485 -0.2526 -0.2294  0.0772
25557W        W41174  13.701  17.457   1.984 -0.2313  0.1129 -0.2116
25558W        W41175   3.514  11.665   1.327  0.2889  0.1196 -0.0248
25559W        W41176   0.339   0.024   2.357  0.0878  0.2176 -0.2247
25560W        W41177   2.682   1.704   0.410 -0.0530  0.1647 -0.0136
25561W        W41178  14.139  10.771   4.348 -0.4256 -0.0053 -0.1618
25562W        W41179   7.289  12.619   5.159 -0.0068 -0.0073  0.1337
25563W        W41180  11.144   7.849  16.122 -0.3625  0.1913 -0.2749
25564W        W41181   2.225   4.613   0.073  0.0733 -0.2600 -0.2383
25565W        W41182   7.542  13.546  10.986  0.2346 -0.2781 -0.3617
25566W        W41183  13.889  16.925   1.132  0.0441 -0.0311  0.0505
25567W        W41184   0.546   6.322   6.215 -0.1800  0.0223  0.0198
25568W        W41185  13.101  17.352   0.782  0.1662 -0.0668 -0.2046
25569W        W41186  11.502  12.273   5.705  0.0193  0.0385  0.0587
25570W        W41187   6.994  16.389  14.741 -0.1341  0.0559 -0.1217
25571W        W41188  17.057   4.324   4.531 -0.0057  0.2167 -0.0831
25572W        W41189   6.623   6.714  15.087 -0.2772 -0.2148  0.0399
25573W        W41190  17.308  16.887  12.762  0.1108  0.0528  0.1932
25574W        W41191   1.055   6.125  15.532  0.0647 -0.2642 -0.1421
25575W        W41192  17.062   0.505  14.703 -0.0361 -0.0462  0.1324
25576W        W41193   6.060   8.647   3.531 -0.1334  0.1296 -0.1950
25577W        W41194  14.496   6.329   2.743 -0.0294  0.0331 -0.1538
25578W        W41195   0.229  15.650   0.571 -0.1668 -0.1803  0.0795
25579W        W41196   6.213  17.492   1.146  0.0322 -0.2288  0.1830
25580W        W41197   1.991   9.726   5.680 -0.1777  0.0764  0.1628
25581W        W41198   4.559  14.660  15.982  0.1493 -0.2548  0.1932
25582W        W41199  11.255   8.742   4.377  0.3079  0.2826  0.2077
25583W        W41200   3.664   8.473   1.441 -0.0301  0.1346  0.0589
25584W        W41201   9.664   4.243   0.497  0.0184  0.2395 -0.0985
25585W        W41202   8.997   4.044  16.854  0.4852 -0.1783  0.2550
25586W        W41203  10.042   0.253   3.967 -0.1137 -0.1733 -0.1478
25587W        W41204  13.686   2.970  14.098  0.1329  0.3822 -0.0924
25588W        W41205   7.074   1.336  13.937  0.2186  0.1571  0.2879
25589W        W41206   0.912   9.812  12.660  0.1116  0.1843 -0.3171
25590W        W41207   0.056  15.077   0.631  0.2532 -0.1812  0.2345
25591W        W41208  13.216  14.488  16.157  0.0452 -0.2568  0.2109
25592W        W41209  17.488  14.557   1.212  0.1603 -0.2089  0.2754
25593W        W41210  16.805   9.695  14.647  0.0771  0.1036 -0.1090
25594W        W41211   0.795  17.218   2.156  0.0423 -0.0366  0.2807
25595W        W41212  11.779  13.996  14.446 -0.0679  0.0586  0.0946
25596W        W41213  11.261  12.673   5.579 -0.2611 -0.0894 -0.1650
25597W        W41214   0.870  15.736   2.857 -0.1715  0.0645 -0.0799
25598W        W41215  12.147   2.905  16.779 -0.0420 -0.1547  0.0597
25599W        W41216  15.251  17.137   4.409 -0.0747 -0.0478  0.2138
25600W        W41217  12.092   2.274  15.534 -0.0129  0.1391  0.0465
25601W        W41218   1.651   8.853   4.507 -0.1639  0.2227 -0.0767
25602W        W41219  13.742   0.131   1.393 -0.0078  0.0986 -0.2298
25603W        W41220  15.345  13.560   0.688 -0.1027  0.3670 -0.0671
25604W        W41221   0.934   9.413   3.034  0.0335  0.0301  0.0381
25605W        W41222   4.719  16.481   2.418 -0.0576  0.2908 -0.0603
25606W        W41223   1.880   3.989   4.394  0.1333  0.2404 -0.2457
25607W        W41224   4.990  12.737   4.667 -0.2028 -0.0301 -0.0955
25608W        W41225   4.507   7.959  12.236  0.1641 -0.1947  0.0659
25609W        W41226   4.739   3.252  14.116  0.2952  0.0039 -0.2258
25610W        W41227   4.886  13.895   4.673  0.1067  0.1286  0.0688
25611W        W41228   7.597   6.505   5.068 -0.3929  0.2605 -0.0453
25612W        W41229  17.595   7.868   3.690 -0.0807  0.1413  0.1688
25613W        W41230   0.793   6.747  13.282 -0.2288 -0.2031  0.0223
25614W        W41231   2.766  15.988   0.243 -0.1400  0.1889  0.0195
25615W        W41232  14.630  14.345  11.576  0.1607  0.2212  0.1314
25616W        W41233  15.123   1.947   5.507 -0.1270 -0.0090  0.0664
25617W        W41234   7.771  12.447   5.084  0.0994  0.2652  0.4368
25618W        W41235   5.875  11.166   1.945  0.1246 -0.1773 -0.0140
25619W        W41236  16.969   6.149  15.160 -0.0936 -0.0547 -0.0281
25620W        W41237   5.853   3.608   0.487  0.0817  0.0763 -0.0705
25621W        W41238  12.468   6.851  12.872  0.0420  0.0079 -0.2539
25622W        W41239  11.926  14.593  11.370  0.2974 -0.0402  0.2910
25623W        W41240   0.911  14.834   3.536 -0.0618  0.2317  0.0251
25624W        W41241  14.726  11.499   3.437 -0.2914  0.1385  0.0464
25625W        W41242   5.323  16.541   1.405  0.1021 -0.2622  0.4038
25626W        W41243  16.079   4.852   3.868  0.0431 -0.0098  0.1445
25627W        W41244   8.686   7.584  14.453  0.2187 -0.0332  0.0865
25628W        W41245   2.555  13.472   2.592  0.2464 -0.1231 -0.0989
25629W        W41246   6.897   0.673   1.153  0.1332 -0.1207  0.0783
25630W        W41247   9.259  12.135   1.241  0.1637  0.1736  0.1125
25631W        W41248  14.885  15.602   2.802 -0.0856 -0.0042  0.0149
25632W        W41249   3.398  15.418   3.201 -0.0482 -0.2207 -0.2042
25633W        W41250  13.256  16.507  11.323 -0.6037 -0.0874  0.3651
25634W        W41251  16.003  14.449  14.630 -0.0629  0.1532 -0.0651
25635W        W41252  17.225  15.448   2.802 -0.0221 -0.2553 -0.0312
25636W        W41253   0.227   6.035   0.484  0.0702 -0.1863  0.1140
25637W        W41254  12.101  10.040   5.329 -0.0323 -0.0033  0.1045
25638W        W41255   5.040   4.895  16.456 -0.2099 -0.0164  0.1457
25639W        W41256   6.398  13.368   1.009  0.0688 -0.1371  0.2136
25640W        W41257   1.742  11.149  17.123  0.0722 -0.0013  0.2218
25641W        W41258  10.844   2.885  12.981  0.1893 -0.1618 -0.0561
25642W        W41259  10.325   3.707  11.723  0.1864  0.2562 -0.1264
25643W        W41260  15.947   3.112   4.426  0.2293 -0.1236  0.1621
25644W        W41261  17.468  17.200  13.153  0.2708 -0.3000 -0.2441
25645W        W41262  15.061   9.109  17.067  0.0546 -0.0247  0.0969
25646W        W41263   0.765   5.243  14.311  0.0253  0.1347  0.2702
25647W        W41264   4.302  10.312   3.682 -0.3549 -0.0446  0.1650
25648W        W41265   6.610   5.540   1.392  0.0961 -0.0586 -0.1700
25649W        W41266  15.167  16.447  12.746  0.1530 -0.2214  0.0340
25650W        W41267   0.834  14.850   2.820 -0.0069  0.1888 -0.0496
25651W        W41268  12.218   5.886   4.386  0.1491  0.0815  0.1292
25652W        W41269   6.019   9.222  16.764  0.1955  0.1349 -0.1469
25653W        W41270  14.272   0.408   1.336  0.0763  0.0969 -0.0684
25654W        W41271  13.820  17.545  13.446  0.0920  0.0189 -0.0338
25655W        W41272   9.939   0.225   0.544  0.2355  0.1569 -0.1973
25656W        W41273  10.714  15.480  16.051 -0.0321 -0.0060 -0.0568
25657W        W41274   6.271   0.289  12.670 -0.1573 -0.1777  0.2353
25658W        W41275  11.033  11.118  16.742  0.2761  0.0239 -0.1493
25659W        W41276   1.476   0.697  13.030 -0.0444  0.3523 -0.1154
25660W        W41277  11.681  11.988   5.236 -0.1280 -0.0032 -0.2669
25661W        W41278  10.697  11.769  16.510  0.4323  0.0512  0.0294
25662W        W41279  13.023   6.454   0.592 -0.1534  0.3205 -0.2388
25663W        W41280   8.647  13.712  15.065  0.1681  0.3733  0.1203
25664W        W41281  10.356  16.024   1.710  0.1209 -0.0441 -0.1578
25665W        W41282  15.850  12.334   5.208  0.1043  0.1039  0.0669
25666W        W41283  11.075  16.538  14.548  0.0667 -0.1360  0.0543
25667W        W41284   3.370  10.506   5.606 -0.1380 -0.3199  0.2586
25668W        W41285  17.025  11.304   4.578 -0.1647 -0.0703 -0.0302
25669W        W41286   6.905   2.006   4.692 -0.2036  0.1116 -0.0444
25670W        W41287   5.622  12.460  11.754  0.3865 -0.0838  0.2000
25671W        W41288   5.660  14.058  12.005  0.0528  0.1408  0.1169
25672W        W41289  15.693   5.237   5.878  0.0430  0.1067  0.0626
25673W        W41290  16.662   1.471  13.153  0.1745 -0.1754 -0.0898
25674W        W41291   9.727   8.441   4.101  0.0146 -0.2546 -0.0205
25675W        W41292  10.115  13.602   3.570 -0.0315  0.0671  0.2084
25676W        W41293   8.045   7.430   4.509 -0.0202  0.1193 -0.1319
25677W        W41294  12.230   5.479   2.253 -0.0913  0.0822 -0.0643
25678W        W41295   5.563   1.388  13.753 -0.1778  0.0066  0.1437
25679W        W41296  10.409   3.709  14.559  0.0383 -0.1940  0.0340
25680W        W41297  11.264   1.397  16.951  0.1395  0.2628 -0.0858
25681W        W41298   6.318   8.231  12.944 -0.0139  0.2587 -0.0804
25682W        W41299  16.235   0.295   3.316  0.3029  0.0707  0.4293
25683W        W41300  15.797   7.122  13.910  0.0082  0.0468  0.2541
25684W        W41301   4.505  16.094   0.676 -0.1759  0.0186  0.4606
25685W        W41302   6.874  14.323  15.528  0.2771  0.0779 -0.1808
25686W        W41303  15.553   2.652  15.430 -0.0446  0.2864  0.0006
25687W        W41304   2.465   3.920   2.075  0.0166  0.0285 -0.0034
25688W        W41305   6.364  16.999  13.374 -0.0207 -0.2193 -0.0878
25689W        W41306   4.624   6.533   5.891 -0.1095  0.0134 -0.1850
25690W        W41307  10.437  11.476   0.885  0.1218 -0.0433  0.2186
25691W        W41308  17.117  11.002  11.775 -0.5122  0.1980 -0.0064
25692W        W41309   0.938   9.006   3.379 -0.1099  0.0281 -0.1762
25693W        W41310  10.524  12.183   0.026 -0.1997  0.1601 -0.1214
25694W        W41311   4.469  15.534   1.895 -0.1019  0.2962 -0.0475
25695W        W41312   4.177   0.809   2.927  0.2836 -0.2191 -0.2125
25696W        W41313   9.577  14.108   3.129  0.4158  0.0883  0.3103
25697W        W41314  16.865   9.049   1.580 -0.1438  0.0294  0.1765
25698W        W41315  13.258  14.180   3.528  0.1728 -0.1903  0.0424
25699W        W41316   7.669  17.011  13.104 -0.0084  0.0798  0.1379
25700W        W41317  13.091   1.464   6.110 -0.3999  0.0215  0.2123
25701W        W41318   1.694   8.409  12.799  0.0460 -0.0092  0.1488
25702W        W41319   9.266   2.812   0.966  0.0284  0.0332 -0.0505
25703W        W41320  15.482  11.451   5.681  0.0024 -0.2653  0.2491
25704W        W41321   5.071   9.718  15.102 -0.2320 -0.1057 -0.2847
25705W        W41322  10.309  14.043  14.113 -0.2969  0.1292  0.3292
25706W        W41323  12.038   5.197  14.944 -0.0343 -0.1149 -0.0620
25707W        W41324  13.042   0.866  10.584 -0.0245 -0.1513  0.0596
25708W        W41325   4.157   9.459   3.314 -0.0159  0.1874 -0.1163
25709W        W41326   3.447   7.579   4.699  0.0305  0.1145  0.0521
25710W        W41327   3.511   7.480  14.040 -0.1577  0.3144  0.1444
25711W        W41328  15.592   7.342   4.289 -0.0238  0.2856  0.1187
25712W        W41329   1.293   1.685  16.458  0.1075  0.2832  0.1271
25713W        W41330  14.339   2.823  14.955  0.2212 -0.2481  0.0772
25714W        W41331   4.247   8.949   3.462  0.1748  0.0684 -0.0463
25715W        W41332   6.056  10.734   2.638  0.2005  0.1199  0.1351
25716W        W41333  13.681   6.829   0.573  0.0528  0.1815 -0.1860
25717W        W41334  11.690   8.530  14.021  0.0678  0.2463  0.2312
25718W        W41335   3.361  13.960   1.053  0.0086 -0.1809 -0.0032
25719W        W41336   3.465   9.665   4.915 -0.1080  0.0729 -0.4746
25720W        W41337   3.747  10.411   2.228 -0.0895 -0.0911  0.0326
25721W        W41338   0.914   8.373  16.833  0.1246  0.4243  0.1674
25722W        W41339  13.708  14.918   3.323 -0.1078  0.0140 -0.3171
25723W        W41340  10.076   6.962  11.581 -0.3483  0.0191 -0.1516
25724W        W41341   2.719   2.270   4.477 -0.1136  0.0510  0.1771
25725W        W41342  13.410  14.630   0.515 -0.2420 -0.0420 -0.2717
25726W        W41343  15.833   5.860  14.224 -0.0284 -0.2103  0.1586
25727W        W41344   9.728  13.584  14.208  0.1474  0.4215 -0.0560
25728W        W41345   9.258   2.475   2.569  0.2848 -0.1742  0.1267
25729W        W41346   4.453  11.818   5.306 -0.0514 -0.3758 -0.0527
25730W        W41347   7.552  12.225  14.185 -0.1239  0.6799  0.0233
25731W        W41348   2.910  11.843  12.765 -0.0064  0.2149 -0.0313
25732W        W41349   6.995  13.191   0.024 -0.2017 -0.0945 -0.0597
25733W        W41350   8.309  14.650   5.686  0.0265 -0.0710  0.1427
25734W        W41351   9.092  13.202  14.424 -0.3665  0.1673  0.1244
25735W        W41352   8.987  16.082  13.373  0.0926  0.0879 -0.1634
25736W        W41353   7.475   1.368  12.874 -0.0018 -0.0078 -0.0908
25737W        W41354  11.404   1.716  13.071 -0.2161 -0.1288 -0.1669
25738W        W41355  11.869  15.065  11.678 -0.0557  0.1585  0.4805
25739W        W41356   8.636  16.572   2.457  0.0118 -0.0854 -0.1826
25740W        W41357  12.885  10.106   1.908 -0.1551 -0.3280  0.0712
25741W        W41358   8.166   9.049   4.955  0.0643  0.3012 -0.3861
25742W        W41359  10.386  15.418   3.156 -0.2768  0.1901  0.1847
25743W        W41360  15.258   2.864  13.086  0.0378 -0.1162  0.1213
25744W        W41361   3.419  10.316   3.252 -0.4577  0.0611  0.0386
25745W        W41362   9.829  11.516  17.083 -0.0139  0.3447  0.1353
25746W        W41363   6.259  11.850  12.702  0.1387 -0.1185  0.2350
25747W        W41364   6.475  14.020   3.217 -0.0054 -0.4110  0.0029
25748W        W41365   0.232   8.512   3.841  0.0717  0.0008  0.0725
25749W        W41366  12.844  11.922  13.134 -0.0960  0.0861  0.0791
25750W        W41367  12.653   5.918  15.116 -0.2150  0.2806 -0.1260
25751W        W41368  16.539  10.429  17.127 -0.0270 -0.0612 -0.0766
25752W        W41369   4.502   6.179   0.118  0.0818 -0.0944 -0.1267
25753W        W41370  14.914   4.006  15.374  0.3206 -0.1854 -0.1547
25754W        W41371   4.202   9.918   3.044 -0.0605  0.0578  0.2926
25755W        W41372   5.138   1.239  13.987 -0.2418 -0.0262 -0.0301
25756W        W41373   9.227  14.027  13.442 -0.0276 -0.0990  0.0137
25757W        W41374   9.886   6.617   2.563 -0.1040  0.0004  0.3097
25758W        W41375   9.945   3.964  14.307 -0.0331  0.0716  0.1737
25759W        W41376   9.296  13.109  13.344  0.1606 -0.2884  0.0590
25760W        W41377  15.810   1.571  15.732 -0.2978 -0.1262  0.0036
25761W        W41378   0.065   7.186   6.726  0.0162  0.2242 -0.1394
25762W        W41379   5.743  16.184  16.137  0.2685 -0.2275  0.2609
25763W        W41380  12.865  13.680   5.748  0.0596 -0.0760 -0.1559
25764W        W41381   6.725   5.202  16.033 -0.1487 -0.1758 -0.0080
25765W        W41382   9.592   8.225  12.682 -0.2010  0.1346 -0.3421
25766W        W41383   2.144  13.686   4.595 -0.3162 -0.2007 -0.2241
25767W        W41384  10.024   8.183   3.767  0.1338  0.2721 -0.2162
25768W        W41385  14.551   0.141   4.635  0.0051  0.0615  0.4144
25769W        W41386   0.102   2.181   2.220 -0.1010  0.0237  0.0267
25770W        W41387   2.000  13.896   3.207  0.4539  0.0361 -0.0208
25771W        W41388  12.962  16.000  16.541 -0.0411  0.1554 -0.1603
25772W        W41389   2.885  15.820   4.634  0.0649  0.0774  0.2666
25773W        W41390  14.605  15.530  15.776  0.2361  0.2239  0.1244
25774W        W41391   3.139  16.636   0.866 -0.1283 -0.0614  0.2130
25775W        W41392  15.518   2.615   3.709  0.0532 -0.3489 -0.0917
25776W        W41393   8.644  10.793  13.885  0.3149  0.0257  0.3832
25777W        W41394  10.007   9.614  12.818  0.1496 -0.1547 -0.1853
25778W        W41395   2.206  15.235   2.934  0.2498 -0.2073 -0.1456
25779W        W41396   5.305   4.696  15.671 -0.1934 -0.0204  0.0907
25780W        W41397  15.173   8.531   3.338  0.2254 -0.0268 -0.0801
25781W        W41398   4.622   6.103   4.467  0.0334  0.0403  0.0692
25782W        W41399   9.874   8.233  14.876  0.2364 -0.5725  0.1765
25783W        W41400  12.524  11.632  16.924  0.0310  0.0173 -0.1256
25784W        W41401  13.515  10.964  17.069  0.3543 -0.0612 -0.1168
25785W        W41402   3.567  10.508   0.733  0.0135 -0.0090 -0.0290
25786W        W41403   4.277  11.692   4.406  0.3615  0.0442  0.3719
25787W        W41404   6.359   5.668  12.879  0.2703  0.2219  0.2752
25788W        W41405  14.767   0.689  11.212 -0.0801 -0.1936  0.2332
25789W        W41406  17.180  15.252   5.126 -0.1396 -0.0281 -0.2173
25790W        W41407   9.567   3.299  15.542 -0.1452 -0.2200  0.1797
25791W        W41408   6.591  11.173  13.275 -0.1595 -0.0750  0.0910
25792W        W41409   4.528  14.493   1.732  0.2377  0.4380 -0.2304
25793W        W41410  10.848   9.434  13.524  0.0533 -0.0612  0.0324
25794W        W41411  14.349   4.995   4.291 -0.2990  0.1548  0.3110
25795W        W41412   5.802  11.021   4.363 -0.1824 -0.4980  0.0013
25796W        W41413  12.694   9.909   3.391  0.1178 -0.0470  0.2377
25797W        W41414  10.985   0.652  12.270 -0.0563  0.0850  0.2688
25798W        W41415  17.253  12.112  15.083  0.1142 -0.1269  0.0766
25799W        W41416   1.635  16.712  17.111  0.2260 -0.0115  0.1928
25800W        W41417  10.867  17.289   4.163  0.0923  0.3535 -0.0734
25801W        W41418   7.401  16.032   4.143 -0.2288  0.0822  0.0174
25802W        W41419   7.127  17.560   1.451 -0.0521 -0.0483  0.0927
25803W        W41420  17.459  11.723  12.546  0.0445 -0.2167 -0.2285
25804W        W41421   2.607   6.971  13.048  0.0269  0.1679  0.1919
25805W        W41422   0.102   9.839   5.186  0.3569 -0.0973  0.0061
25806W        W41423   3.154  16.215  15.802  0.0735 -0.2376 -0.1144
25807W        W41424   7.260   5.308  13.503 -0.2629 -0.0358  0.1866
25808W        W41425   3.741   9.874  11.826 -0.4051  0.0208  0.0092
25809W        W41426   6.517  15.751  11.730  0.1431  0.0606  0.2459
25810W        W41427  12.440  15.551  10.775 -0.2337  0.2242 -0.2341
25811W        W41428   9.765   2.613  16.027 -0.1369 -0.0510  0.2047
25812W        W41429  11.050   3.031  15.158  0.5521 -0.2061 -0.0668
25813W        W41430  15.601   4.433   4.131 -0.1102  0.2109  0.1165
25814W        W41431   1.077   0.715   5.102  0.3011  0.3100 -0.3943
25815W        W41432   7.288   0.116  14.728 -0.0433  0.0381 -0.2423
25816W        W41433   2.283  12.977   3.532 -0.1647 -0.0985 -0.2544
25817W        W41434  12.447  14.757  16.384  0.1040 -0.4189 -0.0314
25818W        W41435   6.415   2.186   0.015 -0.1879  0.1996  0.0086
25819W        W41436   8.731  12.815  15.392  0.1079  0.1900  0.1021
25820W        W41437  11.251  11.134   3.932 -0.0078 -0.0949  0.1038
25821W        W41438   5.853  11.564  17.194  0.0662  0.2001 -0.1310
25822W        W41439   0.316   6.991  16.331 -0.1233  0.0801 -0.0295
25823W        W41440  17.206  10.589  14.911 -0.0591 -0.1510  0.2052
25824W        W41441   0.016   7.386  16.235  0.1057  0.0534 -0.0032
25825W        W41442   9.421   9.446  15.660  0.3738 -0.3478 -0.0256
25826W        W41443   0.934  10.599   3.736 -0.0277 -0.3832  0.1559
25827W        W41444   3.741   7.891   6.844 -0.2666 -0.1279 -0.0964
25828W        W41445   4.222   4.856   5.667  0.1619  0.2212  0.0731
25829W        W41446   1.166  14.454  17.279  0.0915  0.0471  0.2993
25830W        W41447  11.474   2.399  17.278 -0.1617  0.1289  0.1751
25831W        W41448  16.933  16.513  12.797  0.0509  0.2005 -0.0048
25832W        W41449   5.274  15.222  15.138 -0.0055 -0.0560  0.2296
25833W        W41450   7.112   3.842   1.707  0.0483  0.4582 -0.0280
25834W        W41451  10.765   8.548   5.440  0.0145  0.1043 -0.0808
25835W        W41452  14.115  14.062  16.526  0.1947 -0.0498 -0.3078
25836W        W41453   4.710   1.846   1.805  0.1328  0.2711  0.1030
25837W        W41454   9.434  13.476   2.659 -0.3914 -0.1210 -0.1282
25838W        W41455   9.893  16.105  16.331 -0.2059  0.0883  0.0815
25839W        W41456  12.574   5.695  15.546  0.0308 -0.2052  0.1556
25840W        W41457   4.379   1.676   0.834  0.1848 -0.1549  0.2579
25841W        W41458  10.704  15.854  15.718  0.1743  0.2951 -0.0487
25842W        W41459   6.528  13.724   1.376  0.0416  0.2776  0.1069
25843W        W41460  10.755   3.390  12.776 -0.3346  0.0083 -0.0502
25844W        W41461  11.060   0.276   3.553 -0.1389  0.0351  0.0865
25845W        W41462  11.336  11.619   2.832  0.1875 -0.2482  0.2900
25846W        W41463   6.913   7.481  13.275  0.0405  0.0712  0.0395
25847W        W41464  16.450   8.500   4.751 -0.2951 -0.0176 -0.0541
25848W        W41465  15.697   4.621  14.429 -0.0691  0.0392  0.4273
25849W        W41466   8.647   9.081   4.111 -0.0058 -0.2455 -0.1704
25850W        W41467   1.923  15.881  11.555 -0.2526  0.1564 -0.1914
25851W        W41468  14.609  15.512   2.293 -0.0548  0.0020 -0.1018
25852W        W41469  17.616   6.039  13.960  0.1065  0.1357  0.2577
25853W        W41470  12.471   8.037  12.501  0.0146 -0.1227  0.0130
25854W        W41471  10.963  11.569  11.854 -0.1362 -0.0972 -0.2669
25855W        W41472  11.798  12.540   4.785 -0.2292  0.0716 -0.1835
25856W        W41473   1.421   9.273   6.816  0.1815  0.1821  0.3737
25857W        W41474  13.801   5.133   2.348 -0.0284  0.2633  0.4337
25858W        W41475  13.550  14.204  14.280  0.1163 -0.1165  0.0615
25859W        W41476  16.510  10.220  16.043  0.2038 -0.0266  0.0019
25860W        W41477  16.133  16.975  16.741 -0.2538  0.0114  0.3105
25861W        W41478   0.257   1.920  13.368 -0.3410  0.0916  0.1202
25862W        W41479  10.459   8.449  12.517  0.2406 -0.1249 -0.4103
25863W        W41480  16.379   9.375   1.479 -0.2578 -0.0594 -0.0128
25864W        W41481   1.893  11.020  12.902  0.1331 -0.0845 -0.1843
25865W        W41482   7.208  12.834  12.956  0.0979 -0.1690  0.0783
25866W        W41483  11.365  11.653  15.077 -0.1050 -0.2117  0.0284
25867W        W41484   4.753   7.074  14.712 -0.2389 -0.0154 -0.0108
25868W        W41485  14.296   0.344   6.055 -0.2468  0.1018 -0.4337
25869W        W41486  13.910   8.772   1.349 -0.0219  0.1268  0.0673
25870W        W41487  17.291  15.584  12.949 -0.0110  0.1913  0.1581
25871W        W41488   8.412   7.532  17.116 -0.0788 -0.1762  0.1032
25872W        W41489  11.724   7.903   2.323 -0.1235 -0.0294 -0.1805
25873W        W41490  11.102   7.786   1.092 -0.0053 -0.0187  0.1291
25874W        W41491  15.830   2.818  16.985  0.3823  0.0899 -0.3512
25875W        W41492   5.652   8.866  16.823 -0.2272  0.2041  0.0727
25876W        W41493  11.071  13.508  16.130 -0.0366 -0.1329  0.1316
25877W        W41494   9.987   1.729   3.471  0.3400  0.1514 -0.0497
25878W        W41495  12.346   7.850  12.917  0.1979 -0.0040  0.2637
25879W        W41496   1.049   0.190  15.439 -0.1611  0.2478  0.0063
25880W        W41497   4.051  12.330   2.276 -0.1867  0.0768  0.1138
25881W        W41498   7.553   4.024  16.264 -0.1377  0.2374  0.1115
25882W        W41499   7.063   2.408  12.327  0.2311 -0.0300 -0.1694
25883W        W41500   0.280   7.829  14.879  0.1788 -0.1935  0.0294
25884W        W41501   0.630  14.440  14.785 -0.2451  0.0528  0.1868
25885W        W41502  15.604  12.816  15.126  0.0091  0.3729 -0.0721
25886W        W41503   2.002   5.333  13.552 -0.0129  0.2038  0.2563
25887W        W41504  11.792  16.180  16.648 -0.1107 -0.1352 -0.0854
25888W        W41505   0.724  13.576   0.411 -0.0231  0.0045  0.1670
25889W        W41506  16.649  13.429   2.093 -0.0337  0.5810 -0.1876
25890W        W41507   4.860   1.121   4.360 -0.0597 -0.2328 -0.0596
25891W        W41508  11.384  13.027  14.341  0.1177  0.0376  0.1573
25892W        W41509  15.723  16.156  12.661  0.0925  0.0303  0.3022
25893W        W41510   3.531  12.360  13.847  0.0108  0.0712  0.3644
25894W        W41511  14.063   9.568   0.714  0.3418 -0.0613 -0.1933
25895W        W41512   4.720  12.144   1.821 -0.2053  0.2164 -0.1941
25896W        W41513   0.445   0.563  16.536 -0.2528  0.0376 -0.3542
25897W        W41514  10.842   6.632   2.406 -0.1370  0.0763 -0.0301
25898W        W41515  15.908   8.734   2.218  0.0372 -0.2898 -0.1087
25899W        W41516   8.177  17.317   0.414  0.0266  0.0925  0.3034
25900W        W41517   8.883   0.725   1.246 -0.0780 -0.3106 -0.0698
25901W        W41518   2.359   4.229   1.163  0.0718 -0.2099 -0.0440
25902W        W41519  17.451   3.264  12.538  0.1438  0.4646 -0.0740
25903W        W41520   2.539  14.415   6.000 -0.0805  0.0742  0.1834
25904W        W41521   5.684   6.885  11.243 -0.1972  0.1675 -0.2282
25905W        W41522   2.549   9.197   1.874  0.1800 -0.0527  0.2867
25906W        W41523   0.600   3.440  16.473  0.0393  0.0626 -0.1591
25907W        W41524  13.894  12.733   5.401 -0.0980  0.2235 -0.2383
25908W        W41525   3.524   6.444  11.334  0.1038 -0.4550 -0.1908
25909W        W41526   1.633   1.611   3.851  0.0335  0.0867 -0.3490
25910W        W41527  15.261   4.070   5.854  0.1236  0.0623  0.3998
25911W        W41528  15.521   6.496   5.604 -0.0111 -0.1977  0.2716
25912W        W41529   3.766  17.594  16.235  0.1536  0.1380 -0.2160
25913W        W41530  12.090  15.887   2.831 -0.0041 -0.0393  0.0435
25914W        W41531  13.971  13.264  16.819  0.1930 -0.1380 -0.1590
25915W        W41532   1.037   6.803   5.589  0.0170 -0.1414 -0.0328
25916W        W41533   3.664   2.324   4.951  0.1842 -0.2960 -0.2939
25917W        W41534  16.404   2.768   0.994  0.1162  0.1163 -0.0511
25918W        W41535   7.835   5.811   4.072  0.1215  0.1451  0.1887
25919W        W41536   8.405   1.934  15.616 -0.1200 -0.0393  0.2554
25920W        W41537   2.671   1.863  13.016  0.2358  0.4155  0.1873
25921W        W41538  11.669   4.176  16.204 -0.0365 -0.1098  0.1412
25922W        W41539  15.433   3.178   3.852  0.2700 -0.0226 -0.0312
25923W        W41540   9.288   2.662  13.727 -0.2877 -0.2946 -0.2122
25924W        W41541   2.702   7.054   2.659  0.0907 -0.2270  0.0208
25925W        W41542   6.930  12.446   0.600 -0.0704  0.0905 -0.0579
25926W        W41543  17.529   4.000  15.392  0.1068  0.0546 -0.0324
25927W        W41544  13.623   0.367   3.935 -0.4215 -0.1614  0.0859
25928W        W41545   1.320   7.222  13.417  0.0456 -0.0928  0.2985
25929W        W41546   5.714   5.861   3.225 -0.0446 -0.1319 -0.1792
25930W        W41547   0.047   7.180   1.697  0.2371  0.1543  0.0144
25931W        W41548   1.789  11.446   1.443 -0.0645  0.0496  0.2912
25932W        W41549  16.693   0.014   4.589  0.4225  0.2824 -0.2704
25933W        W41550   4.404   2.399   5.399 -0.4112 -0.1178 -0.0353
25934W        W41551  15.966   3.259   1.667  0.0348  0.1200  0.0295
25935W        W41552  10.688  13.099  16.110 -0.2640 -0.2514 -0.0379
25936W        W41553  11.345  16.820   0.067  0.0338  0.2147  0.0282
25937W        W41554   8.939  11.605   5.576 -0.2124 -0.2630  0.0394
25938W        W41555  14.210   1.918   3.773 -0.1539  0.1084  0.1668
25939W        W41556  14.214   6.255  15.580  0.1128  0.0094 -0.1371
25940W        W41557   4.671   8.769   0.408  0.2754 -0.0761  0.0947
25941W        W41558   6.203   7.122   4.767  0.1777 -0.0418 -0.0434
25942W        W41559   8.838  17.039   5.494  0.1130 -0.2084 -0.4295
25943W        W41560   7.624   9.497  12.932 -0.0928 -0.0164  0.0128
25944W        W41561  12.169   3.547   4.663 -0.0094 -0.2522  0.0178
25945W        W41562   0.454   4.121  14.599  0.0035 -0.1870  0.0684
25946W        W41563  14.692   0.388   3.643 -0.2447 -0.1907 -0.2453
25947W        W41564   0.166  15.700  16.942  0.1091 -0.1521  0.0521
25948W        W41565  16.919  10.154  14.726 -0.1068 -0.0380  0.1947
25949W        W41566  11.498  15.308  13.164 -0.0716 -0.2593 -0.1005
25950W        W41567   8.454   7.956   5.915 -0.2299  0.0394  0.2863
25951W        W41568   5.362   8.652  15.156  0.0626  0.1387 -0.0422
25952W        W41569  15.303   1.249  14.921 -0.2241  0.2228 -0.2148
25953W        W41570   0.944  13.081   5.831  0.0563  0.3468  0.2647
25954W        W41571  15.536   4.086  12.433  0.0057 -0.0522 -0.0126
25955W        W41572  15.952  16.770  14.971 -0.0452  0.0497  0.1723
25956W        W41573   5.736   4.863   6.037 -0.0497  0.0593  0.1614
25957W        W41574   7.987   2.426   3.184 -0.3531 -0.3167 -0.0282
25958W        W41575   5.137   7.557   3.807 -0.0954  0.2074  0.1306
25959W        W41576  16.102  15.749  15.701 -0.2806 -0.1012 -0.0059
25960W        W41577  11.058  10.394  15.081 -0.1574  0.1268 -0.1554
25961W        W41578   0.573   5.650  16.211 -0.0732 -0.0012  0.1369
25962W        W41579  11.212   9.379  16.773 -0.1181 -0.1461 -0.0283
25963W        W41580  14.316  14.672   1.175 -0.0254  0.0126  0.1366
25964W        W41581   6.273  14.029   4.887 -0.0159 -0.1771  0.0963
25965W        W41582   5.019   8.109  14.945 -0.2140 -0.1935  0.0087
25966W        W41583  14.889  13.565   5.535 -0.0004  0.1847  0.2928
25967W        W41584   9.084   3.526  12.230 -0.0268  0.0542 -0.0155
25968W        W41585   0.595   6.540  12.543  0.1312  0.1227 -0.0467
25969W        W41586   2.835  13.541   5.965  0.3150 -0.3823  0.2427
25970W        W41587   4.843  16.235  11.103  0.1510 -0.1517  0.5337
25971W        W41588   9.452  14.650   4.500 -0.0616  0.3480  0.0128
25972W        W41589  15.279   3.822   2.647  0.1861 -0.1092  0.0465
25973W        W41590  16.338  10.867  17.230  0.0877 -0.1296  0.1165
25974W        W41591   9.813  17.225  10.629 -0.0034 -0.0591  0.2652
25975W        W41592   4.056   9.313   0.898 -0.0499  0.0603  0.3295
25976W        W41593  10.539  16.008   1.236  0.2033 -0.0054 -0.0730
25977W        W41594   3.489   1.709   4.167 -0.2079 -0.0015 -0.0279
25978W        W41595   3.151  16.045   3.984 -0.0604 -0.1185  0.0383
25979W        W41596   5.575  10.233  15.894 -0.0186  0.1103  0.1442
25980W        W41597  16.339  14.234  12.223  0.1988 -0.0144  0.1323
25981W        W41598   1.894   4.955   1.316  0.1239  0.2140 -0.1880
25982W        W41599   9.453  16.685  13.668  0.0714 -0.3504  0.5599
25983W        W41600   2.625  15.823  13.803  0.1194  0.3389  0.2607
25984W        W41601  10.286  16.082  12.488  0.1548 -0.0301  0.0562
25985W        W41602   1.158  14.601   3.138  0.1968 -0.1145 -0.0281
25986W        W41603   1.781  11.760   5.958 -0.1020 -0.1018  0.1069
25987W        W41604   7.253   7.276   5.416  0.2548  0.1748  0.0248
25988W        W41605  15.007   8.410   6.382  0.0228 -0.2357 -0.1176
25989W        W41606   6.252  13.827   1.841  0.0280  0.2588 -0.0322
25990W        W41607  10.411   8.852   3.833  0.2314 -0.0675 -0.1347
25991W        W41608   0.017   2.481   0.894 -0.2641 -0.3027  0.0697
25992W        W41609   5.247   1.415   4.571 -0.0925 -0.2444  0.2757
25993W        W41610  17.155   5.076  12.803 -0.1154 -0.0419  0.0383
25994W        W41611  11.942   4.922  16.437  0.2986 -0.2472 -0.1035
25995W        W41612   4.863  15.235   3.876 -0.0149  0.0521  0.0236
25996W        W41613  10.672   2.779  13.450  0.0826  0.1815  0.0034
25997W        W41614  13.452   0.619  12.262 -0.0441 -0.1547 -0.1215
25998W        W41615  10.260   6.721  17.149 -0.1635  0.0738 -0.2170
25999W        W41616   1.931   1.868  15.033 -0.1922  0.1224  0.4522
26000W        W41617   2.879   6.998  12.656 -0.1189  0.0291  0.0091
26001W        W41618   4.022   4.399  13.953  0.2128  0.1020  0.0983
26002W        W41619   5.826   7.947  15.879  0.0459  0.0869  0.1743
26003W        W41620   5.953  11.422  15.231  0.2247  0.2297 -0.1168
26004W        W41621  16.256  17.194   5.430  0.3929 -0.0677 -0.0651
26005W        W41622  15.667   7.260   6.065  0.1334 -0.0318  0.1322
26006W        W41623   8.204   2.236  16.756  0.1683 -0.1272  0.1123
26007W        W41624   5.589  11.759   2.254 -0.2073  0.0334  0.2785
26008W        W41625  12.227  13.343   0.844 -0.2539  0.1562  0.0528
26009W        W41626   4.609   0.629   2.177 -0.0626 -0.1078  0.0664
26010W        W41627   4.420   7.943   0.920 -0.1121 -0.2016  0.1867
26011W        W41628  11.037   2.008   0.671  0.2633 -0.0042  0.1375
26012W        W41629  10.262  10.122  13.050 -0.2553 -0.0842  0.0071
26013W        W41630   2.432  10.720   2.683  0.1789  0.2201  0.1602
26014W        W41631  17.472  10.476  15.988 -0.1761 -0.1257  0.5347
26015W        W41632   8.867   4.032   1.205 -0.2065  0.1704  0.0757
26016W        W41633  13.019   9.740   2.965 -0.0101 -0.2632  0.0222
26017W        W41634   4.685   6.922   6.143 -0.0342  0.1069  0.0976
26018W        W41635  16.841   2.649  12.150  0.1780 -0.0719 -0.1943
26019W        W41636  16.434  13.987  16.050  0.0907 -0.1676  0.0389
26020W        W41637   3.891  11.693   2.954  0.1985  0.1512 -0.0006
26021W        W41638   0.319   5.581   6.430  0.0439 -0.1189  0.2191
26022W        W41639   2.104   8.563  15.631  0.0349  0.0755  0.0240
26023W        W41640  17.209   7.845   1.131  0.1196  0.0490 -0.0214
26024W        W41641  13.746  11.483   3.744  0.4839  0.1031 -0.1920
26025W        W41642  17.551   8.552  12.564 -0.2041 -0.2614  0.2456
26026W        W41643  12.531  15.612  15.038  0.1745 -0.0423 -0.1719
26027W        W41644   9.844   5.355   3.009  0.2118  0.1701 -0.1327
26028W        W41645   9.972   5.758   1.845  0.1624 -0.0027 -0.1317
26029W        W41646  10.369   3.448   5.233 -0.0296 -0.0689 -0.2878
26030W        W41647   6.382   5.134  12.109  0.2373 -0.3331 -0.1072
26031W        W41648  11.205   3.735   1.308  0.3298 -0.0803 -0.1613
26032W        W41649   8.869   1.869  13.198 -0.1456 -0.2331  0.0009
26033W        W41650   0.144   5.574   5.301 -0.0015 -0.0522  0.1757
26034W        W41651  16.332   7.126   4.519 -0.0689 -0.2097 -0.3206
26035W        W41652   0.750   9.647  16.191 -0.3342  0.1932 -0.0614
26036W        W41653   0.579   0.176   3.357  0.1854 -0.2300 -0.0261
26037W        W41654  17.191   0.659   4.860 -0.0114  0.2470  0.3790
26038W        W41655  16.834  12.527   4.801 -0.1671 -0.1757  0.0093
26039W        W41656  16.974  15.729   3.064  0.0817  0.0590 -0.0718
26040W        W41657  10.841  10.787  15.411  0.1119  0.1070  0.0909
26041W        W41658   4.235  10.955   5.988 -0.0660  0.0305  0.1352
26042W        W41659   5.246   3.689   2.697  0.0823  0.1067 -0.1341
26043W        W41660   1.174   1.096   2.594  0.0722 -0.1260 -0.4759
26044W        W41661   6.909   3.923  14.706  0.1015  0.0593 -0.0406
26045W        W41662  12.042  15.599  15.270 -0.0406  0.1162 -0.0598
26046W        W41663   5.686   8.403   1.377  0.0470 -0.1839 -0.0118
26047W        W41664   8.599  15.482   5.586  0.0200  0.0866 -0.1193
26048W        W41665  15.570  16.643  15.314 -0.1379  0.1665 -0.1903
26049W        W41666   7.209  12.885  15.857  0.0511 -0.2117 -0.0178
26050W        W41667   7.314   6.097  15.166 -0.1293  0.1574  0.1154
26051W        W41668  14.445  11.927   0.630 -0.2011  0.0236 -0.0942
26052W        W41669   0.949   1.213  14.351 -0.0699 -0.0374 -0.2603
26053W        W41670  10.397   5.115  12.765  0.3666  0.1465  0.3399
26054W        W41671   5.914   9.090   4.271  0.1110  0.5406  0.2125
26055W        W41672  14.712  15.201   1.194  0.3786 -0.5107 -0.0242
26056W        W41673   3.745  10.441  13.803  0.2924 -0.1228  0.0040
26057W        W41674   3.429  11.385   5.453 -0.1069  0.4751  0.0662
26058W        W41675  10.472   2.875   2.025 -0.2011  0.1937  0.0760
26059W        W41676  14.780   5.421  13.608  0.0274  0.0025  0.1572
26060W        W41677   9.127   7.045   6.761 -0.0158 -0.0483 -0.1240
26061W        W41678  12.661   4.107   5.640  0.0492  0.2354 -0.3154
26062W        W41679  15.266  14.916   1.034  0.1702 -0.1614 -0.1480
26063W        W41680  17.604  10.643  14.113 -0.3780  0.0438  0.1263
26064W        W41681  12.008   8.306   5.377  0.2887 -0.0804 -0.0393
26065W        W41682   0.599  11.832   0.707 -0.3604 -0.3377  0.2156
26066W        W41683  12.365   5.710  13.573  0.0542 -0.1645 -0.1044
26067W        W41684  14.042  13.766  11.321  0.0750 -0.1145 -0.1657
26068W        W41685  14.810  16.897  11.010 -0.0570 -0.0991 -0.2267
26069W        W41686   3.282   1.700  16.691  0.1738 -0.3495 -0.1121
26070W        W41687  10.082  16.420   4.486  0.1366  0.1992  0.0268
26071W        W41688  17.417   5.107   3.892 -0.2276  0.1526  0.0054
26072W        W41689   2.616   6.276   2.363  0.2264  0.0145 -0.1325
26073W        W41690  10.605  13.605   0.197 -0.0014 -0.2467  0.1089
26074W        W41691   8.925  12.690   3.474 -0.2423 -0.1021  0.0368
26075W        W41692  11.205   3.139   4.999  0.0159 -0.0391  0.0217
26076W        W41693  11.279   6.295   5.086 -0.2671 -0.1041  0.2562
26077W        W41694   9.257   4.926  15.370  0.1735 -0.0231 -0.1360
26078W        W41695  14.854  10.689   4.962  0.1820  0.0500 -0.2596
26079W        W41696  12.109  16.924  12.138  0.0846  0.0606  0.1491
26080W        W41697   1.180   7.300   5.789 -0.3303 -0.0602 -0.1101
26081W        W41698  10.246   9.170   2.367  0.1113  0.0607 -0.1922
26082W        W41699  17.349   7.891   2.665 -0.0918 -0.2758 -0.0264
26083W        W41700  17.473  10.708   4.075 -0.5800 -0.0234 -0.0278
26084W        W41701  11.459  16.360  12.414 -0.0752  0.1224  0.2890
26085W        W41702   9.848   4.272  13.807  0.0879  0.0617  0.0580
26086W        W41703   2.556   2.351   0.081 -0.1265  0.1534  0.1570
26087W        W41704   3.758  11.486   0.709 -0.1015 -0.0137 -0.0475
26088W        W41705  16.543  11.912  13.395  0.3067 -0.0429  0.1185
26089W        W41706   8.631  13.856  11.442 -0.0576 -0.1313 -0.0438
26090W        W41707   1.435  10.010  12.827 -0.1788  0.2844  0.0707
26091W        W41708   7.247   9.675  13.927  0.0222  0.0368  0.1768
26092W        W41709   1.541   5.457  14.785 -0.1147 -0.0159  0.1451
26093W        W41710   6.170  13.201  11.205 -0.2104 -0.0952  0.0808
26094W        W41711   5.684  10.123   1.104 -0.0602 -0.2723  0.0631
26095W        W41712  12.312   8.420   1.775 -0.2076  0.1589  0.1171
26096W        W41713  10.080  10.788  15.917 -0.0610  0.0559 -0.0969
26097W        W41714   6.581   0.101  13.019  0.0230  0.0691  0.1571
26098W        W41715   6.140   2.591   3.518 -0.0371 -0.2923  0.1395
26099W        W41716   4.616   4.232   2.121 -0.1041 -0.0756  0.0924
26100W        W41717  15.722   4.193   5.645  0.1343  0.4723 -0.1683
26101W        W41718  13.897  14.443   3.149 -0.2881  0.0177  0.1135
26102W        W41719  10.870   7.992   3.497  0.2535  0.2445 -0.1016
26103W        W41720   1.288   6.637  13.206 -0.0190  0.1144 -0.3190
26104W        W41721   5.590   8.042   1.694 -0.2800 -0.1052 -0.1098
26105W        W41722  13.272  13.210   0.884 -0.1372  0.1817  0.1026
26106W        W41723  14.152  14.914  11.530  0.0789  0.2451  0.2464
26107W        W41724  13.724  17.178  14.762  0.0041  0.0177 -0.1192
26108W        W41725   7.446   2.699  16.264  0.1336  0.1198  0.1596
26109W        W41726  11.430   5.931  16.668 -0.0114  0.0127 -0.0727
26110W        W41727  15.894   3.134   2.482  0.0210 -0.1192  0.0241
26111W        W41728   8.844  15.262   2.072  0.0969  0.0471 -0.0225
26112W        W41729   5.089  17.057  13.466 -0.0574  0.1257  0.0165
26113W        W41730   1.387  16.368  15.421 -0.1048 -0.0080  0.0608
26114W        W41731   8.552  12.922   0.778 -0.1638  0.0304 -0.0475
26115W        W41732   3.726   1.979  13.067  0.2901 -0.1925  0.1530
26116W        W41733   6.805   0.395  13.814  0.0690  0.2811  0.1329
26117W        W41734   4.576  14.888  16.462 -0.0881 -0.1146  0.0229
26118W        W41735   2.365   3.697   2.739  0.0998 -0.0776 -0.0360
26119W        W41736   3.840  16.597   1.868 -0.1208 -0.2895  0.2644
26120W        W41737  13.440   6.454   5.835 -0.0957 -0.0859  0.4885
26121W        W41738  14.460  11.881  17.058  0.0600 -0.3227 -0.1330
26122W        W41739  14.307  15.255  14.301  0.1161  0.2954 -0.0281
26123W        W41740  10.561   1.517  12.904 -0.2828  0.1189 -0.4074
26124W        W41741   3.317  17.407  13.925 -0.0077 -0.0122 -0.1259
26125W        W41742  14.527   4.684   5.615 -0.1235 -0.3843  0.0617
26126W        W41743  13.778   3.446   6.015 -0.0905  0.0548  0.2004
26127W        W41744   2.719  15.384  14.787  0.2888  0.0876 -0.1501
26128W        W41745   3.558  14.857  15.827 -0.2913  0.1098 -0.0566
26129W        W41746  11.901  14.261   6.038 -0.2484  0.2965 -0.1830
26130W        W41747   0.193   3.635  14.393 -0.1590  0.2313  0.2876
26131W        W41748  14.078  13.223   3.991  0.0667  0.0844 -0.0568
26132W        W41749   3.565   3.316   0.566 -0.0044  0.1652 -0.1832
26133W        W41750   8.697   8.390  13.825 -0.2197 -0.0120 -0.3715
26134W        W41751  11.951  16.957  15.645  0.2000  0.1443 -0.0018
26135W        W41752   1.490  14.469   4.996 -0.1468  0.0151  0.0010
26136W        W41753  11.499  13.605  14.758  0.2876  0.1331  0.0712
26137W        W41754  15.365   4.721  13.268  0.0382 -0.2216  0.0447
26138W        W41755   3.211   2.716   5.001  0.1282  0.1148  0.2090
26139W        W41756   7.256   0.201   0.468 -0.1074  0.1324  0.2097
26140W        W41757   0.344  10.011  16.990 -0.1767  0.0538 -0.0320
26141W        W41758  14.078   3.922  14.139 -0.2749 -0.0015  0.0270
26142W        W41759  16.060   0.176   6.412 -0.0282 -0.0953  0.2336
26143W        W41760   7.917  11.218   2.822 -0.1191  0.2343 -0.2025
26144W        W41761   9.661  13.676   1.769  0.0569 -0.0186 -0.5075
26145W        W41762  11.543   1.195   2.597  0.2028  0.0105 -0.1191
26146W        W41763   7.676   9.069   4.972  0.2762 -0.0542  0.0081
26147W        W41764   5.681  12.345  16.692 -0.0090  0.0780  0.1889
26148W        W41765   0.517   4.916   2.723 -0.0698 -0.4922  0.1798
26149W        W41766  13.016   1.283  11.831 -0.1367 -0.0373 -0.0151
26150W        W41767  16.090  15.250  15.452  0.0630  0.0244  0.1014
26151W        W41768   7.828   2.866  11.009 -0.2292 -0.1485 -0.0876
26152W        W41769   4.141   2.112   0.634  0.1576  0.2770 -0.4237
26153W        W41770  15.316  13.915  15.709  0.2137 -0.1729  0.1692
26154W        W41771   3.767  15.904  14.393 -0.1572  0.1003  0.1085
26155W        W41772   6.208   3.343   2.610  0.1342  0.3780 -0.0542
26156W        W41773  12.929   3.353  12.788 -0.1477  0.1706  0.3600
26157W        W41774   0.126   4.911   4.768 -0.3155 -0.0864 -0.2542
26158W        W41775   5.374   1.650  11.993  0.0618  0.0374 -0.0850
26159W        W41776  14.414   6.017   0.921 -0.2758 -0.4148  0.1173
26160W        W41777   5.969   3.742   5.380 -0.1267  0.0136 -0.0483
26161W        W41778   4.576   4.636   3.491 -0.1137 -0.0141  0.0175
26162W        W41779  17.125  12.809   4.452  0.1884 -0.1359 -0.3131
26163W        W41780   9.884  16.957   0.449  0.2890 -0.1940 -0.1687
26164W        W41781  12.585  16.683  12.470  0.1457  0.0580  0.0019
26165W        W41782   9.557  10.970   0.333 -0.2663  0.2457  0.1719
26166W        W41783  14.460   3.161  12.523 -0.1468 -0.0364 -0.1234
26167W        W41784   0.702   5.640   2.209  0.0704 -0.1071  0.2453
26168W        W41785  17.494   4.243   2.325  0.1363  0.0207  0.0146
26169W        W41786   8.167  16.187  14.863  0.2629 -0.1458  0.1722
26170W        W41787   8.207   3.386  16.604 -0.3309  0.0437 -0.0913
26171W        W41788  15.138  15.295   3.530 -0.1893  0.0331 -0.0182
26172W        W41789  10.749  15.635   2.840 -0.0872 -0.0448  0.0042
26173W        W41790   4.502   8.154  14.038  0.1983  0.4465  0.1423
26174W        W41791   1.989   1.377  12.927  0.1425 -0.1003 -0.3237
26175W        W41792   3.406   2.124   1.285 -0.0435 -0.1276 -0.0272
26176W        W41793  10.529  14.556  11.783 -0.1138 -0.0330 -0.0358
26177W        W41794   0.106  14.051  16.001  0.2272 -0.2818 -0.1450
26178W        W41795  13.757  15.893   0.917 -0.2209  0.1724 -0.2656
26179W        W41796  15.499  10.610   3.128  0.2952  0.2189 -0.0786
26180W        W41797  10.617   8.791  14.841 -0.0642  0.1188  0.1857
26181W        W41798  16.631  12.991   4.483  0.1190  0.0679  0.0868
26182W        W41799   9.753   0.270   4.473 -0.0348 -0.0656  0.1907
26183W        W41800  17.323  14.949   2.976  0.3727  0.0562 -0.1949
26184W        W41801   3.092   2.028  14.151 -0.2686  0.1975 -0.0326
26185W        W41802   6.537  15.842   0.504 -0.3057  0.0506 -0.3580
26186W        W41803   9.088   0.687   5.279  0.2521 -0.1154 -0.2738
26187W        W41804  11.200  14.465  14.063 -0.0040 -0.0738 -0.3995
26188W        W41805  14.957   2.090   2.329 -0.1473 -0.1062 -0.1674
26189W        W41806  15.919   1.668   4.165  0.2162 -0.1745 -0.0209
26190W        W41807   1.533  11.622  14.609 -0.2740 -0.0040 -0.2027
26191W        W41808  16.779  17.014  12.688 -0.2512 -0.0665 -0.2391
26192W        W41809   2.624   0.824  14.005 -0.2566  0.1846 -0.2804
26193W        W41810   2.512  14.407   3.127  0.1248 -0.3137 -0.1331
26194W        W41811   0.685  16.099   2.149  0.0290  0.0103  0.2995
26195W        W41812   6.910  16.796  15.527 -0.0682 -0.2260  0.0519
26196W        W41813  16.272  15.075   3.767  0.3035  0.0133  0.1108
26197W        W41814  10.530   7.060  15.178 -0.2909  0.2631  0.2706
26198W        W41815  13.566   8.257  15.658  0.0376  0.0394 -0.0060
26199W        W41816   5.931   8.121   3.762  0.2631  0.3493  0.1740
26200W        W41817   8.024  16.054  14.242 -0.1485  0.1605 -0.0440
26201W        W41818   5.410   0.123   2.460 -0.0604  0.1352  0.2181
26202W        W41819  12.806  12.217   5.543 -0.3511 -0.1422  0.0331
26203W        W41820  14.021   7.279   4.959  0.1993  0.2837 -0.1770
26204W        W41821   8.662   9.026   5.078 -0.1002  0.1702 -0.0977
26205W        W41822  17.269  17.558   2.605 -0.3032 -0.2450  0.1593
26206W        W41823  11.275  16.813   0.992 -0.4210 -0.0913  0.0560
26207W        W41824  17.394   1.489  12.773  0.1057  0.0614 -0.0933
26208W        W41825  14.936   3.209  15.677  0.2271 -0.1200 -0.0468
26209W        W41826  15.501   3.535  17.185 -0.4825  0.0054 -0.1871
26210W        W41827  12.656   3.850   5.175 -0.2658 -0.0398 -0.0531
26211W        W41828   2.349   9.226   2.848 -0.3590 -0.0167 -0.2693
26212W        W41829   6.432   4.013   0.483 -0.0446 -0.2938  0.1035
26213W        W41830   1.776   7.879   3.441  0.2068  0.0930  0.2956
26214W        W41831   0.585   1.422   1.516 -0.0950 -0.1963  0.3236
26215W        W41832   7.411   0.694  17.023  0.0364 -0.1488 -0.0542
26216W        W41833  11.771   0.083   3.110 -0.0784  0.1216  0.1682
26217W        W41834  10.511   3.606   6.354  0.2414 -0.1674  0.1464
26218W        W41835   1.887  13.329   1.152 -0.1256  0.1935 -0.0738
26219W        W41836  15.214   3.598   3.739 -0.0236 -0.1300 -0.0330
26220W        W41837  17.214  16.107  12.791 -0.1411  0.0941 -0.2972
26221W        W41838   2.896  13.449  14.912 -0.1204  0.0823  0.3556
26222W        W41839   3.383   0.978  16.687 -0.1418  0.2984  0.0153
26223W        W41840  15.847  11.266  16.937 -0.0064 -0.1864 -0.1376
26224W        W41841   3.225   9.911   7.069  0.0604 -0.1355 -0.0881
26225W        W41842  11.029   4.419   5.425  0.1074 -0.0608 -0.0991
26226W        W41843  16.827  16.856   0.833 -0.0527  0.0666  0.0271
26227W        W41844   9.297  11.032   6.360 -0.0689  0.0953 -0.1920
26228W        W41845  10.566  10.150   0.289  0.3224  0.1422  0.0329
26229W        W41846  14.317   9.538  16.579 -0.0018 -0.2793 -0.2360
26230W        W41847   2.757   1.735  13.565  0.0413  0.4769 -0.0234
26231W        W41848   4.048   6.984  16.266 -0.1062  0.3555  0.4036
26232W        W41849  12.683  16.802   3.211 -0.3111 -0.0314 -0.1106
26233W        W41850   7.286   8.327  13.052 -0.3900 -0.1246  0.1694
26234W        W41851  13.776  13.461   2.078  0.0215  0.1827  0.0653
26235W        W41852  14.679   1.022  11.654  0.1828 -0.2188  0.0463
26236W        W41853   1.279   9.234   1.202 -0.0361  0.0507  0.0211
26237W        W41854   7.871  13.766  15.968 -0.2198 -0.0392 -0.1975
26238W        W41855   6.770   7.866   5.950  0.1386 -0.0508  0.0880
26239W        W41856   3.114  13.111   1.576 -0.0523 -0.3398 -0.0846
26240W        W41857  10.566   2.574   4.927 -0.0830 -0.1365 -0.0421
26241W        W41858  16.769   3.950  17.202  0.1581 -0.1170 -0.2770
26242W        W41859   3.495   9.252   2.465  0.2749 -0.1283  0.1944
26243W        W41860  11.207   6.391   2.960  0.2390 -0.0790  0.0580
26244W        W41861   1.851   9.169   3.237  0.0204  0.0715 -0.2852
26245W        W41862  14.931   7.211   5.516  0.2528  0.0805 -0.4832
26246W        W41863  16.402   6.737   4.204  0.2815 -0.0397 -0.0622
26247W        W41864   5.072  10.787   4.617 -0.0546 -0.0606 -0.0359
26248W        W41865  15.057   3.680  13.720 -0.1304  0.0198  0.2104
26249W        W41866   4.238  13.352   2.849  0.1069  0.2178  0.1119
26250W        W41867   3.150  16.256   0.408 -0.6169  0.1920 -0.3456
26251W        W41868  12.710  11.183   0.559  0.1729 -0.1238  0.2904
26252W        W41869   3.762  16.013   4.710 -0.2790 -0.3316  0.2476
26253W        W41870   7.865   8.717   1.854 -0.1635 -0.1510  0.3170
26254W        W41871   6.514   1.515  16.846 -0.0924 -0.2108 -0.0653
26255W        W41872   7.987   6.556   2.215 -0.1762  0.1590 -0.3624
26256W        W41873   9.962   8.957  14.950 -0.0980 -0.0312  0.1243
26257W        W41874  15.073   9.055  16.536  0.4470  0.1257  0.0622
26258W        W41875   3.424   2.873  17.051 -0.0371  0.0942 -0.1694
26259W        W41876   6.176   9.269  14.923 -0.0733  0.2695  0.1942
26260W        W41877   8.396   8.574   5.042  0.0521  0.1269  0.4345
26261W        W41878   4.570   8.463  12.247 -0.3163 -0.1628 -0.0852
26262W        W41879   6.847   5.520  12.054  0.1616  0.0958 -0.0348
26263W        W41880   8.214  13.847  14.880 -0.1778 -0.2011  0.2735
26264W        W41881  10.181   9.359   1.855  0.2825 -0.0117  0.0635
26265W        W41882  12.487   3.252   4.322 -0.1487  0.0188  0.3313
26266W        W41883   8.541  12.433  13.245 -0.1493  0.0244 -0.3911
26267W        W41884   7.204  11.586   0.220 -0.0943 -0.1283 -0.0309
26268W        W41885   9.573  14.262  12.654 -0.1689  0.3113 -0.1863
26269W        W41886  12.809  14.071   1.639  0.0460 -0.0080  0.2043
26270W        W41887   0.547   6.308   1.376 -0.0476  0.1648  0.1343
26271W        W41888   6.655  14.369   0.126 -0.1146  0.0959 -0.0625
26272W        W41889   0.048   2.412  13.070 -0.1487  0.0026  0.0335
26273W        W41890   2.319  13.201   3.951 -0.0412  0.1730  0.0658
26274W        W41891   6.832   3.737  11.121 -0.0294 -0.0978 -0.1774
26275W        W41892  17.192  11.246  12.657  0.2605 -0.1301  0.0486
26276W        W41893   4.911  15.069  12.469 -0.2872  0.0929 -0.2515
26277W        W41894   7.303   3.088  12.824 -0.0824 -0.3097 -0.3700
26278W        W41895  15.422   9.344   1.640 -0.2118  0.1992 -0.1378
26279W        W41896   9.424   4.434   5.465 -0.2894 -0.0362  0.2009
26280W        W41897   1.453   4.345  14.613 -0.1562 -0.5484  0.0716
26281W        W41898   1.855  15.196   2.013  0.1793 -0.0002  0.0633
26282W        W41899  16.092  15.509   4.651 -0.2024 -0.0991 -0.1415
26283W        W41900  11.450  13.138   3.285  0.2470 -0.4057 -0.0989
26284W        W41901  12.439   2.973  13.724 -0.1937  0.1145  0.2345
26285W        W41902   7.145  14.729  14.262 -0.2110  0.0237 -0.0149
26286W        W41903   2.325   7.106   6.654  0.2326  0.0644  0.0318
26287W        W41904   8.261   6.958   1.515 -0.2699 -0.0587 -0.0284
26288W        W41905  13.425  15.719  15.318 -0.0391  0.0906 -0.1847
26289W        W41906   3.126   7.983   4.605  0.1237 -0.0826  0.1777
26290W        W41907   4.793  16.940  13.037  0.2565 -0.0804  0.2084
26291W        W41908   6.917   2.452  11.885  0.1284  0.1284  0.0583
26292W        W41909  10.838   3.964   3.953  0.0841 -0.0096  0.4116
26293W        W41910   3.618  16.551   0.463 -0.0255  0.0352 -0.1343
26294W        W41911  11.762   2.698  13.286 -0.1418 -0.0304  0.0917
26295W        W41912  14.463  14.507  16.654 -0.0808  0.0356  0.2242
26296W        W41913  13.144   2.540  13.252 -0.1255  0.1978  0.2139
26297W        W41914  13.894  15.891  11.464 -0.0720  0.0607 -0.0142
26298W        W41915  13.337  15.340  11.782 -0.0375 -0.0537 -0.2527
26299W        W41916  17.139   8.456  12.162 -0.0157  0.2378  0.2530
26300W        W41917  15.789  17.216   2.813  0.1380 -0.0115 -0.1419
26301W        W41918   0.686  13.184  17.209 -0.0122 -0.0734  0.1156
26302W        W41919   6.498  11.452   2.181 -0.0407  0.2336 -0.0465
26303W        W41920   6.531   6.326   1.651 -0.0361  0.1064 -0.2013
26304W        W41921  12.933   6.090   4.244  0.2370  0.1102  0.2553
26305W        W41922  14.612  12.180  11.687 -0.2157  0.2423 -0.0419
26306W        W41923  17.312   3.972   3.140 -0.1062  0.0536 -0.3017
26307W        W41924   2.954   8.615   3.011  0.1945 -0.0498  0.2489
26308W        W41925   8.424  14.063  17.255  0.1711  0.0235  0.0331
26309W        W41926   4.912   8.629  14.870  0.0970 -0.1619 -0.1116
26310W        W41927   4.419   2.672  14.410 -0.0846 -0.0945  0.1101
26311W        W41928  15.164  11.549  12.925  0.0581 -0.0862  0.1658
26312W        W41929   7.592   1.348   5.084 -0.1962 -0.1304 -0.1610
26313W        W41930   5.847   8.362  13.578 -0.1605 -0.2477 -0.0290
26314W        W41931   6.349  13.570  14.216 -0.1767 -0.0220  0.0122
26315W        W41932  16.131  17.359   5.934 -0.1975 -0.0645 -0.0918
26316W        W41933  11.793  11.116   4.725  0.0969  0.0635 -0.2075
26317W        W41934   8.997  17.364   3.935  0.0142 -0.1291  0.1666
26318W        W41935   0.525   0.304   5.786  0.0626 -0.0341  0.4356
26319W        W41936  16.921   1.812   5.584  0.3308 -0.0570  0.0074
26320W        W41937  15.487  14.407  14.440  0.0829  0.1965  0.0267
26321W        W41938   1.831  15.003  12.460 -0.2934  0.3245  0.3050
26322W        W41939   5.650  15.045   4.182 -0.2419  0.2013  0.2713
26323W        W41940   0.731  13.418  13.799 -0.3227  0.3018 -0.1712
26324W        W41941   9.435   9.334  11.954 -0.0373  0.1771 -0.2722
26325W        W41942   3.266   9.958  11.168 -0.1520  0.0408  0.0566
26326W        W41943  15.374   7.897  13.578  0.2497  0.1950 -0.1416
26327W        W41944   7.678  15.653  15.163 -0.1541  0.0823  0.1263
26328W        W41945   2.584  10.475  14.947 -0.0669  0.1191 -0.0444
26329W        W41946   6.600  10.950   3.933 -0.1640  0.0976 -0.1111
26330W        W41947   0.526  17.056  12.525  0.1990  0.2440  0.1697
26331W        W41948  15.236  16.620  13.331  0.1702  0.0453 -0.2094
26332W        W41949   4.847   9.698  12.889  0.0925  0.0239 -0.1088
26333W        W41950   8.894   3.228   1.056 -0.0043  0.1948 -0.1619
26334W        W41951  13.484   2.822  13.422  0.1141 -0.1615  0.0152
26335W        W41952  15.843   5.215  15.256 -0.0175  0.1429  0.1813
26336W        W41953  14.260   4.480  15.921  0.1390 -0.1435  0.3489
26337W        W41954   8.220   0.217   3.897  0.1773 -0.2099 -0.1749
26338W        W41955   8.909  16.075  11.768 -0.2030  0.2850 -0.5616
26339W        W41956   8.360   7.354   2.275 -0.0371 -0.0747  0.0286
26340W        W41957   2.118  16.781  13.871  0.1308  0.1629 -0.1376
26341W        W41958   1.866  10.095  16.053  0.2073  0.0989 -0.1639
26342W        W41959   0.998  11.123  13.619  0.2143  0.0346 -0.0263
26343W        W41960   6.241  14.167   0.618 -0.0082 -0.0899  0.0303
26344W        W41961  12.332   4.488  12.855 -0.4116  0.1359  0.2239
26345W        W41962   7.927  11.950   5.614  0.1279 -0.0253 -0.0791
26346W        W41963  11.617  14.619  16.741 -0.0669 -0.0306  0.0791
26347W        W41964  14.501   7.743   0.043 -0.0012  0.4422 -0.1471
26348W        W41965  11.018   8.245  12.139 -0.0048  0.0431  0.3711
26349W        W41966  11.609   8.260   5.628 -0.0083  0.0430  0.1497
26350W        W41967  17.557   8.191   1.216  0.2028  0.0970  0.2445
26351W        W41968   1.930  13.171  15.000  0.0242  0.4646 -0.2598
26352W        W41969  12.438   4.642  12.064  0.1557  0.3612  0.0682
26353W        W41970   7.853   0.407  12.967 -0.1718  0.3905 -0.0831
26354W        W41971  13.908  12.839   3.173 -0.2330  0.0101 -0.4034
26355W        W41972   8.360  15.499   4.041  0.0242  0.0441 -0.0807
26356W        W41973  15.648  14.430   0.248  0.4129  0.0870 -0.1012
26357W        W41974  10.601   7.768   0.838  0.1865 -0.3719 -0.0450
26358W        W41975  11.281   6.418   1.788  0.0050 -0.3884 -0.0551
26359W        W41976   2.419  14.232  12.549  0.1355 -0.2249 -0.1817
26360W        W41977  15.412   9.065   1.178 -0.0418 -0.2430  0.0231
26361W        W41978   4.907  13.023   2.249  0.2159 -0.0541  0.0823
26362W        W41979  14.095   4.327   5.720 -0.1209  0.0842  0.4172
26363W        W41980  10.374  13.480   1.963  0.1188  0.0535  0.1599
26364W        W41981  10.079  12.014  11.971 -0.2664 -0.0872 -0.0975
26365W        W41982   4.883   0.206   0.672  0.1495 -0.0600  0.1224
26366W        W41983   6.894  16.212   4.395 -0.0372  0.2298 -0.0231
26367W        W41984   1.271  11.145  15.811  0.0288 -0.0021  0.0545
26368W        W41985   8.586  10.246  13.572  0.3507 -0.0570 -0.0252
26369W        W41986   0.598   1.899   6.797 -0.1452 -0.3123  0.0076
26370W        W41987  17.560  12.533   2.465  0.1086 -0.0676  0.2995
26371W        W41988   1.849   5.592   2.188 -0.0129  0.3305  0.3314
26372W        W41989   8.342   4.424  12.992  0.1031 -0.0476 -0.0781
26373W        W41990   0.560   4.935  13.655 -0.4455  0.0316 -0.3026
26374W        W41991   0.579  14.315   5.394  0.0157 -0.2080 -0.1826
26375W        W41992  11.715   9.405   6.680  0.1733 -0.0811 -0.0244
26376W        W41993  13.334   5.271   1.478 -0.1050 -0.1686  0.0680
26377W        W41994   6.466   7.539   2.419 -0.2905  0.1867 -0.0082
26378W        W41995  14.311  13.190  16.115  0.0993  0.1058 -0.0597
26379W        W41996   5.337   9.271  15.964  0.0821 -0.1121  0.0757
26380W        W41997   2.638   5.861   4.417  0.1804 -0.2141  0.0878
26381W        W41998   4.017  13.422  13.853  0.0295  0.1350 -0.0413
26382W        W41999   6.476   1.410  13.126 -0.0318  0.1035 -0.2454
26383W        W42000  12.541  15.220  15.369  0.0668 -0.0419 -0.0078
26384W        W42001   3.634   1.732  12.541 -0.1008 -0.0015 -0.1710
26385W        W42002  10.993  12.184  16.430  0.1383 -0.0629  0.0214
26386W        W42003  14.335  12.502  12.697  0.0525 -0.3032 -0.1011
26387W        W42004  10.460   7.477   4.481 -0.1307  0.1432 -0.0402
26388W        W42005   1.923   4.218   3.427  0.0212  0.3223 -0.3548
26389W        W42006   9.820   9.085   2.007  0.2897 -0.0605  0.2693
26390W        W42007  14.874  16.332   4.826 -0.4080 -0.1169 -0.2693
26391W        W42008   6.499  15.414   1.046 -0.1004  0.0482 -0.1191
26392W        W42009   8.328   2.236   5.072  0.0167  0.1738 -0.0093
26393W        W42010   1.315  10.277  13.213 -0.1397 -0.0633  0.1138
26394W        W42011  16.817   2.931  12.640  0.0096  0.2983 -0.0748
26395W        W42012   8.091   2.111  12.137  0.2631  0.1835  0.2609
26396W        W42013  13.823   2.740  11.951  0.1373 -0.2445 -0.0630
26397W        W42014   3.633   7.232  13.002  0.0075 -0.1219 -0.0394
26398W        W42015  16.661   6.994  12.548 -0.3319 -0.1040  0.2156
26399W        W42016  15.036  16.749  17.068  0.2151 -0.0307  0.0115
26400W        W42017   2.185   5.105   0.939 -0.0983 -0.1881 -0.4030
26401W        W42018   1.827  11.829   3.040 -0.2068 -0.2137  0.0670
26402W        W42019   1.715  14.227  12.267 -0.0034  0.1504  0.3009
26403W        W42020  13.269  14.472   1.530  0.1742  0.0180  0.0758
26404W        W42021   4.597   4.180  13.231 -0.0469 -0.0323  0.0010
26405W        W42022   6.196  10.004  11.787 -0.1861  0.2042  0.1789
26406W        W42023   6.096  14.559  16.023  0.0432  0.1281  0.0467
26407W        W42024  10.705  16.991  11.079 -0.2830 -0.0151 -0.1904
26408W        W42025   1.608  14.421   0.636 -0.2339 -0.1416  0.1986
26409W        W42026  17.336  10.208  11.915  0.0883 -0.1076 -0.2569
26410W        W42027   2.962   1.123  13.799  0.0945 -0.0697 -0.0340
26411W        W42028   2.338  17.349   5.470  0.0515 -0.2777  0.0280
26412W        W42029   4.723   3.394  15.999  0.1874 -0.0886  0.2836
26413W        W42030   5.859  16.639  13.616  0.0292  0.1718  0.0318
26414W        W42031   8.031  14.249  13.942 -0.1753 -0.3669 -0.3317
26415W        W42032   8.247   4.726   4.690 -0.0419 -0.0758 -0.0693
26416W        W42033   3.522  12.415   0.918 -0.0537 -0.3580 -0.2176
26417W        W42034   5.632  12.428   1.854 -0.0181 -0.1202  0.1373
26418W        W42035  12.400   4.852   3.260 -0.1181  0.0409  0.1840
26419W        W42036   1.202  11.657  15.769 -0.0639  0.2638  0.0462
26420W        W42037  11.945   1.819  15.370 -0.2053  0.1219  0.0742
26421W        W42038  17.129  12.047   1.896 -0.1668  0.0991  0.1476
26422W        W42039   9.650   9.069  15.889 -0.0303  0.2543  0.3335
26423W        W42040  15.959  12.309   5.733 -0.0818 -0.1393  0.0967
26424W        W42041  12.987   8.734   3.995  0.0273 -0.1475  0.2694
26425W        W42042  10.859   1.823  13.214  0.1497 -0.2710 -0.1595
26426W        W42043  16.234   9.673  13.025 -0.0401  0.1117 -0.2895
26427W        W42044   1.305   1.744  15.672 -0.0508  0.2115 -0.1629
26428W        W42045   4.896   6.095   3.172 -0.1177 -0.1538  0.1752
26429W        W42046   7.635   6.020   5.344 -0.0044 -0.0537 -0.1371
26430W        W42047   9.655  10.595   3.734 -0.1380 -0.0249 -0.3686
26431W        W42048  11.554  12.626   1.777  0.0337  0.2402 -0.1969
26432W        W42049   5.831   8.495  15.136 -0.1440  0.1507 -0.1804
26433W        W42050  12.032   1.077   1.188 -0.0758  0.2518 -0.2105
26434W        W42051   9.389   5.011   1.991  0.2435  0.1372 -0.2962
26435W        W42052  15.552  13.537   4.038  0.1943 -0.1972  0.3249
26436W        W42053   9.768   4.706  15.459 -0.1058  0.1763 -0.4681
26437W        W42054  12.992  16.734  13.339 -0.1628  0.2033 -0.0879
26438W        W42055  16.129  14.318   4.256 -0.0650 -0.2139 -0.0690
26439W        W42056   0.962  15.659   4.087 -0.4664  0.2697 -0.1289
26440W        W42057   4.767   2.954   2.190 -0.1007  0.0466  0.2954
26441W        W42058  17.374   4.205   4.143  0.0596  0.2537  0.3499
26442W        W42059  13.155  12.378  15.825  0.2361  0.2341  0.1255
26443W        W42060   8.662   3.462  16.996  0.1887 -0.0549  0.1283
26444W        W42061  13.367  14.958   0.993  0.1690 -0.1204  0.1727
26445W        W42062   8.220  14.232   3.353 -0.0419  0.0707  0.0102
26446W        W42063   4.119   6.397   5.758 -0.0240  0.3861  0.0809
26447W        W42064   6.637   3.071  14.696  0.0709  0.0407  0.3822
26448W        W42065  11.523   4.524   5.099  0.1031 -0.2748 -0.1559
26449W        W42066  14.508   7.961   5.893  0.0817  0.0112  0.1107
26450W        W42067   1.425   0.331   0.392  0.1393 -0.2955  0.2759
26451W        W42068   5.428   3.070   0.483  0.1361  0.2445  0.4240
26452W        W42069   4.420   2.542  15.474 -0.4539  0.1621  0.0253
26453W        W42070   7.241   2.498  17.196  0.1377  0.2300 -0.3003
26454W        W42071  14.171   6.033   3.884  0.0406 -0.0186  0.0504
26455W        W42072   6.786   5.398   3.068 -0.1714  0.0285  0.0619
26456W        W42073   1.966   1.715  14.526 -0.1413  0.0276 -0.0387
26457W        W42074  15.647  17.362   1.070  0.0183 -0.0014  0.0514
26458W        W42075   5.719   6.109  13.154 -0.0448  0.4860  0.0199
26459W        W42076  11.622   0.742   2.454 -0.0285 -0.0459 -0.2017
26460W        W42077  15.115   0.959   0.377 -0.1026 -0.5058  0.1499
26461W        W42078   2.206  11.319  14.888  0.1886 -0.1107 -0.1268
26462W        W42079   4.552   7.641  12.671  0.2034  0.0168 -0.1889
26463W        W42080   8.860  12.152   0.573 -0.0121  0.0916 -0.1887
26464W        W42081   3.398   8.402   2.550 -0.2763  0.2213  0.0805
26465W        W42082  13.153  11.109   3.044  0.0385  0.2931 -0.0899
26466W        W42083   3.206   5.211  14.957  0.0714  0.2756  0.0960
26467W        W42084  14.671   1.173  13.482 -0.0130  0.1400 -0.0648
26468W        W42085   1.579   4.232  13.876  0.1840  0.0303 -0.1238
26469W        W42086  10.729  12.285   1.314 -0.0602 -0.0029 -0.2033
26470W        W42087   3.941   5.913   5.589  0.0464 -0.1972 -0.1562
26471W        W42088   6.220   7.231   6.539  0.1113  0.0518  0.1686
26472W        W42089   2.095  17.222   0.364  0.0041  0.1484  0.0649
26473W        W42090   7.650  13.406  11.458  0.2528 -0.0930  0.2236
26474W        W42091  17.134   8.805   3.498 -0.1015  0.1986 -0.1825
26475W        W42092   4.380  16.758  13.231 -0.0141 -0.0534  0.2683
26476W        W42093   6.629  16.035  13.335 -0.1248 -0.1281 -0.0958
26477W        W42094   0.359   3.907  12.801  0.0135 -0.1377 -0.4411
26478W        W42095  12.693  16.038  13.277  0.0763 -0.2804  0.1143
26479W        W42096   8.893   0.713   4.389  0.0558 -0.0058 -0.0100
26480W        W42097  16.688  12.945   1.221  0.0887 -0.1508  0.1050
26481W        W42098  14.021   1.808  14.984 -0.0458  0.0682  0.2024
26482W        W42099  14.320   5.890   1.879 -0.0821 -0.0140  0.0951
26483W        W42100   3.080   1.944   4.330  0.0597  0.0425  0.1364
26484W        W42101   0.163  11.340   3.403 -0.0733 -0.0206  0.1019
26485W        W42102   2.913   7.343   5.421 -0.1795 -0.1927  0.2835
26486W        W42103   2.043   6.875  13.823  0.1852 -0.2860 -0.1233
26487W        W42104   7.776   8.306   3.844 -0.0160 -0.0537  0.1092
26488W        W42105   8.563  14.972  15.615  0.0038 -0.1193 -0.0409
26489W        W42106   4.036  11.692   4.835 -0.0842 -0.1984 -0.1792
26490W        W42107  12.590   2.811   2.195 -0.2698  0.0370 -0.0377
26491W        W42108  16.988  15.613   1.772 -0.1095  0.3084 -0.0591
26492W        W42109   5.544  11.618   2.766  0.0550 -0.3894 -0.2153
26493W        W42110   6.047   5.953  12.128 -0.0593 -0.2509  0.3036
26494W        W42111  16.113   0.916   4.891  0.0981 -0.0563 -0.1054
26495W        W42112   7.023  10.704  14.186  0.0218  0.0629  0.1940
26496W        W42113  14.959   1.694   4.052 -0.1385 -0.0265 -0.2104
26497W        W42114  13.865  14.424   5.042 -0.2360 -0.1957 -0.1853
26498W        W42115  14.907   9.402  13.284 -0.0254 -0.1462  0.2032
26499W        W42116   8.520   5.203  14.285  0.1418 -0.1878  0.2420
26500W        W42117  13.771   8.225  16.677  0.1437 -0.2603  0.0709
26501W        W42118   6.401   7.693  15.097 -0.0656 -0.2507 -0.0171
26502W        W42119  11.753  15.752  13.910  0.0333  0.1183 -0.3394
26503W        W42120   9.643   7.384   0.223 -0.0605  0.0721  0.1784
26504W        W42121  14.746   3.627  12.346  0.3236 -0.2886  0.0216
26505W        W42122  14.984   0.961   4.710  0.1657  0.4142 -0.2321
26506W        W42123  14.550   8.738  14.237 -0.2462  0.1152 -0.3737
26507W        W42124  10.816  13.253  12.910  0.1520 -0.3793 -0.2667
26508W        W42125  13.693   5.351  15.743 -0.2122 -0.1383 -0.0025
26509W        W42126   6.263   5.032  13.809  0.0971 -0.0650  0.0144
26510W        W42127  15.516   4.240   0.117  0.1821 -0.2662 -0.1747
26511W        W42128  10.501  13.285  12.473  0.2888  0.0597  0.0515
26512W        W42129  14.229  17.511  15.428  0.2782 -0.1869 -0.1998
26513W        W42130   7.469   1.766  13.241  0.0191  0.2804 -0.1771
26514W        W42131   3.916   1.166  17.145  0.0426 -0.2409 -0.0349
26515W        W42132  14.065   5.153  13.703 -0.0602  0.0477  0.2248
26516W        W42133  10.436  12.057  14.576  0.0559  0.0530  0.1814
26517W        W42134   9.666   9.859   5.377 -0.1691 -0.4732 -0.2041
26518W        W42135   6.745   8.910  17.191 -0.1034  0.0580  0.0684
26519W        W42136  17.112  12.939   0.172  0.1878 -0.0101 -0.0931
26520W        W42137   8.148  17.075  13.845  0.1494  0.1782  0.0516
26521W        W42138  12.247   1.852   0.020  0.0734  0.0153 -0.0338
26522W        W42139   2.413   7.627   4.903  0.1937 -0.1164 -0.0919
26523W        W42140  16.748  13.350   3.035 -0.2784 -0.0948 -0.1848
26524W        W42141   7.537   2.276  15.459 -0.1941  0.0805  0.0994
26525W        W42142  11.203  11.676  15.541  0.1387  0.3732  0.3530
26526W        W42143  14.578  16.489   4.249  0.1659  0.0391  0.2087
26527W        W42144  15.184   9.155   0.328  0.1425  0.0685  0.0678
26528W        W42145  14.053  11.233  15.857 -0.3618 -0.0192 -0.3197
26529W        W42146  14.612  10.916   4.441  0.2601 -0.0165 -0.4284
26530W        W42147  16.172  17.116   2.521  0.1799 -0.0978  0.1359
26531W        W42148  16.563   9.037  12.725  0.2095  0.0541  0.2148
26532W        W42149   4.363  13.026  16.039  0.1606 -0.2219  0.1499
26533W        W42150  11.757  15.182  16.915  0.0862  0.1411  0.0190
26534W        W42151  16.469   6.338   0.490 -0.1253  0.0165 -0.0069
26535W        W42152  13.841   9.823   3.196 -0.0651  0.1877  0.0525
26536W        W42153   2.791   5.678   4.894  0.0533 -0.0264 -0.2378
26537W        W42154  12.670   8.765  15.260  0.0037  0.0931  0.0012
26538W        W42155   0.633   0.863  12.762  0.2235  0.0901  0.0561
26539W        W42156   5.107   3.647  15.812 -0.3053  0.0676  0.1558
26540W        W42157   0.946   4.786   4.263 -0.0796 -0.0071  0.0356
26541W        W42158   4.166   3.889  14.673  0.0256  0.3536  0.0639
26542W        W42159   4.813  12.822   5.417 -0.1664 -0.2675  0.1317
26543W        W42160  16.810   3.398  14.961  0.1211  0.1956 -0.2266
26544W        W42161  17.537  14.640   3.908 -0.1759  0.0560 -0.0312
26545W        W42162   6.899   8.953   4.578  0.2546  0.0314  0.1965
26546W        W42163   3.457  15.656   4.573 -0.3891 -0.0692 -0.1691
26547W        W42164   7.732   2.914   3.067  0.2608 -0.0639  0.2649
26548W        W42165  11.486   8.058  12.316 -0.2874  0.1851 -0.0819
26549W        W42166  14.658  16.352   3.239 -0.0415  0.0223 -0.0909
26550W        W42167   3.147  11.488  17.147 -0.3107 -0.0062  0.2349
26551W        W42168  13.427  14.431  10.986  0.0696 -0.3142 -0.3023
26552W        W42169  17.543   9.070  16.569 -0.0287 -0.3709 -0.1305
26553W        W42170   7.475   1.649  14.647  0.3281  0.0118 -0.2049
26554W        W42171  10.089   6.226  17.065 -0.1065 -0.1972  0.0927
26555W        W42172   6.979  14.265  14.592  0.3596 -0.1696 -0.0881
26556W        W42173   7.079   4.425  17.015 -0.3825  0.0646  0.1207
26557W        W42174   4.971   7.304   4.560 -0.2021  0.3565 -0.1894
26558W        W42175   3.294   6.007   5.919  0.0340  0.1207  0.0457
26559W        W42176   5.105   1.737  16.795  0.2959  0.0017 -0.2236
26560W        W42177  15.113  16.909  12.440  0.1736 -0.0834 -0.0617
26561W        W42178   2.803  13.567   1.498  0.1287  0.1366 -0.1015
26562W        W42179  14.763   9.741   2.167  0.2109 -0.0529 -0.2244
26563W        W42180   0.543  15.145  11.645 -0.1172  0.1293 -0.3038
26564W        W42181  13.899   4.520  16.828  0.1429 -0.1099 -0.1405
26565W        W42182  13.814  15.373   3.601  0.2220 -0.1556 -0.2198
26566W        W42183  10.236   2.658  13.594  0.2251  0.0049 -0.2287
26567W        W42184  12.248  16.181  13.193  0.5046  0.0486  0.1023
26568W        W42185  11.418   7.405  15.476 -0.2101  0.6136 -0.0069
26569W        W42186  17.405   2.850   3.783  0.0401  0.0921  0.2859
26570W        W42187   9.717  12.490  13.257  0.2467  0.2652  0.1578
26571W        W42188   6.560   3.455  16.145  0.0612 -0.1975  0.4725
26572W        W42189  12.260  17.407  12.269  0.3788 -0.0052  0.0175
26573W        W42190   0.745  11.776  11.851 -0.2427  0.0030 -0.0232
26574W        W42191  11.501  14.768  16.087  0.0135  0.2969  0.0111
26575W        W42192   1.531   1.249   4.236 -0.3399  0.1183 -0.1038
26576W        W42193   0.697   6.135   5.761  0.1397 -0.3345  0.0034
26577W        W42194   8.538   4.243   3.701  0.0351  0.0943  0.1187
26578W        W42195  12.504   5.457   5.826 -0.2143  0.1308  0.0247
26579W        W42196  13.027   2.069   4.998  0.1768  0.5991  0.0634
26580W        W42197   6.688  13.380  16.982  0.0047  0.4140  0.0735
26581W        W42198  13.099   1.273  15.724 -0.0039 -0.0749  0.0120
26582W        W42199   7.763  10.968  14.239 -0.2742  0.1298  0.2497
26583W        W42200   2.394  13.619  17.019  0.1469  0.2246 -0.0345
26584W        W42201   6.461  10.009  16.153  0.1721  0.1002  0.0097
26585W        W42202   4.260   8.785   5.566  0.2790  0.0062 -0.1597
26586W        W42203   0.220   3.117  15.869 -0.2063 -0.1540 -0.0550
26587W        W42204  14.212  15.719  14.819  0.1547  0.1183 -0.1157
26588W        W42205   6.180  15.995  16.266 -0.0966  0.0710  0.1350
26589W        W42206   6.580  12.800   0.319  0.0178 -0.3837 -0.1628
26590W        W42207  14.773   5.309   5.589  0.0993 -0.0914  0.0241
26591W        W42208  15.909   7.959   3.701  0.0189 -0.1831  0.0854
26592W        W42209   6.079   0.671  13.415 -0.2742  0.1504 -0.0407
26593W        W42210   4.210   3.622   5.247 -0.0178 -0.1046  0.0148
26594W        W42211  17.124  14.138   3.595  0.0290 -0.0405 -0.3909
26595W        W42212   6.824   8.618  12.458  0.1398  0.0069  0.2866
26596W        W42213   1.781   0.962  13.350 -0.0844  0.1576 -0.2354
26597W        W42214  10.414  15.324  10.691  0.1494 -0.1593 -0.0512
26598W        W42215   9.976  15.883   0.544  0.0985  0.1434  0.2131
26599W        W42216  13.237   1.100   3.611 -0.1396 -0.0547 -0.0772
26600W        W42217   5.274  11.140   4.282 -0.0087  0.0668  0.3869
26601W        W42218  10.967   4.855   6.526 -0.0741 -0.0773 -0.0832
26602W        W42219   3.382  16.787  12.506  0.0966 -0.0984 -0.1841
26603W        W42220   5.226  12.393  12.634  0.2097  0.1784  0.2207
26604W        W42221  14.192   0.236   5.622 -0.4953  0.0596 -0.2125
26605W        W42222   4.354   8.283  13.581 -0.1057 -0.1088  0.1375
26606W        W42223  16.534  12.047   0.464 -0.2369  0.2845  0.0781
26607W        W42224   5.814   3.463  12.894 -0.0856  0.2698  0.0855
26608W        W42225  15.412   2.449   5.678 -0.0761  0.0071 -0.0733
26609W        W42226  10.725  11.778   4.196 -0.3081  0.0023 -0.2588
26610W        W42227  16.719  17.038  17.262  0.0154  0.1352  0.0381
26611W        W42228   1.631   5.021   0.065 -0.0145 -0.0947 -0.1656
26612W        W42229   1.275   6.667  12.584  0.0269  0.2017 -0.1780
26613W        W42230   2.594   0.980  14.526 -0.0346 -0.1144  0.1815
26614W        W42231  17.555   9.982  16.084 -0.2580 -0.2599 -0.2619
26615W        W42232  17.550   0.481  14.510  0.3009  0.0739 -0.0920
26616W        W42233   7.003   4.131  15.965 -0.1067 -0.0527 -0.0652
26617W        W42234   3.671  12.963   1.753 -0.1958  0.1206 -0.0114
26618W        W42235   1.619  10.685   0.123 -0.0291 -0.2156 -0.1744
26619W        W42236   1.881   4.315  14.286 -0.1063  0.1818 -0.4555
26620W        W42237  15.962  10.701   0.996 -0.3928 -0.0634  0.2378
26621W        W42238   2.629   5.206  13.563 -0.2471 -0.0058 -0.2574
26622W        W42239   1.768   5.705   4.449  0.2607 -0.1520 -0.1525
26623W        W42240   4.165   6.615   4.302 -0.0272 -0.0546 -0.0559
26624W        W42241   8.188   4.386   2.787  0.0944 -0.1818  0.1193
26625W        W42242   2.188  14.944   1.749  0.0169 -0.1189 -0.3517
26626W        W42243   6.902   8.042   4.706 -0.0224  0.1409 -0.1788
26627W        W42244  12.261   0.009   4.229 -0.0101  0.2622  0.0176
26628W        W42245  13.350   9.781  14.507 -0.1406 -0.0811 -0.0449
26629W        W42246   5.493   7.115  14.088 -0.0673 -0.1713  0.1565
26630W        W42247  14.552  10.371  13.502  0.1498 -0.0379 -0.6555
26631W        W42248   3.842   1.618   4.938 -0.3009 -0.2508  0.0419
26632W        W42249   5.115  12.440   3.819  0.2766 -0.1548  0.2593
26633W        W42250   1.778   9.231  16.346 -0.2425  0.0224  0.3255
26634W        W42251  12.713  14.320  14.259  0.0355 -0.1275  0.1220
26635W        W42252   7.879  12.706  15.693 -0.0439 -0.1487 -0.2734
26636W        W42253  15.292  14.244  12.719 -0.1867  0.3024 -0.1519
26637W        W42254  11.515  10.624   1.553 -0.1802  0.2647  0.0180
26638W        W42255  17.018   9.235   5.225 -0.4523 -0.0924  0.1128
26639W        W42256  12.801  15.193   4.593 -0.0042  0.1999  0.1013
26640W        W42257   1.936   8.327   4.877 -0.1192 -0.0512  0.1032
26641W        W42258   9.413   0.076  14.927 -0.1752 -0.1014 -0.0581
26642W        W42259  14.860  16.869  11.585 -0.1072  0.0643  0.0012
26643W        W42260   7.948   3.307  16.055  0.0541  0.1121  0.3415
26644W        W42261   5.482   2.848   3.925  0.0406 -0.0406  0.4618
26645W        W42262  13.805   8.681  13.261 -0.0525 -0.1092 -0.2249
26646W        W42263  10.630   4.743  13.072  0.0493  0.1716  0.0680
26647W        W42264   6.643  13.769  16.710  0.0487  0.1375 -0.2273
26648W        W42265  14.642   1.853   5.334 -0.1061 -0.0743  0.1270
26649W        W42266  14.610   9.685  12.968 -0.0558 -0.0914 -0.3656
26650W        W42267   3.595  16.716   3.428 -0.0205  0.3897 -0.2409
26651W        W42268  15.736   4.872   1.458  0.1384 -0.2043 -0.0074
26652W        W42269  11.327  15.001  14.585 -0.2773  0.2517  0.2348
26653W        W42270  15.891   2.922   3.956  0.1683  0.0387  0.3374
26654W        W42271   9.602  12.817  16.308 -0.3095 -0.0876 -0.3059
26655W        W42272   2.586  16.814  15.442  0.0940  0.0364 -0.2041
26656W        W42273   8.619   7.187  11.872  0.1792 -0.0167 -0.1476
26657W        W42274   0.887  15.812   3.628 -0.2184 -0.0568  0.0223
26658W        W42275  12.689  15.879   5.686 -0.3151  0.2094 -0.1723
26659W        W42276  11.386  16.700   3.028 -0.1516  0.2258  0.1917
26660W        W42277  13.324   1.617   1.706 -0.0015  0.1057 -0.0051
26661W        W42278   0.314  14.097  11.693  0.1665  0.1213  0.2957
26662W        W42279   1.586   2.763   2.296  0.2046 -0.0707 -0.0190
26663W        W42280   5.900   3.277  14.072  0.1398 -0.1540 -0.0062
26664W        W42281   3.183   8.261   0.908 -0.0029  0.1498 -0.0211
26665W        W42282  10.568   4.965  11.872 -0.2892 -0.2205 -0.0020
26666W        W42283   4.956   5.918   2.197 -0.0193 -0.0515 -0.4601
26667W        W42284   7.315  11.609   5.204 -0.3882  0.2693  0.0515
26668W        W42285   9.922   0.910   3.054  0.0946 -0.0999  0.2846
26669W        W42286  16.042   5.360   0.886 -0.0381  0.0750  0.0455
26670W        W42287   1.115   4.940  14.580 -0.3729 -0.3429 -0.0573
26671W        W42288  16.246   6.139  13.013 -0.2457  0.0516  0.0401
26672W        W42289   4.236   3.695  12.523 -0.3352 -0.0672  0.4358
26673W        W42290   9.134   5.822   4.732 -0.4020  0.1967  0.0805
26674W        W42291   0.752   7.359  13.968 -0.0016 -0.1205  0.0218
26675W        W42292   7.449  16.516  16.120  0.1583  0.0481 -0.0931
26676W        W42293   6.595   1.997  15.570  0.0481 -0.1692 -0.0038
26677W        W42294  13.920  15.762  16.315  0.0304  0.0328  0.0869
26678W        W42295  11.444  13.131   5.688 -0.0858  0.0585 -0.1890
26679W        W42296  10.292   0.498   2.276  0.3174  0.2636  0.1496
26680W        W42297   2.297  15.575  16.546 -0.1006  0.1723  0.0576
26681W        W42298   9.051  14.072   3.110 -0.1351  0.0434  0.0908
26682W        W42299   7.608   4.510   4.038 -0.1998  0.0020 -0.0300
26683W        W42300  11.877   4.675  15.545 -0.3511  0.1698 -0.0060
26684W        W42301  14.855   0.097  12.043 -0.1432 -0.0001 -0.3055
26685W        W42302  11.701  13.857   0.301 -0.0658  0.0426 -0.0909
26686W        W42303  10.604   1.487   4.277  0.3317  0.1851 -0.1674
26687W        W42304  15.211   7.202   1.429  0.0491 -0.0339 -0.1268
26688W        W42305  14.382  12.300   3.868 -0.1994  0.0491  0.2358
26689W        W42306   8.126   6.765   0.436  0.3015 -0.3658  0.0226
26690W        W42307  12.206   9.137  15.820 -0.2318 -0.2655 -0.1843
26691W        W42308   0.779   0.966   2.271 -0.2435  0.0903 -0.0493
26692W        W42309  17.121   7.379   2.979  0.1168 -0.2352  0.2252
26693W        W42310   7.754  15.460   2.211  0.0013 -0.0670 -0.1873
26694W        W42311  11.159  13.054   4.576 -0.0307 -0.2298  0.1146
26695W        W42312  16.811  15.286  14.250 -0.0206  0.0266 -0.5089
26696W        W42313   1.905  16.154  11.980 -0.1376 -0.0940 -0.2317
26697W        W42314   1.803   6.875  16.447  0.1430 -0.0399  0.3774
26698W        W42315   0.965  11.453   0.691  0.0720 -0.1295 -0.0406
26699W        W42316   0.668  13.734  17.255 -0.1805 -0.0219 -0.0895
26700W        W42317   1.410   2.070  12.382 -0.1853 -0.1056 -0.0349
26701W        W42318  16.224  14.950  17.003  0.2370 -0.0335  0.4449
26702W        W42319  17.262   2.203   1.110 -0.1330 -0.0258 -0.2025
26703W        W42320  13.925   9.011   1.791  0.0306 -0.0906  0.3270
26704W        W42321   8.209   4.744  12.334  0.0388 -0.2446 -0.0275
26705W        W42322  17.488  14.103  16.930 -0.0935 -0.1206  0.0730
26706W        W42323  14.077  16.629  12.561 -0.3294 -0.2848 -0.1795
26707W        W42324   4.950  11.734   5.559 -0.4204 -0.2553 -0.2005
26708W        W42325   8.715  14.955  13.396 -0.0275  0.2250 -0.2530
26709W        W42326   2.426  15.218  14.420  0.0844 -0.2217  0.2035
26710W        W42327   8.714   2.384  15.936 -0.0422  0.0288  0.0347
26711W        W42328   7.171   6.944  13.844 -0.0740 -0.0230  0.1318
26712W        W42329   0.656   1.279   2.718 -0.0602 -0.1904 -0.1648
26713W        W42330   0.683  10.160   2.966  0.3383  0.1922 -0.0974
26714W        W42331  11.529  11.670  13.282 -0.1375 -0.3782  0.2545
26715W        W42332   9.250   1.566  13.087  0.1929 -0.3565 -0.1257
26716W        W42333  10.673  15.600  14.698 -0.2655  0.3336 -0.1430
26717W        W42334   4.263  13.519  13.062 -0.0613 -0.0544 -0.3111
26718W        W42335   2.553   9.933   4.739  0.0595 -0.1114  0.1268
26719W        W42336   2.497   6.467   6.074  0.1456 -0.1999  0.0937
26720W        W42337  13.055  11.140   1.463 -0.0270 -0.1803  0.2831
26721W        W42338  12.803   4.438   4.442 -0.0980 -0.3467  0.0262
26722W        W42339  15.786  14.532  11.649 -0.0960 -0.2091 -0.2423
26723W        W42340  14.443   5.414  13.993 -0.1387  0.2371 -0.0981
26724W        W42341  11.950   3.224   1.270  0.0549  0.1726 -0.1883
26725W        W42342   1.049  12.007  16.134  0.0461  0.0169 -0.2295
26726W        W42343   8.584   9.448  12.638  0.0859  0.1544 -0.0900
26727W        W42344  10.884   7.357   6.149  0.2718 -0.0635 -0.0772
26728W        W42345  10.223  12.407  12.201  0.2248 -0.1276 -0.1719
26729W        W42346   0.354   2.350  15.512 -0.1167 -0.1338 -0.0815
26730W        W42347   4.270  13.408   1.421  0.0587 -0.1778  0.0868
26731W        W42348   9.615   2.729  12.170  0.0723 -0.0975  0.0368
26732W        W42349  13.150  14.530  14.007  0.1584 -0.0462  0.1896
26733W        W42350  16.520   0.490  14.918 -0.1103  0.0163  0.1321
26734W        W42351  16.586   1.251   3.074  0.3353 -0.0994  0.2635
26735W        W42352  10.393   3.122  16.436  0.1670  0.1481  0.3255
26736W        W42353  13.750   2.089  15.501  0.1016 -0.1622  0.4982
26737W        W42354   1.668   0.237  13.037  0.2373  0.0114 -0.1032
26738W        W42355  11.241  14.712   2.205 -0.0743  0.0684  0.0825
26739W        W42356  12.465  16.891  13.410 -0.3798 -0.1310 -0.0176
26740W        W42357  12.581  16.232   4.646  0.0452 -0.1635 -0.1164
26741W        W42358   7.960  11.721   3.619  0.1741  0.1375  0.1715
26742W        W42359  10.049  12.490   1.974  0.0390  0.0970  0.0517
26743W        W42360   5.925   7.253  16.599 -0.1742  0.1821 -0.2028
26744W        W42361  14.878  10.291   1.417  0.0123 -0.3045 -0.2180
26745W        W42362   6.220   0.784   2.948 -0.1116  0.2857  0.0174
26746W        W42363   8.349  13.808  15.805  0.2784 -0.4949 -0.0051
26747W        W42364  16.334  16.775   1.235 -0.0651 -0.4521  0.1588
26748W        W42365  16.982   0.459   0.830  0.1085 -0.2698  0.0228
26749W        W42366   8.174   2.120  13.016 -0.4326 -0.1638 -0.3972
26750W        W42367   0.095  10.830  15.136  0.0654  0.1183  0.1091
26751W        W42368  16.473  10.734   1.286  0.1624  0.2118  0.0920
26752W        W42369  13.792  12.796  12.338  0.0085  0.2685  0.0512
26753W        W42370   7.686  10.563   5.879 -0.0862  0.1889  0.1532
26754W        W42371  10.305   5.938  13.431 -0.0571 -0.1620 -0.1273
26755W        W42372  10.826  15.811   4.554 -0.1660  0.3601  0.3071
26756W        W42373  10.638   8.863   2.484  0.1839 -0.2163 -0.1581
26757W        W42374   5.935  13.075  16.904 -0.1928 -0.1843 -0.1628
26758W        W42375  14.798   8.502   1.491 -0.0553  0.1311 -0.2244
26759W        W42376   3.526   2.145  14.457 -0.2731  0.5435 -0.1526
26760W        W42377   0.755   6.622   4.054 -0.5994 -0.0380  0.1669
26761W        W42378  12.214   4.549   5.430 -0.1753  0.1537  0.0682
26762W        W42379  15.914  10.009   6.320  0.0998  0.1084 -0.0507
26763W        W42380   4.369   3.021  15.237  0.0712 -0.1931 -0.2915
26764W        W42381   4.651  14.614   2.716  0.2394 -0.0754  0.1486
26765W        W42382  10.044   0.582  11.998  0.0171 -0.0272  0.0012
26766W        W42383   8.110   7.981  15.981 -0.1370 -0.4041  0.0096
26767W        W42384   2.626  10.696  14.475  0.1936 -0.3993 -0.0852
26768W        W42385  11.994   2.195  14.888  0.1948 -0.2772  0.1857
26769W        W42386   9.030   5.752  12.653  0.1222 -0.3111  0.1667
26770W        W42387  15.779  13.098   4.043  0.5149  0.0250  0.0297
26771W        W42388  12.587  11.394   5.099 -0.0258 -0.0284  0.2665
26772W        W42389   5.177  12.203  14.305  0.1373 -0.0933  0.1865
26773W        W42390   2.347  14.059  16.697  0.2065 -0.0203  0.2788
26774W        W42391  11.724  11.612  11.824  0.1142  0.2198  0.1074
26775W        W42392   4.260   7.852   1.907  0.1505 -0.0814  0.4964
26776W        W42393   3.777   5.843   1.374 -0.2394 -0.0870 -0.1456
26777W        W42394   5.327   6.603  13.982  0.0469  0.1464 -0.0165
26778W        W42395   4.844  16.865   0.305 -0.1720 -0.0667  0.1621
26779W        W42396  10.593   9.502  16.790 -0.2073 -0.0439  0.0937
26780W        W42397   0.386   4.977   1.669 -0.0841  0.0474 -0.0806
26781W        W42398   3.192   6.875   5.576 -0.3140 -0.0780  0.3606
26782W        W42399  14.129   1.655  17.064  0.0040  0.2269  0.0116
26783W        W42400  11.520   5.734   0.197  0.0477 -0.1161  0.1176
26784W        W42401   3.188   2.476   4.431  0.1918  0.3260 -0.1325
26785W        W42402   7.565  13.151  11.892  0.0440  0.0260  0.0244
26786W        W42403   6.285   7.628   1.905  0.2440  0.0124 -0.1315
26787W        W42404   2.630   9.604   2.666  0.1253 -0.2737  0.3122
26788W        W42405  16.977   1.307   3.366 -0.0730 -0.1443  0.0706
26789W        W42406  14.122   7.598  12.230 -0.2406  0.0824  0.2287
26790W        W42407  14.550   2.322   2.039  0.2414 -0.1729  0.1132
26791W        W42408  13.322  16.665  13.725  0.0283 -0.3727  0.0570
26792W        W42409   9.301  16.362  14.836 -0.1274 -0.1581 -0.1934
26793W        W42410   7.409  11.161  15.055 -0.2896  0.0890 -0.1610
26794W        W42411  13.097  16.414   5.445 -0.0746  0.2643  0.0982
26795W        W42412  16.458   9.431  14.910 -0.1034  0.0357 -0.0768
26796W        W42413   0.503   6.195  16.874 -0.0395 -0.1377 -0.0137
26797W        W42414   5.561   4.832   3.015  0.0380  0.0885  0.0564
26798W        W42415  10.394  12.397  12.875  0.2685  0.0409 -0.2526
26799W        W42416  12.441  12.260   1.346 -0.2459  0.2978  0.2183
26800W        W42417  12.251   4.049   5.390  0.1528 -0.0515  0.2711
26801W        W42418   3.564   6.819  17.037  0.0374  0.2363 -0.1409
26802W        W42419   2.229   3.977  16.803  0.0331  0.2477 -0.3740
26803W        W42420  13.581  16.218  13.632  0.0506  0.0612 -0.2518
26804W        W42421  13.465   6.454   5.011 -0.0185  0.0133 -0.1905
26805W        W42422   2.535   5.653   3.364  0.0239  0.3207 -0.1157
26806W        W42423  11.368   7.320   0.852 -0.0172 -0.1226  0.3768
26807W        W42424  16.947   5.969   3.367  0.3650  0.3418  0.0359
26808W        W42425   5.224   2.756   3.460 -0.0257 -0.2028  0.1213
26809W        W42426   2.461   3.733   1.101 -0.0299 -0.0392 -0.0856
26810W        W42427  16.885   7.821   5.084 -0.0638 -0.1420 -0.1803
26811W        W42428   2.518   3.506   5.231  0.1612  0.1126 -0.2381
26812W        W42429   1.163   5.562  15.367  0.2156 -0.2311 -0.0419
26813W        W42430   4.334   2.684   6.882 -0.0258  0.0014  0.5820
26814W        W42431  16.084  10.034  15.251 -0.2285  0.1125 -0.3324
26815W        W42432   6.959   7.965   0.383 -0.1182  0.0169 -0.2238
26816W        W42433  11.513   7.005  15.779  0.1482  0.1466 -0.2086
26817W        W42434  14.326   2.748   6.305 -0.2122 -0.0471 -0.5365
26818W        W42435  16.444   5.995   2.114 -0.0121  0.1679  0.0948
26819W        W42436  10.797  15.272  10.279  0.1711 -0.0549  0.0032
26820W        W42437  11.853   0.407   2.771 -0.1731  0.2706  0.0637
26821W        W42438   0.627   2.691  15.248  0.1069 -0.3559  0.0051
26822W        W42439   4.964   3.235   0.787 -0.2827 -0.3772  0.1981
26823W        W42440   3.366  15.865   2.381  0.0337  0.1257 -0.0894
26824W        W42441   7.785   6.976  14.845  0.0331 -0.0025  0.0870
26825W        W42442   1.666  14.472  16.488 -0.0078 -0.0821  0.2915
26826W        W42443  10.602  15.200   5.024 -0.1929  0.0596  0.3472
26827W        W42444   3.493   5.858  14.487  0.1149 -0.3859  0.2536
26828W        W42445   7.882   0.374   2.567  0.0069 -0.0815 -0.2455
26829W        W42446   9.075  14.286   4.417  0.0417 -0.0612 -0.0697
26830W        W42447  15.123  13.360   2.378 -0.0986 -0.2796 -0.1155
26831W        W42448  16.245   8.555  14.799  0.1199  0.0536  0.0509
26832W        W42449   2.159  14.253   0.232 -0.1202  0.2867 -0.2058
26833W        W42450  10.093   0.075  13.167  0.0149 -0.2747  0.1777
26834W        W42451   6.507   7.475   5.711  0.1182  0.1421 -0.1230
26835W        W42452  15.880   2.180  14.332 -0.1703  0.0212 -0.3168
26836W        W42453  10.203   7.476   3.399 -0.0779 -0.1830 -0.0553
26837W        W42454   6.876  15.807  15.670 -0.0098 -0.0307 -0.0595
26838W        W42455   3.216  17.272   0.815 -0.0631  0.0636 -0.0701
26839W        W42456  14.452   8.374   0.160 -0.0062  0.0589 -0.0080
26840W        W42457  12.981  14.082   3.994 -0.0229  0.5312 -0.0604
26841W        W42458  13.283  16.435   0.509 -0.0729 -0.0035  0.0270
26842W        W42459   6.141   7.046   2.995 -0.0144 -0.2969 -0.0748
26843W        W42460  12.992   3.568   4.344 -0.4235  0.1051  0.0258
26844W        W42461  15.140   6.337  15.384  0.0646  0.1164  0.1682
26845W        W42462   3.688   5.115   2.242  0.2708  0.2729 -0.1054
26846W        W42463   9.033   7.171  13.675  0.1429 -0.1190 -0.5200
26847W        W42464  13.383  11.480  12.376 -0.0645  0.1090 -0.1339
26848W        W42465   0.965  11.437   0.000  0.0925  0.2044  0.3552
26849W        W42466   6.301  14.356  13.179  0.0287  0.0830  0.0953
26850W        W42467  10.666  12.554  15.290 -0.0044 -0.0328 -0.0817
26851W        W42468   0.968  14.806  11.917 -0.0785  0.0139  0.1168
26852W        W42469  14.631   9.953   0.175 -0.1725  0.2526  0.1134
26853W        W42470   1.161   8.984   5.477 -0.0923 -0.1230  0.0119
26854W        W42471   3.084   2.011  17.005 -0.0319  0.1897  0.0253
26855W        W42472  10.453   0.342  15.445 -0.0446  0.0571  0.0093
26856W        W42473   1.134  11.394  12.210  0.0441 -0.0042  0.0440
26857W        W42474   7.222   1.568  12.097 -0.0787 -0.0309 -0.3525
26858W        W42475   5.895  10.630  15.954  0.2666  0.1248  0.0497
26859W        W42476   2.999   1.579  17.241  0.0951 -0.1082 -0.2346
26860W        W42477  11.100   5.971  14.651  0.2191 -0.0733  0.0906
26861W        W42478   5.974   8.274   3.190  0.1640  0.2797  0.1059
26862W        W42479  14.880   8.734  14.669 -0.0427 -0.1855 -0.0081
26863W        W42480  17.562   7.689  15.694  0.0668  0.1465 -0.1572
26864W        W42481  16.136   6.910   6.009 -0.0932  0.0162  0.1941
26865W        W42482  14.415  12.715   3.244  0.0703  0.1153 -0.1231
26866W        W42483   9.516  17.070  16.552  0.1390  0.0712 -0.0051
26867W        W42484  16.369   0.391  13.055 -0.1594 -0.1213 -0.1434
26868W        W42485  16.271   1.123   1.027 -0.3977 -0.1618  0.2308
26869W        W42486  14.784   6.784   1.971 -0.1874  0.2760  0.2317
26870W        W42487  14.568  17.061  13.788  0.0995  0.0742 -0.0183
26871W        W42488  15.978  13.261  13.122 -0.4868 -0.0225 -0.1209
26872W        W42489   9.533   1.179   0.743  0.1179  0.4273  0.0990
26873W        W42490  13.034  15.648  12.520  0.2380  0.0275 -0.1018
26874W        W42491   5.514  12.281  17.191  0.2127  0.0228 -0.4132
26875W        W42492  15.534   9.629  12.800 -0.2082 -0.1559  0.0233
26876W        W42493   7.094   1.055   3.114  0.0954 -0.2761 -0.2847
26877W        W42494   5.187   9.321   2.464  0.2190  0.1483  0.3049
26878W        W42495  10.053   7.409  12.554 -0.0175 -0.0012 -0.0517
26879W        W42496  14.305  15.698  12.795  0.2194 -0.1276 -0.0243
26880W        W42497  15.003   8.862  12.547  0.1670 -0.0527  0.1392
26881W        W42498   0.556   7.148   6.552  0.0200  0.1798 -0.2190
26882W        W42499   0.068   9.245   2.812  0.1758  0.1192  0.1594
26883W        W42500   9.114   4.638   6.973 -0.0285 -0.0783 -0.1649
26884W        W42501  11.397   4.278  12.775 -0.3352  0.0256  0.1084
26885W        W42502   8.319  10.657  14.311 -0.1716 -0.1170  0.0766
26886W        W42503   4.903  16.567  16.147  0.2945  0.0580  0.2940
26887W        W42504   1.910   0.918  12.819  0.0035  0.0782 -0.3923
26888W        W42505  14.112  13.309  11.544 -0.1354 -0.2664 -0.0637
26889W        W42506   9.382   8.189   4.992 -0.0605  0.3380  0.2039
26890W        W42507  12.013  15.678   4.047 -0.3326  0.2870 -0.1029
26891W        W42508   0.290   4.045  15.697 -0.2607 -0.0721 -0.0705
26892W        W42509   7.092   6.647  16.770 -0.1035 -0.5156  0.0517
26893W        W42510   2.058  13.672   5.104 -0.0931  0.1450  0.1832
26894W        W42511   8.604   8.445   3.988  0.0961  0.1025 -0.1108
26895W        W42512  17.015   6.504   4.830 -0.1614 -0.0619 -0.2229
26896W        W42513   5.830  12.823   3.472  0.0971  0.2654 -0.0123
26897W        W42514  17.459  16.492  13.094  0.3745 -0.2189 -0.1810
26898W        W42515   7.717   1.091   6.333 -0.1550 -0.2352 -0.0578
26899W        W42516  13.630   3.277   2.300 -0.0700 -0.3800 -0.0005
26900W        W42517  11.954   5.388  16.212  0.2334 -0.1857 -0.1546
26901W        W42518  14.064   2.211   4.882 -0.4128 -0.0308  0.2259
26902W        W42519  13.225   3.640   2.259  0.1898 -0.2308 -0.1659
26903W        W42520   8.693   8.490   6.186  0.0991 -0.0599 -0.1560
26904W        W42521   9.858   6.285  15.405 -0.1584 -0.0961 -0.2095
26905W        W42522  11.055  16.240  14.165  0.0003 -0.1681  0.2353
26906W        W42523   9.589  14.217   2.391 -0.1781  0.2694 -0.0798
26907W        W42524  15.131   0.049  15.812 -0.0494  0.0527 -0.0274
26908W        W42525   8.959  15.748   0.489  0.1512  0.0876 -0.1526
26909W        W42526   3.027  16.249   2.258 -0.0875  0.0669  0.3479
26910W        W42527  17.590   7.500   2.811 -0.3889  0.4125  0.1718
26911W        W42528   5.945   0.584  14.019 -0.1476 -0.0926  0.2116
26912W        W42529   2.293   1.643  13.238 -0.1433  0.0373 -0.0403
26913W        W42530   7.761  17.051   3.486  0.1473 -0.0277  0.0380
26914W        W42531  10.468  12.584   1.675  0.1756 -0.1256  0.0148
26915W        W42532   9.540  15.482  16.380 -0.0390  0.2835 -0.1579
26916W        W42533  14.173  16.357  15.344  0.3341  0.0544 -0.0291
26917W        W42534  10.325   3.501  13.757 -0.3677  0.0136 -0.0535
26918W        W42535  16.143   6.306  13.476 -0.0827  0.5826  0.0578
26919W        W42536   2.358  10.880   0.435  0.0599  0.2406  0.0969
26920W        W42537   4.603  15.224   0.390  0.0744  0.1068  0.0056
26921W        W42538   4.427   7.478  16.965 -0.1532 -0.0531 -0.2149
26922W        W42539  14.456   6.564   5.684  0.0427  0.1214 -0.1180
26923W        W42540  10.694   4.424  11.858  0.0642 -0.0107  0.1432
26924W        W42541  10.635   1.690  13.717  0.0215 -0.1196 -0.1879
26925W        W42542   7.105   2.935  15.323  0.2812  0.0011  0.2352
26926W        W42543  11.129   6.250  14.161  0.0405  0.1278 -0.2137
26927W        W42544  13.456   1.273  12.143 -0.2203  0.1899 -0.0206
26928W        W42545   0.005   1.018   5.507  0.1411  0.0208  0.1041
26929W        W42546   1.965   8.499  14.286  0.0144 -0.0532  0.2903
26930W        W42547   1.458   8.799  11.726  0.0281  0.2442 -0.2696
26931W        W42548  10.240   6.543   4.406  0.2913 -0.0820  0.4833
26932W        W42549  16.242   7.848   6.884  0.1812  0.3115  0.4283
26933W        W42550  12.960   1.175  15.274 -0.0611  0.1414  0.3000
26934W        W42551  16.178   6.444  16.176  0.2456 -0.0693  0.0166
26935W        W42552  15.723  17.194   3.367  0.2205 -0.0495  0.0078
26936W        W42553   3.196   4.762  14.284  0.0553  0.1115  0.0542
26937W        W42554  12.745   8.923  12.327  0.0187  0.1479 -0.0377
26938W        W42555   4.106   4.297  15.131  0.3961  0.1371 -0.3350
26939W        W42556  14.637  12.773  16.158 -0.0254 -0.1448 -0.0083
26940W        W42557  17.484  16.996  16.106  0.0293  0.0530  0.0104
26941W        W42558   8.476  12.561   2.667 -0.3044 -0.4329 -0.0527
26942W        W42559  15.969  13.329  12.567  0.2381 -0.3110  0.4116
26943W        W42560   0.719  14.959   0.784 -0.1528  0.1495  0.0852
26944W        W42561   9.898   1.283   1.159 -0.1444  0.0354 -0.2935
26945W        W42562   4.766   8.632   6.792  0.1395 -0.0682 -0.0101
26946W        W42563  16.708   9.459   1.866  0.1318 -0.3396  0.1865
26947W        W42564  12.681  14.070  17.222 -0.0541  0.0797  0.1641
26948W        W42565   2.092  15.791   0.553  0.1229  0.1365  0.1534
26949W        W42566   1.375   8.635   0.449  0.0612 -0.0400  0.2215
26950W        W42567   2.498  13.919   3.429 -0.0286  0.0813  0.1269
26951W        W42568   4.564  13.944   0.769 -0.1220  0.3857  0.1050
26952W        W42569  13.795   0.476   3.045  0.3780 -0.0358 -0.0742
26953W        W42570  16.469   8.990   1.201  0.3341  0.3808  0.0649
26954W        W42571   0.618  17.552  15.537  0.1309  0.0250  0.1595
26955W        W42572  13.868   4.655  12.452  0.0287 -0.0110 -0.1315
26956W        W42573   0.642  14.438  11.973  0.0358  0.3184 -0.3522
26957W        W42574   4.868   7.919   3.397  0.3440 -0.2524  0.2082
26958W        W42575   7.086   2.748   3.537  0.0454  0.2134 -0.0238
26959W        W42576   5.598  14.789  13.281  0.0346 -0.0972  0.2746
26960W        W42577  11.856  16.797   1.341 -0.0760 -0.3093  0.1557
26961W        W42578  17.484   5.479   0.577 -0.1231  0.0082 -0.1155
26962W        W42579   7.834   2.128  16.330  0.1217  0.1475  0.1279
26963W        W42580  17.319  13.289  12.101  0.0321  0.1577 -0.2113
26964W        W42581   3.332   2.724  16.076 -0.1471  0.0075  0.0356
26965W        W42582   1.171  12.499  12.210 -0.1440  0.1005 -0.1012
26966W        W42583   4.616  12.467   0.841  0.3731 -0.2501 -0.2724
26967W        W42584  14.062   4.743   1.194 -0.0149 -0.1317  0.1342
26968W        W42585  13.330  16.158  12.649 -0.1576 -0.1494  0.2663
26969W        W42586   4.265   9.669   0.299  0.0529  0.0693  0.0622
26970W        W42587  13.571   6.728  12.982  0.0278  0.0543  0.0171
26971W        W42588  13.275   6.516   4.264  0.1205 -0.4196 -0.0071
26972W        W42589  17.487   9.367  17.222 -0.0209  0.2841  0.0558
26973W        W42590   2.264   5.512   4.323  0.2749 -0.1366 -0.2043
26974W        W42591   0.723   8.022  12.670  0.1013 -0.1603  0.1176
26975W        W42592  11.328   9.027   6.770  0.0959 -0.1087 -0.1560
26976W        W42593  11.034   2.289  11.917  0.0510 -0.3116  0.2215
26977W        W42594   6.224   9.198  16.279 -0.1106  0.2538 -0.0293
26978W        W42595   0.014   6.520   2.432  0.2490  0.0670 -0.0526
26979W        W42596  15.605   9.678   6.111  0.0119  0.1342  0.2466
26980W        W42597   0.762  11.955   2.260  0.1550 -0.0654 -0.0470
26981W        W42598   3.692   0.534   2.826 -0.3575  0.1015  0.2382
26982W        W42599   5.205   3.419   5.240 -0.0074  0.1050 -0.2394
26983W        W42600   2.808   5.236   6.142  0.1522 -0.0461  0.0474
26984W        W42601   1.875   0.018   3.085 -0.0453 -0.0117  0.0684
26985W        W42602  17.292   0.774   2.738 -0.2259 -0.1158  0.2450
26986W        W42603  13.933   1.611  14.028 -0.0026  0.0825  0.4198
26987W        W42604  10.765  14.627  16.631  0.2024  0.1320  0.0669
26988W        W42605   3.250  15.254  15.997  0.1723 -0.1046  0.0983
26989W        W42606   1.973   0.310   1.006 -0.1202  0.1860 -0.0659
26990W        W42607  14.240   8.810  17.070  0.0027 -0.1004 -0.0844
26991W        W42608  10.718   2.489  12.684  0.0283  0.0176 -0.0175
26992W        W42609  15.431  15.908   4.153  0.2545 -0.0494  0.0810
26993W        W42610   6.515  13.986  12.905 -0.0028 -0.0109  0.1274
26994W        W42611  13.153   5.487   3.208 -0.0777  0.0268 -0.2606
26995W        W42612  16.823   0.957  16.318 -0.0187 -0.1936  0.1350
26996W        W42613  15.890   3.296   6.032  0.0424 -0.2238  0.0653
26997W        W42614   3.471  10.381   4.709  0.0898  0.2328  0.3151
26998W        W42615  10.124   9.722   5.421 -0.2887  0.1442 -0.0945
26999W        W42616   5.159   2.920   1.135 -0.3482 -0.3923 -0.1506
27000W        W42617   5.057  14.776   0.963 -0.0719 -0.1798  0.0813
27001W        W42618  16.579   6.579   0.928  0.0436  0.2314  0.3953
27002W        W42619  10.875  15.135  12.442 -0.0145  0.0993  0.1134
27003W        W42620  12.032   4.530  16.015  0.0381 -0.0896  0.0506
27004W        W42621  15.955   9.570  15.037  0.0827  0.1505 -0.2195
27005W        W42622   0.966  11.488  13.248  0.1265  0.0429  0.0773
27006W        W42623  16.821   1.955   0.969  0.0151 -0.2136 -0.0353
27007W        W42624   2.591   0.052  12.036  0.2274 -0.1052 -0.2136
27008W        W42625   4.207   0.917  16.164  0.0174 -0.2213 -0.1902
27009W        W42626   3.651   4.229  15.400 -0.1266 -0.2593  0.2786
27010W        W42627   2.452   4.569   1.777 -0.0919  0.2733 -0.3289
27011W        W42628   1.285  10.442   5.053  0.1003  0.0123 -0.3652
27012W        W42629  15.938   3.349  16.228 -0.1313 -0.0791  0.5184
27013W        W42630   2.948  10.642   5.327 -0.2491 -0.2045 -0.0489
27014W        W42631   4.367  16.253  11.021  0.2284  0.0655  0.2269
27015W        W42632   8.841   2.873   5.571  0.3391  0.3039  0.0914
27016W        W42633  17.347   4.563   4.868 -0.0121 -0.0817 -0.2493
27017W        W42634   7.310  11.820  17.038  0.2515 -0.1721  0.1803
27018W        W42635   4.685  11.082   3.489  0.0522 -0.0375 -0.1077
27019W        W42636   9.901   3.390   0.492  0.1673  0.0247 -0.1479
27020W        W42637   9.686  11.690  14.277  0.0548 -0.0365 -0.1143
27021W        W42638  16.572  16.540  15.162 -0.1188 -0.3732  0.1944
27022W        W42639   9.697   9.226   0.516 -0.2228 -0.4372  0.0388
27023W        W42640   6.933   7.673   5.439  0.2750 -0.0970 -0.1273
27024W        W42641   2.201   2.318  12.545 -0.0097 -0.0672 -0.1784
27025W        W42642  14.178   6.462   0.738 -0.2466  0.0987 -0.0903
27026W        W42643   5.092   6.026   0.249 -0.1875  0.1658 -0.0702
27027W        W42644  12.126   3.338  12.019  0.2223 -0.2768  0.0439
27028W        W42645  16.519  15.200  13.631  0.1708 -0.3146 -0.2252
27029W        W42646   0.238   4.692   2.038  0.0965  0.0609 -0.1928
27030W        W42647  11.366  13.876  11.672  0.1694 -0.1252  0.2359
27031W        W42648  15.438   5.182   1.762 -0.1083 -0.0474  0.0707
27032W        W42649  16.989   6.436  11.761  0.1458 -0.1099  0.0066
27033W        W42650   5.403   1.410   0.600 -0.1565 -0.0928  0.0106
27034W        W42651  13.511  11.034   3.534 -0.0151  0.0347 -0.1423
27035W        W42652   6.058  13.583  15.267 -0.2860 -0.1705 -0.2640
27036W        W42653  16.938  11.554  17.238  0.0418 -0.1508 -0.2449
27037W        W42654  10.424   8.928   3.307 -0.3247  0.0217  0.1285
27038W        W42655  15.762   6.677   0.660 -0.0608 -0.2330 -0.0630
27039W        W42656  14.189   3.780   0.438 -0.1114  0.0731  0.1690
27040W        W42657  17.101   8.343   4.402  0.0798 -0.0102  0.1812
27041W        W42658  10.762  10.024  11.733 -0.0589  0.0682  0.1568
27042W        W42659   1.070  13.300   1.681  0.0344 -0.0660  0.1554
27043W        W42660   9.151   2.265  11.323  0.1228  0.1147  0.2688
27044W        W42661   8.595  17.077   4.057  0.1257 -0.4685 -0.3678
27045W        W42662  17.536   3.342  14.830 -0.1556 -0.2380  0.2523
27046W        W42663  14.794   7.320   2.401  0.1633  0.2469 -0.1657
27047W        W42664   8.633   3.322  15.877 -0.1178 -0.2639 -0.0379
27048W        W42665  15.360  12.060   1.589  0.0396  0.3515  0.2691
27049W        W42666   1.864   7.265  14.260  0.0771 -0.0278 -0.1619
27050W        W42667  14.358   8.675   3.881  0.1696  0.3325 -0.0904
27051W        W42668   1.307   8.616   2.388 -0.0972  0.1921 -0.0663
27052W        W42669  14.880  15.241  14.400 -0.0121  0.0769  0.1717
27053W        W42670   0.062   8.577  15.872 -0.1448 -0.2120 -0.2055
27054W        W42671  12.206   3.216  12.937  0.0726  0.0948 -0.1365
27055W        W42672  13.647   7.629  14.047  0.1391 -0.0761 -0.1328
27056W        W42673  10.236   3.216  15.224 -0.3554  0.0514 -0.0979
27057W        W42674   2.971   2.110   2.135 -0.1042 -0.0600 -0.1715
27058W        W42675  16.925  17.197   0.531  0.3616  0.1940 -0.3219
27059W        W42676  11.375  10.267   1.856 -0.0414 -0.0223  0.0859
27060W        W42677  14.645  15.999   4.489 -0.3789 -0.1776  0.0590
27061W        W42678  13.561  13.621   0.950 -0.2979  0.0119 -0.1411
27062W        W42679  12.518  13.641   1.744 -0.3308  0.0167  0.0783
27063W        W42680   9.054   3.285   4.291  0.1397 -0.2324 -0.0827
27064W        W42681  14.685  12.438   4.672  0.0780 -0.0414  0.2952
27065W        W42682  13.204  17.305   4.272 -0.0563  0.0856 -0.1294
27066W        W42683   7.516  10.899   4.210 -0.0137  0.1387  0.0132
27067W        W42684  16.850   4.817   4.476  0.1681  0.2304 -0.1128
27068W        W42685  11.600   5.001  12.602 -0.1377  0.3292 -0.0310
27069W        W42686   7.393  16.871   0.235 -0.0442  0.1160 -0.0055
27070W        W42687  13.151  15.388   1.719  0.1906  0.0361 -0.3212
27071W        W42688  15.205   3.564  15.425 -0.1006  0.1895 -0.2543
27072W        W42689  15.360   0.429  14.719 -0.0476  0.1499 -0.1722
27073W        W42690   1.303   1.838   1.488 -0.0038  0.1393 -0.0286
27074W        W42691   2.597   5.946  14.207  0.0291 -0.2340 -0.2329
27075W        W42692   7.662  17.536  12.891  0.2631 -0.0380  0.0266
27076W        W42693   8.114   9.693   1.729 -0.0399  0.1965 -0.0147
27077W        W42694   5.709  13.637  15.698  0.1003  0.3949  0.0771
27078W        W42695  13.879   9.781   6.812  0.1439 -0.0268 -0.0135
27079W        W42696   9.013   6.327   1.446  0.1265  0.2110  0.2165
27080W        W42697  13.926   6.542  15.155  0.2837 -0.0492  0.0080
27081W        W42698  13.076  11.143  12.650 -0.1536 -0.2677 -0.0293
27082W        W42699  11.550   2.346   4.774  0.1419 -0.0546 -0.2391
27083W        W42700  14.909   9.554  15.003 -0.1098  0.3494  0.0342
27084W        W42701  11.607   7.472   1.656 -0.1985  0.0252 -0.1067
27085W        W42702  10.220   9.607   1.445 -0.0375 -0.1395 -0.1446
27086W        W42703   4.887   5.218  13.223 -0.0678  0.1118 -0.0240
27087W        W42704  11.915  13.003  13.089 -0.3697  0.0333  0.0156
27088W        W42705   0.021  12.578  13.734  0.2841  0.1598  0.2324
27089W        W42706  14.850   4.315  14.949 -0.0451  0.0858 -0.2563
27090W        W42707  13.577   2.833   5.013 -0.0617  0.1298  0.3386
27091W        W42708   7.079  16.885   5.221  0.1868 -0.3497 -0.0538
27092W        W42709   3.243  14.984  16.824 -0.0515 -0.1804  0.1294
27093W        W42710  10.082  16.995   5.173 -0.0836 -0.2676 -0.2201
27094W        W42711   2.912  15.006  12.310 -0.0627 -0.1434 -0.0532
27095W        W42712   2.684   4.774  13.123  0.0054  0.1226  0.1246
27096W        W42713   2.495   4.509  13.612  0.0155  0.2237 -0.0906
27097W        W42714  11.448  13.018   2.699  0.1410 -0.0501 -0.0973
27098W        W42715  10.295  16.652  11.780 -0.3443  0.0489  0.1171
27099W        W42716   6.734  16.721  11.232  0.0208  0.0263 -0.1382
27100W        W42717  14.009   2.970   5.978 -0.1420 -0.0214 -0.0594
27101W        W42718   8.988  14.707  11.546  0.2006  0.0908 -0.2419
27102W        W42719   4.899  11.306  16.003 -0.0193  0.0248  0.1153
27103W        W42720  14.049   2.357   1.983  0.4049  0.1740 -0.3006
27104W        W42721   5.398  10.625  16.273 -0.0826  0.0208  0.1675
27105W        W42722   8.610  11.859   4.872  0.2467 -0.0083  0.2194
27106W        W42723   7.433  14.966   0.498 -0.0236  0.2337 -0.0210
27107W        W42724   8.765   8.418   2.644  0.1042  0.0290  0.1192
27108W        W42725   0.749   4.304   0.937  0.1649  0.0652 -0.0056
27109W        W42726   4.128   2.711   3.651  0.0997 -0.0909  0.0249
27110W        W42727   7.034  13.511  16.543 -0.2921  0.2418 -0.0511
27111W        W42728  15.372   1.510  16.403 -0.0144 -0.0527 -0.0486
27112W        W42729   6.373  14.229   5.444 -0.0659  0.0158 -0.2671
27113W        W42730  10.483  16.141   4.577  0.2742  0.0714 -0.1931
27114W        W42731  11.513  14.486   5.558  0.0340 -0.0136 -0.1470
27115W        W42732  13.705   7.875  17.127  0.2844 -0.3598 -0.0870
27116W        W42733   2.418   5.234  13.132  0.2161  0.1198  0.1830
27117W        W42734  12.926   5.403   4.068  0.0122 -0.1694 -0.0433
27118W        W42735  16.006   6.224  11.981  0.1597  0.2149 -0.2701
27119W        W42736  13.114  15.119  13.165  0.1195  0.1395  0.2195
27120W        W42737  13.255   8.000   3.116  0.0292 -0.0571  0.0302
27121W        W42738   9.649  17.407  16.222 -0.1041  0.0773 -0.2876
27122W        W42739  14.734   8.244   4.430  0.0843  0.0831  0.2663
27123W        W42740   3.153  12.615  15.577 -0.2782  0.3811  0.2286
27124W        W42741   5.610  13.078   0.034 -0.3729  0.1373  0.1464
27125W        W42742   8.055  10.531  16.881  0.3729  0.0363 -0.1899
27126W        W42743   2.792   4.828   4.103 -0.1823  0.0016  0.0408
27127W        W42744   3.187   6.475   3.728  0.0823 -0.0401 -0.1325
27128W        W42745  11.417  17.186   2.900  0.4146  0.2231 -0.0725
27129W        W42746   6.542   3.206   3.029 -0.1808  0.0876 -0.0571
27130W        W42747   7.503   7.242   1.611  0.2591 -0.3366  0.0397
27131W        W42748   4.571  11.652   4.811  0.0249  0.1833  0.0828
27132W        W42749   2.914  11.566   2.052 -0.3139 -0.0271 -0.1505
27133W        W42750  11.222   2.641  12.724 -0.1227 -0.4625 -0.2356
27134W        W42751   2.832  13.685  13.001 -0.2656  0.0733  0.0797
27135W        W42752  10.366   3.950   2.764  0.1357  0.2112 -0.0129
27136W        W42753   8.206  11.427   4.330 -0.0209  0.0042 -0.2251
27137W        W42754  10.874  11.245  12.851 -0.0984  0.3261 -0.2188
27138W        W42755  15.741   3.473   4.115 -0.2965  0.0393  0.0265
27139W        W42756   6.059  15.654  12.894  0.3143 -0.3414  0.1464
27140W        W42757  11.899   7.394  15.623  0.1049 -0.1834  0.2129
27141W        W42758   9.846   1.313   2.012  0.1608  0.2808  0.0673
27142W        W42759   0.492  12.681  13.535  0.0507 -0.0924 -0.0487
27143W        W42760  16.190  16.871   4.264 -0.2494  0.0614 -0.1228
27144W        W42761   0.025   1.918  12.425 -0.0619  0.1070  0.0673
27145W        W42762  14.681   9.826   1.571 -0.0844  0.0704 -0.0907
27146W        W42763   9.516  17.015  14.694  0.0545  0.3190 -0.0481
27147W        W42764   1.519   0.878   0.015 -0.2291 -0.1223 -0.1060
27148W        W42765  11.531  13.854   0.900 -0.1307  0.2122  0.3734
27149W        W42766  10.837  10.222  14.216  0.0977 -0.1111 -0.0104
27150W        W42767  14.154   6.998  16.013 -0.0956 -0.1071  0.0215
27151W        W42768  15.864   8.505  12.063  0.0751 -0.3872  0.0487
27152W        W42769  15.823  10.611  12.142 -0.0662  0.3313  0.3134
27153W        W42770  11.243   0.831  12.751 -0.1442 -0.2512 -0.3314
27154W        W42771  17.325   4.557  15.991  0.0620  0.1761 -0.1289
27155W        W42772   0.086   5.308  12.394  0.0369  0.0828  0.1067
27156W        W42773   9.109   1.110   3.605 -0.1087 -0.0220  0.0051
27157W        W42774   9.978   6.218   4.750  0.0258 -0.1651  0.2705
27158W        W42775   5.540   0.304   1.256  0.0101 -0.1613  0.1587
27159W        W42776  13.280   2.300  16.279  0.0559 -0.0886 -0.2752
27160W        W42777   1.978  15.476  12.661  0.2294  0.1312 -0.0188
27161W        W42778   7.188   2.945   3.057 -0.1037 -0.2714  0.0153
27162W        W42779  13.254  11.801   2.528  0.1867 -0.0642  0.1781
27163W        W42780   8.859  13.801   1.444 -0.1400  0.2126  0.0809
27164W        W42781   3.102  12.851   3.577  0.0339  0.1415  0.2526
27165W        W42782  13.531  13.119  17.060  0.2571  0.3711 -0.1256
27166W        W42783   9.877  11.986  13.800 -0.1928  0.2774  0.1025
27167W        W42784   5.480  16.570   5.845 -0.0082 -0.3374 -0.3012
27168W        W42785   9.935   5.914   3.826  0.0297 -0.0412 -0.1720
27169W        W42786  10.611  13.571   6.409  0.0531 -0.0973 -0.2542
27170W        W42787   4.625  13.814   4.032  0.2936  0.2656  0.1084
27171W        W42788   3.339  11.055   3.523  0.1472 -0.1500  0.2750
27172W        W42789   6.514  12.494   5.562 -0.2139 -0.1026 -0.0228
27173W        W42790   1.169   4.047   3.020  0.0955  0.0318 -0.3848
27174W        W42791   7.174   3.710  10.759  0.2358  0.2165 -0.0338
27175W        W42792   3.659   9.652   0.990 -0.2704 -0.0636 -0.0947
27176W        W42793   0.360  14.481  14.311  0.1838  0.1060  0.1926
27177W        W42794  16.087   1.443  11.790 -0.1053  0.2844  0.1114
27178W        W42795   0.402  12.644   4.565 -0.2281 -0.1866 -0.1285
27179W        W42796   8.846  16.230   2.051 -0.1655 -0.4227  0.1959
27180W        W42797   6.549   0.622  16.717  0.0156 -0.1213  0.3068
27181W        W42798  13.674  13.179  14.331 -0.1635 -0.0090  0.0427
27182W        W42799   3.784   5.774   3.100  0.1979 -0.1889 -0.1332
27183W        W42800  11.101   7.752  16.665  0.0508 -0.1480  0.2538
27184W        W42801   9.635   1.682   3.861 -0.0458 -0.0012  0.0201
27185W        W42802   8.270  10.866   0.025  0.3955  0.3936 -0.2130
27186W        W42803   7.758  10.595   4.497  0.0519  0.0926 -0.0372
27187W        W42804  14.054  10.380  13.650  0.0901  0.0931  0.2181
27188W        W42805   2.890  15.179  12.800  0.0014 -0.0358 -0.0079
27189W        W42806   9.416  16.475  11.710  0.1111  0.0538 -0.1895
27190W        W42807   6.523  15.195   2.554 -0.1018 -0.0909 -0.0076
27191W        W42808   8.405  13.145  11.515  0.3119 -0.1498 -0.0648
27192W        W42809  14.151  15.010  13.216 -0.0279  0.1317 -0.1969
27193W        W42810  12.354  14.914   4.351 -0.4797  0.1372  0.0627
27194W        W42811  16.790   2.950   2.373  0.4447 -0.0763  0.2118
27195W        W42812   7.274  11.301  17.104 -0.0843  0.1663 -0.0503
27196W        W42813   8.811   2.577  13.513 -0.2350  0.0867 -0.1452
27197W        W42814  11.056  16.385   2.321  0.2870  0.0126  0.1256
27198W        W42815  14.313  13.235  12.615 -0.0664 -0.2348 -0.1472
27199W        W42816   1.333   3.069   5.609  0.2351 -0.1018 -0.0922
27200W        W42817  11.422  10.934   1.147 -0.2294 -0.1312 -0.3910
27201W        W42818  10.997   4.899  17.010 -0.0582  0.0290  0.0362
27202W        W42819  12.640  17.092   0.900 -0.0636 -0.0729 -0.0305
27203W        W42820   5.367   3.464   2.083 -0.2473  0.0460 -0.0012
27204W        W42821   6.882   0.497   4.079 -0.2229 -0.0410  0.2966
27205W        W42822   7.419  16.559   0.658  0.0920 -0.3342 -0.4093
27206W        W42823  14.489   4.196  12.966 -0.0087  0.1096  0.2903
27207W        W42824  12.703  12.272  15.203 -0.0532  0.1702 -0.0848
27208W        W42825   5.663   5.690   2.645 -0.1001 -0.2608 -0.1754
27209W        W42826  10.427   7.789   3.701  0.0024 -0.1227 -0.2788
27210W        W42827   1.401   9.550   0.366  0.2043  0.0781 -0.0303
27211W        W42828   1.281   2.512  13.107 -0.2184 -0.0307 -0.3219
27212W        W42829   7.661  15.863  13.326 -0.1889 -0.1629 -0.1207
27213W        W42830  10.387   8.956   5.666 -0.3384 -0.0995  0.0561
27214W        W42831   2.792  11.475  13.849 -0.0056 -0.0763 -0.0265
27215W        W42832   8.406   3.509   5.162 -0.4270  0.3196 -0.0828
27216W        W42833   7.741   8.267  13.929 -0.1972 -0.1033  0.1952
27217W        W42834   6.167   1.150  14.336 -0.2614  0.3047  0.1552
27218W        W42835  17.318  14.907   6.120  0.0388 -0.0380 -0.0952
27219W        W42836   5.492   8.508   5.444 -0.1123  0.0800  0.0387
27220W        W42837   1.484   4.905   4.423 -0.3611 -0.0201 -0.3095
27221W        W42838   2.127   0.687   3.647 -0.0913 -0.1081 -0.2038
27222W        W42839  16.116   4.995  11.997  0.0586 -0.1211  0.1438
27223W        W42840   5.741   6.586   5.635  0.0004 -0.2300 -0.3184
27224W        W42841   6.189  13.655   0.306  0.2070  0.0641 -0.0403
27225W        W42842   9.775   3.453   2.325  0.1336  0.1027 -0.2943
27226W        W42843   4.056  13.144  12.461 -0.0439  0.0213 -0.1346
27227W        W42844   7.615   0.425   0.733 -0.1949 -0.3854  0.0619
27228W        W42845  12.383  10.387   3.385 -0.2014  0.1014 -0.1354
27229W        W42846  10.802   0.734  15.061 -0.1593  0.0868 -0.3926
27230W        W42847   3.030  14.007   2.025 -0.1422  0.2155  0.1476
27231W        W42848   2.443   5.818   3.865 -0.1139 -0.1989  0.1482
27232W        W42849   9.873   0.861  14.734  0.1959  0.1543 -0.1001
27233W        W42850   1.329   2.936  13.508 -0.1096  0.4370 -0.0589
27234W        W42851  12.279  11.522   5.808 -0.2087  0.3079  0.0640
27235W        W42852  16.828   3.230   3.412  0.2637 -0.0383 -0.1234
27236W        W42853  14.381  13.619   1.488  0.0456 -0.1054 -0.0471
27237W        W42854  10.108   6.406   0.275  0.4938  0.3482  0.2705
27238W        W42855  10.559   7.384  12.939 -0.1616  0.0470  0.2537
27239W        W42856   7.212   0.630  14.736 -0.0794 -0.2980 -0.1413
27240W        W42857   9.449   4.110  16.248 -0.2026  0.1411  0.0297
27241W        W42858  17.200  14.407  15.897  0.1086  0.0162 -0.1851
27242W        W42859  16.685   3.536   0.247 -0.0630 -0.0267  0.1741
27243W        W42860  11.052   3.313   2.081  0.1592 -0.2540 -0.1718
27244W        W42861  13.522  10.924  12.353 -0.0788  0.1372 -0.2362
27245W        W42862   5.422   9.250   1.035  0.1896  0.2715  0.2154
27246W        W42863  14.174  15.308   5.263  0.1700  0.0643 -0.2950
27247W        W42864   9.072  17.100  14.445 -0.2013  0.2904 -0.0281
27248W        W42865   7.389   8.771  13.276 -0.0707  0.0384 -0.1784
27249W        W42866  16.219   4.317   1.420  0.1974  0.0032 -0.2049
27250W        W42867  14.551  16.462   3.725  0.1705 -0.1624  0.0874
27251W        W42868  14.343  15.279  16.082  0.2847 -0.0938 -0.2133
27252W        W42869   9.088  13.754   4.686 -0.1618 -0.0030 -0.1081
27253W        W42870  16.813  17.390   1.973 -0.0910 -0.0647  0.0321
27254W        W42871   3.966  14.336   4.090 -0.2769  0.2251 -0.0326
27255W        W42872  13.296   6.046  14.765 -0.2449 -0.5757 -0.1584
27256W        W42873   6.571   0.836  16.122 -0.0628  0.3274 -0.0094
27257W        W42874  17.507   4.670  14.076  0.0919  0.0257  0.1483
27258W        W42875   7.431  12.014  11.108  0.1744  0.3543 -0.0509
27259W        W42876   9.660  16.339   1.178 -0.0551 -0.0557 -0.3877
27260W        W42877  15.168  15.717   3.211 -0.1115  0.1499  0.0025
27261W        W42878  14.613  10.746  11.550  0.2865 -0.3373  0.1786
27262W        W42879   4.264  16.481  16.760  0.2418 -0.1451 -0.3781
27263W        W42880  10.096   8.231  15.967 -0.3228 -0.0821  0.0489
27264W        W42881   9.220   0.634  13.184  0.0045  0.0095  0.1517
27265W        W42882   8.368   0.459  17.052 -0.1923 -0.0061  0.1125
27266W        W42883   0.259   2.595   5.156  0.1885 -0.4123 -0.2041
27267W        W42884   9.934  17.574  13.624 -0.0622  0.1143  0.0763
27268W        W42885   0.591   4.808  13.196  0.5555 -0.1707  0.0982
27269W        W42886   1.719   3.372  12.544  0.1834  0.0467 -0.0689
27270W        W42887  10.025   2.878  10.626 -0.2104  0.0258  0.0193
27271W        W42888  16.558   7.101   0.932 -0.2814  0.1280  0.0892
27272W        W42889   5.760   5.677  15.040  0.2983  0.1546  0.0849
27273W        W42890   6.711  10.009   5.464 -0.0721 -0.1313  0.0834
27274W        W42891  14.446   9.372   2.843  0.4683  0.0778  0.0195
27275W        W42892   7.642  16.181   5.092  0.0260  0.3361 -0.0396
27276W        W42893   4.884   3.624  16.703 -0.0554  0.1979  0.1704
27277W        W42894   1.110   0.146   6.244 -0.1029  0.0490  0.0271
27278W        W42895   6.377  13.700   3.601 -0.0797  0.0358 -0.0447
27279W        W42896   0.385   8.963  15.775  0.3047 -0.2787  0.1541
27280W        W42897   4.489   1.975   2.632  0.3025  0.0864 -0.2034
27281W        W42898  16.173   8.572  12.434 -0.0296  0.1084  0.0634
27282W        W42899   9.818   3.234   5.293 -0.2884 -0.1658 -0.0991
27283W        W42900  13.381   1.415   0.378  0.0512 -0.1871  0.0122
27284W        W42901  11.536  13.671  16.486  0.2141  0.1129  0.1978
27285W        W42902  16.506   2.215   2.253  0.0458  0.1517 -0.1061
27286W        W42903   4.880  15.983  12.005 -0.1195  0.1054 -0.0267
27287W        W42904  15.510   2.408  17.188 -0.0982 -0.0285  0.1775
27288W        W42905   7.233  15.823   1.218 -0.0660  0.1811 -0.3108
27289W        W42906  11.088  11.812   5.024  0.0392 -0.1244  0.1429
27290W        W42907  12.260   4.512   1.433 -0.0401  0.0810  0.1431
27291W        W42908  12.518   1.930   3.744 -0.0820 -0.0217  0.1187
27292W        W42909  10.145  10.582  16.577 -0.1481  0.0903  0.0206
27293W        W42910  14.698   2.540   2.898 -0.1683  0.0882 -0.1296
27294W        W42911  12.119  10.374   1.982  0.2134  0.0255  0.0603
27295W        W42912  10.087  15.106  13.399  0.1125  0.1988  0.0771
27296W        W42913  13.285   1.378  17.169  0.0775 -0.2389  0.1096
27297W        W42914  15.699  16.098   1.981  0.0918 -0.4999 -0.0805
27298W        W42915   7.583  11.319   4.456 -0.4191  0.2234  0.1664
27299W        W42916  17.438  11.039   4.520  0.2837 -0.1097  0.0129
27300W        W42917  11.884   6.213   1.124 -0.2787 -0.0796 -0.0455
27301W        W42918  13.929  15.482  14.499  0.0986 -0.1822 -0.0305
27302W        W42919   2.968   9.375   4.782 -0.0240  0.2423 -0.1541
27303W        W42920   1.819   2.517  14.333 -0.2728 -0.0703 -0.0979
27304W        W42921  17.300   2.402  12.081 -0.0461 -0.2336  0.0156
27305W        W42922  16.695  16.068   5.242  0.2983  0.2120  0.0447
27306W        W42923   1.065  15.817   0.417  0.2793 -0.1315  0.0569
27307W        W42924  15.027  15.647   0.504  0.1826  0.0228  0.0872
27308W        W42925   9.524  15.732  10.110  0.0932 -0.2071  0.1435
27309W        W42926   3.944  14.484  16.954  0.3084 -0.3118 -0.3134
27310W        W42927   4.878  11.363  13.872 -0.2316  0.2058 -0.0547
27311W        W42928  10.396   7.200  16.421 -0.1134  0.1266  0.0731
27312W        W42929  14.538   7.688   3.992  0.2931  0.0278 -0.1093
27313W        W42930  10.775  17.473   0.265 -0.3974 -0.1740  0.2083
27314W        W42931  13.964  11.581   3.295  0.0273 -0.0140 -0.2009
27315W        W42932  10.764  15.783   4.017 -0.2630  0.0395 -0.1385
27316W        W42933   2.875   4.867   5.363  0.0667 -0.1192 -0.1971
27317W        W42934   2.187  11.021  15.310 -0.2523 -0.2880 -0.0017
27318W        W42935  11.981   4.108  16.841 -0.1114  0.1000  0.0611
27319W        W42936  14.435   5.888  14.171 -0.0676  0.4193 -0.2694
27320W        W42937  12.292   8.775  14.837  0.0647  0.1937  0.3031
27321W        W42938   9.790   9.075  12.655 -0.3587 -0.1781  0.2061
27322W        W42939  12.926   9.816   5.302  0.2708  0.1203  0.1896
27323W        W42940  17.579  16.269   1.825  0.0205 -0.1079 -0.0118
27324W        W42941   1.766  10.740  13.380 -0.1420 -0.5344 -0.2714
27325W        W42942  13.662  16.375  17.298  0.0571  0.2023 -0.2376
27326W        W42943  13.586  16.287  14.538 -0.2876  0.0960 -0.1613
27327W        W42944  10.648   5.139  14.679  0.2092 -0.1148 -0.0669
27328W        W42945   8.430  10.746  16.474  0.1458 -0.2501  0.3100
27329W        W42946   7.714   4.327  14.812  0.2188 -0.2964  0.1895
27330W        W42947   9.921  12.577  12.748  0.1100 -0.3301 -0.2587
27331W        W42948  17.338   6.636  12.393  0.3406 -0.0960  0.1026
27332W        W42949   5.809  14.588  17.250  0.2352  0.4352  0.0717
27333W        W42950  12.407   0.813   4.208  0.0336  0.0860  0.0032
27334W        W42951  16.607   9.121   0.221  0.1702 -0.3382 -0.1089
27335W        W42952   1.924  14.973  16.671  0.1052  0.0740 -0.2474
27336W        W42953   4.387   6.411   5.286 -0.0176 -0.2048  0.2167
27337W        W42954  13.852   5.315   6.832  0.1757  0.0339  0.0419
27338W        W42955  16.230  10.667  14.894 -0.3659  0.0645 -0.2540
27339W        W42956  11.422   0.481   1.457  0.0341 -0.0371  0.5877
27340W        W42957  10.038  14.107   3.385 -0.2150  0.2155 -0.0062
27341W        W42958   5.470   7.141  13.088 -0.2232  0.0824  0.1484
27342W        W42959   3.829  11.176  14.473  0.1881  0.1853 -0.1629
27343W        W42960  13.507   7.284  16.939 -0.2332 -0.0510  0.0505
27344W        W42961   1.402  14.120  15.137 -0.3349 -0.0246  0.0528
27345W        W42962  10.447  12.449   2.481  0.1570 -0.2196 -0.2112
27346W        W42963  15.553   4.856   5.410  0.1254 -0.0513  0.0564
27347W        W42964  14.595   5.913  13.663  0.1904  0.0259  0.2198
27348W        W42965   5.335  11.590   5.856 -0.4708 -0.1445  0.0463
27349W        W42966   2.881   4.915   0.519 -0.0127  0.0560 -0.3751
27350W        W42967  10.925   8.058   2.161 -0.0029 -0.2163  0.0613
27351W        W42968  15.648   4.736   0.003  0.1878 -0.1172 -0.1271
27352W        W42969  13.013  10.911  14.409  0.0628 -0.0489 -0.1854
27353W        W42970   4.834   8.221   0.030  0.1693  0.2482 -0.2720
27354W        W42971   7.434  12.322  12.384  0.2966 -0.0529  0.0447
27355W        W42972   1.607   9.447  17.200 -0.3475  0.2381 -0.1235
27356W        W42973   3.260   0.533  16.909  0.2684  0.0419 -0.0123
27357W        W42974   9.537   1.144   3.947 -0.2009  0.2823  0.2469
27358W        W42975  14.008   6.266   1.886 -0.1654  0.1563 -0.2302
27359W        W42976  12.079  15.651  16.127  0.0941 -0.3150  0.0264
27360W        W42977   7.853  14.567  16.919  0.0220  0.0010  0.1214
27361W        W42978  15.664  14.616   1.129  0.4320  0.3651  0.1793
27362W        W42979  15.413  15.013  13.535 -0.0198  0.2601 -0.0217
27363W        W42980  16.054  16.569  12.908  0.0210  0.0340  0.1423
27364W        W42981   8.370   7.673  14.923  0.0292  0.0899 -0.1373
27365W        W42982   6.960   6.512  14.278 -0.0391  0.1182 -0.1081
27366W        W42983   2.631  16.068   5.769  0.0553 -0.2136 -0.2709
27367W        W42984   8.548   3.893  11.575 -0.0534 -0.2383 -0.1285
27368W        W42985   8.102   8.757   1.376  0.0581  0.3327 -0.1925
27369W        W42986   1.829   1.818   2.937 -0.0874  0.0358  0.2148
27370W        W42987  12.251  15.329  11.876 -0.0657  0.0226 -0.1348
27371W        W42988   5.038   4.121  12.569  0.0232 -0.0729 -0.3853
27372W        W42989   1.141  10.431  16.545 -0.1556 -0.2342 -0.0060
27373W        W42990  10.759  10.967  13.193 -0.1413  0.0974  0.1921
27374W        W42991   3.297  14.885  16.300 -0.0383  0.0832 -0.1244
27375W        W42992   3.579   7.626   1.722 -0.4119 -0.1270 -0.0547
27376W        W42993  11.425   3.944   4.161  0.0452 -0.2812  0.0962
27377W        W42994  16.283   5.761   1.309 -0.0599  0.0414  0.1280
27378W        W42995   2.083  14.214   0.741 -0.0288  0.1966  0.0409
27379W        W42996  16.863  12.245   2.751  0.0108  0.1514 -0.2790
27380W        W42997  10.176   7.575  16.972 -0.0473  0.0349  0.0158
27381W        W42998   1.716   5.915  14.731  0.0772 -0.0185 -0.2654
27382W        W42999   3.270   1.672  13.777  0.0195 -0.1008 -0.1210
27383W        W43000   2.015  11.149   1.815  0.0864  0.0360 -0.0623
27384W        W43001   8.343  17.400   2.302  0.0686 -0.1325 -0.1133
27385W        W43002  14.934   4.345   1.778 -0.0478  0.1165  0.0319
27386W        W43003   2.493   9.801   0.082 -0.0293 -0.2231  0.0054
27387W        W43004   8.124  12.825   1.098 -0.1340 -0.3537 -0.0631
27388W        W43005   1.413   7.339  13.982 -0.1691 -0.1181  0.1636
27389W        W43006  14.456  11.845  13.311  0.0490 -0.1869 -0.1034
27390W        W43007  10.676   4.783   3.054  0.1876  0.1449 -0.1380
27391W        W43008   9.539  15.263   0.885  0.3624  0.0344  0.0014
27392W        W43009   4.013   4.693  16.411  0.3128 -0.2047 -0.0666
27393W        W43010   0.151  16.384  14.443  0.1289 -0.3043 -0.1119
27394W        W43011  13.328  13.671   5.295  0.1465  0.2952 -0.2402
27395W        W43012   4.187   7.341  14.913  0.0138 -0.2637 -0.0567
27396W        W43013  11.801   3.656   3.873 -0.1463  0.0150 -0.0692
27397W        W43014   8.226   3.037   3.031 -0.1060  0.0855 -0.0588
27398W        W43015   4.085   0.738   0.712  0.0167 -0.0450 -0.0578
27399W        W43016   5.900   5.128   2.208 -0.2862 -0.0237 -0.1384
27400W        W43017   4.852   8.304  16.777 -0.0172 -0.3343  0.2561
27401W        W43018  11.228   3.439  14.368  0.0248  0.0353 -0.6665
27402W        W43019  13.172  16.306  16.191 -0.1137 -0.0678 -0.2471
27403W        W43020   0.767  16.662   5.861  0.1829 -0.1096  0.1241
27404W        W43021   5.428   5.633   5.660 -0.0414  0.1518 -0.0594
27405W        W43022   6.924   5.437  17.187  0.1261  0.3097 -0.2425
27406W        W43023   8.695   7.158   3.235 -0.1402 -0.2745  0.1185
27407W        W43024  10.486   3.597  15.480 -0.1695 -0.1033  0.2761
27408W        W43025  14.920  17.491   4.382 -0.3089 -0.0445 -0.0455
27409W        W43026  13.536  12.949   1.272  0.3496 -0.2680  0.0674
27410W        W43027  10.963   8.371   4.809  0.0820 -0.0199  0.3768
27411W        W43028  14.776  16.667  14.168 -0.0171  0.1942  0.2982
27412W        W43029  17.076   0.819  15.563 -0.2066  0.0814  0.1325
27413W        W43030  10.361  11.112  14.200 -0.2323 -0.2310 -0.1944
27414W        W43031  16.423   0.026  14.033 -0.0011 -0.2568  0.2964
27415W        W43032   1.839   0.332  12.507 -0.1290 -0.2708 -0.0453
27416W        W43033  10.724  17.108  16.806  0.0173  0.1497  0.0488
27417W        W43034   7.754   9.989  13.612  0.0908  0.1067 -0.1383
27418W        W43035  12.281  12.919   4.413 -0.0874 -0.2445  0.3320
27419W        W43036  13.222   2.656   2.868  0.0957  0.0078 -0.3753
27420W        W43037  16.546   7.534  13.548 -0.0250  0.0145 -0.0250
27421W        W43038  13.368  10.922  14.045  0.0536 -0.0902 -0.2790
27422W        W43039   8.434  15.016   4.632 -0.3289  0.1163  0.1455
27423W        W43040  14.096  11.388   0.945  0.2465  0.3996 -0.2803
27424W        W43041  16.736  13.776  15.298  0.0855 -0.2082 -0.0962
27425W        W43042   9.927   1.257   4.268  0.4319 -0.2241 -0.1365
27426W        W43043   2.345  13.706   4.056 -0.1717  0.0688  0.4255
27427W        W43044   1.238  11.903   3.778 -0.3453  0.0841  0.0424
27428W        W43045  16.583   0.367  11.936  0.0031  0.0279  0.1013
27429W        W43046  10.680   6.511  14.104 -0.0080  0.1066 -0.0708
27430W        W43047   7.580   5.742   1.245 -0.1730 -0.0270  0.0495
27431W        W43048  10.218  12.449   3.403 -0.1410 -0.0523  0.3079
27432W        W43049   8.419  16.034  15.271 -0.0787 -0.0180  0.2175
27433W        W43050   5.342   5.648  16.605 -0.0251 -0.2663 -0.2629
27434W        W43051   8.655  15.397  11.259  0.0902  0.2746 -0.0227
27435W        W43052   3.615  15.326  15.630  0.1647  0.1459 -0.3072
27436W        W43053  13.051   9.648   3.667 -0.0393 -0.1866 -0.0351
27437W        W43054   2.239   7.769  12.355 -0.0162  0.1132 -0.1331
27438W        W43055   0.815  11.581   5.840  0.0240 -0.0382 -0.1054
27439W        W43056   6.073   3.631   2.998 -0.1721 -0.1926 -0.1835
27440W        W43057  10.882   0.563   1.361  0.1849  0.0073  0.0936
27441W        W43058  17.097  13.197   0.629 -0.1954  0.0895  0.3860
27442W        W43059   5.377   0.722  12.820 -0.1775 -0.0370 -0.1350
27443W        W43060  12.295   0.438  16.101  0.0793  0.3437  0.1611
27444W        W43061   8.369  13.987   0.434  0.1213  0.0770 -0.1964
27445W        W43062  13.075  11.037   0.191  0.1234 -0.0931  0.2619
27446W        W43063   7.985   2.769  14.155 -0.0040 -0.1702 -0.4741
27447W        W43064   6.737  16.717  13.404 -0.0931  0.0802  0.1254
27448W        W43065  17.153   1.383  16.869  0.3023 -0.2752  0.3878
27449W        W43066   2.933   8.817   1.757 -0.3289  0.2089  0.0168
27450W        W43067   8.181   3.193  17.088 -0.2223 -0.0235 -0.0821
27451W        W43068   6.793   2.430  13.211  0.1634  0.0890 -0.0510
27452W        W43069   2.756  12.123   6.905  0.0028 -0.4138 -0.1152
27453W        W43070   7.124  16.431  15.237  0.1165  0.1317 -0.2589
27454W        W43071   6.503   5.171  12.965 -0.1035  0.1274  0.0139
27455W        W43072   2.919  12.144  15.625 -0.1208 -0.0574  0.2256
27456W        W43073  12.429   4.342  16.730  0.0530  0.0971 -0.1859
27457W        W43074  16.175   9.078  12.331  0.0831  0.1143 -0.2726
27458W        W43075   5.757   4.301   4.752 -0.2308 -0.1321  0.1587
27459W        W43076  14.484  13.780   2.839  0.4760  0.1173 -0.1540
27460W        W43077   7.026  14.024  17.021 -0.0742 -0.1258 -0.0426
27461W        W43078  11.317   7.112   0.302  0.3102 -0.0116  0.1466
27462W        W43079  11.557  15.195   1.865 -0.1044  0.0359  0.0060
27463W        W43080   6.792  16.507   5.367  0.0812 -0.0873 -0.2148
27464W        W43081   6.781   8.833  14.451  0.3094 -0.0289 -0.1537
27465W        W43082  14.703  15.349   3.784  0.0511  0.0641 -0.1719
27466W        W43083   4.485  11.507  14.124 -0.1230  0.1887 -0.3792
27467W        W43084   3.920   5.636  16.313  0.2212  0.0679  0.1816
27468W        W43085  10.702   5.887   1.677 -0.1459 -0.2815  0.0596
27469W        W43086   8.349   9.456   4.001  0.0567  0.0567  0.1445
27470W        W43087   8.835  13.994  14.372 -0.1485  0.2350 -0.1791
27471W        W43088  16.513  14.999  12.643  0.2279  0.0488  0.0315
27472W        W43089   0.517  11.018  16.739  0.1655 -0.0529 -0.1302
27473W        W43090   6.951  15.639  14.222  0.0715 -0.5305 -0.0635
27474W        W43091  10.571  15.866  10.973  0.2240  0.0084  0.2717
27475W        W43092   7.205   8.720   0.758 -0.0064  0.3150 -0.1163
27476W        W43093  11.672   5.660  17.011 -0.3355 -0.1997  0.0802
27477W        W43094  13.417   5.854   3.476  0.1150 -0.1086 -0.0676
27478W        W43095  11.730   6.386   6.492  0.0686 -0.1097 -0.0265
27479W        W43096  11.547   9.782   3.030 -0.2192 -0.0381  0.1029
27480W        W43097   9.663  10.536   1.309  0.0259 -0.1966 -0.0875
27481W        W43098   7.059  17.232   4.740  0.0797  0.0694  0.1974
27482W        W43099  12.038   9.182  12.651  0.2651  0.2676 -0.2106
27483W        W43100   5.008  11.440   3.348 -0.2258 -0.1454 -0.2659
27484W        W43101  11.249   2.166  12.804 -0.0752  0.1939  0.2067
27485W        W43102   1.237  13.615   0.915  0.0150  0.2446 -0.1759
27486W        W43103  10.889   2.890  10.988  0.2041 -0.1829 -0.1771
27487W        W43104   1.257   7.742   3.490  0.2058 -0.4608  0.0499
27488W        W43105  12.985  10.565   4.093 -0.3677 -0.1337  0.0452
27489W        W43106   8.661  10.701   0.228 -0.0697  0.2182  0.1811
27490W        W43107   0.239  13.831  13.181 -0.0323  0.1019  0.2901
27491W        W43108   0.905   9.546   0.231  0.0964  0.1403  0.0864
27492W        W43109  17.586  10.173  15.046 -0.3132 -0.0326 -0.1327
27493W        W43110  17.301   2.127  14.495 -0.0802  0.0655 -0.0402
27494W        W43111   9.340  13.560   1.410  0.0144 -0.0608 -0.1432
27495W        W43112   1.731   9.481   2.865  0.1422 -0.1180  0.0555
27496W        W43113   2.856  13.994   0.943  0.3631  0.4461 -0.1573
27497W        W43114  10.053  12.690  14.353 -0.0412  0.1349  0.1728
27498W        W43115   2.813   3.977   2.573  0.3345 -0.0251  0.4100
27499W        W43116  15.988   9.579   0.218 -0.0302  0.0859 -0.3270
27500W        W43117   3.134   9.610  14.852  0.1257 -0.1406  0.2261
27501W        W43118   8.291   1.557   1.106  0.2339  0.2669 -0.1287
27502W        W43119   8.441  10.398  15.685 -0.1602 -0.1285  0.0580
27503W        W43120  14.359   3.201  15.285 -0.0806 -0.1229 -0.0932
27504W        W43121  16.713  14.945   0.992 -0.0105 -0.0995  0.0052
27505W        W43122  10.370  10.957   1.013  0.2389  0.1781  0.0274
27506W        W43123   9.602  14.503  14.105  0.0757  0.1634 -0.0195
27507W        W43124   7.710   7.791  14.187  0.0637 -0.0393  0.2500
27508W        W43125   1.532   6.690   2.136 -0.1013 -0.1924  0.2493
27509W        W43126   9.298  17.443   4.698  0.0284 -0.0609 -0.0028
27510W        W43127   4.865  16.040  16.074  0.2429 -0.2601  0.1137
27511W        W43128   2.508  14.837   2.839 -0.3277 -0.0551 -0.2354
27512W        W43129  17.057   3.918   4.915 -0.2105 -0.0753  0.1559
27513W        W43130  16.034   6.696  13.845 -0.0468 -0.1469 -0.2062
27514W        W43131  15.645   3.675   2.282 -0.2050 -0.0886  0.1881
27515W        W43132   8.626   3.307   4.008  0.1991  0.2619 -0.1910
27516W        W43133   5.050   7.141   5.222 -0.1830  0.0866  0.1955
27517W        W43134  15.726   9.354  13.174  0.1357 -0.0995  0.0619
27518W        W43135  16.399   4.947   4.636  0.1824  0.1121  0.0185
27519W        W43136  15.703   3.868   5.137  0.0837  0.1051  0.0110
27520W        W43137  14.340  16.327  16.847 -0.0060 -0.0960  0.0072
27521W        W43138   8.644   5.864  12.256  0.1267 -0.0050 -0.0378
27522W        W43139   8.266   7.260   0.648 -0.0990  0.0803 -0.0775
27523W        W43140   5.171   0.755  16.789  0.0823 -0.0036 -0.0388
27524W        W43141  13.104   0.468  13.486 -0.0026 -0.0808  0.0867
27525W        W43142  13.002  12.701   4.110  0.2923 -0.0946  0.0287
27526W        W43143   0.462  17.026  11.941  0.0951 -0.1557  0.1768
27527W        W43144   4.444   2.840  12.588 -0.0823  0.0571  0.2087
27528W        W43145  11.410   4.835  15.748  0.1891 -0.1725 -0.0806
27529W        W43146   2.444  16.547   3.841 -0.0613 -0.1558  0.0372
27530W        W43147  13.979  15.908  13.218  0.0805 -0.0447  0.3759
27531W        W43148  12.709   2.636   0.262 -0.0283  0.1988  0.0554
27532W        W43149   1.929   7.464  16.472  0.1777  0.2201  0.1458
27533W        W43150  11.351   6.672  15.416 -0.0829 -0.2995 -0.0925
27534W        W43151   6.974   0.817  14.052  0.2801 -0.1179 -0.3509
27535W        W43152   2.001   0.385  13.955 -0.2227  0.3970  0.3087
27536W        W43153  17.281   8.754  13.100 -0.0172 -0.0875  0.1368
27537W        W43154   6.435  15.482  15.131  0.0866 -0.1386 -0.0276
27538W        W43155  15.762  12.696   4.386  0.1722  0.0148 -0.2524
27539W        W43156  13.719   7.407   4.008 -0.1564 -0.2245  0.0253
27540W        W43157  10.367   2.483  13.084  0.3023 -0.1400  0.0334
27541W        W43158   3.655  13.003  14.577  0.1248 -0.0234 -0.0619
27542W        W43159  12.906   4.237  15.514 -0.3820 -0.1233 -0.0487
27543W        W43160   1.828   0.503  15.782  0.0297  0.0946  0.0495
27544W        W43161  15.734   4.346   3.272 -0.1411  0.2093  0.1430
27545W        W43162  14.738  13.441  16.623  0.1853  0.0398 -0.3081
27546W        W43163  13.306  15.738   1.300 -0.0908 -0.1663 -0.0829
27547W        W43164   4.845   6.702  15.083 -0.0239  0.1421  0.1770
27548W        W43165  16.567   7.301   2.818  0.0255  0.2505 -0.1512
27549W        W43166   5.440   3.001   5.081 -0.0294  0.1628  0.2063
27550W        W43167  16.527   2.095  16.211  0.0761  0.1278  0.0021
27551W        W43168   5.133  12.315   1.951  0.0503  0.1391 -0.0853
27552W        W43169   0.692   8.555   2.603  0.1073 -0.0653  0.1816
27553W        W43170   0.187  16.294  11.182  0.0086  0.2324  0.0863
27554W        W43171  17.411  15.855   2.453  0.0396 -0.0256  0.0054
27555W        W43172   1.013   7.854   0.016  0.0748  0.0454  0.0104
27556W        W43173   3.082   8.116   2.889 -0.0198  0.1110 -0.1611
27557W        W43174  10.980   0.329   5.355 -0.0897  0.0366  0.0073
27558W        W43175   7.412  16.716   2.180  0.1406  0.4576  0.1071
27559W        W43176   4.476   1.060   0.840  0.0319  0.0785  0.1458
27560W        W43177   2.436   0.881   6.111  0.0386  0.2430 -0.2021
27561W        W43178  15.979  11.537  16.026  0.1467 -0.1048 -0.0049
27562W        W43179  15.632   6.012   2.945 -0.2727  0.1286 -0.3528
27563W        W43180  13.355   8.124   1.145 -0.2675 -0.0364 -0.4278
27564W        W43181  12.384   4.765  16.283  0.0387 -0.1796  0.1079
27565W        W43182   4.535   5.111  16.873 -0.0110  0.1182 -0.0018
27566W        W43183  17.186   0.846   5.346 -0.1105 -0.1652  0.0852
27567W        W43184   4.381  15.919  16.015 -0.0292  0.1197 -0.0656
27568W        W43185   6.289   2.704   5.226  0.1291  0.1792  0.1254
27569W        W43186   5.928  13.276   1.238  0.4087  0.1038 -0.0807
27570W        W43187  10.373   2.544  15.736  0.1760 -0.0409  0.2635
27571W        W43188  17.183   6.850  17.052 -0.2610  0.2378  0.0352
27572W        W43189  16.550   7.695  16.423  0.1977 -0.0076  0.0490
27573W        W43190   5.124   2.450   0.943 -0.0094 -0.1969 -0.0195
27574W        W43191   1.117  12.250  16.554  0.2180 -0.0271  0.1303
27575W        W43192   7.332   4.239   4.378  0.0014  0.1307  0.1818
27576W        W43193  16.800  15.745   1.307  0.0623 -0.2519 -0.1991
27577W        W43194  12.070   6.675  15.142  0.0003 -0.4161  0.1144
27578W        W43195   9.003  15.295  14.024  0.1233  0.1263 -0.1779
27579W        W43196  11.868   4.613   5.865 -0.3222 -0.1432 -0.1368
27580W        W43197  13.718  14.127  16.818  0.2296 -0.1632 -0.0585
27581W        W43198   9.522  16.289  15.373 -0.1892 -0.0448  0.0376
27582W        W43199   2.872   7.460  13.391  0.4316  0.0155  0.4577
27583W        W43200   6.903   3.273  13.280 -0.1248 -0.0854  0.1319
27584W        W43201   6.077   0.398   1.361  0.1180  0.1214  0.2366
27585W        W43202   1.164   6.328   2.588  0.2870  0.2585 -0.0002
27586W        W43203   4.184  11.285   4.668 -0.0621  0.1973 -0.0861
27587W        W43204   8.198   8.425  12.476  0.0052 -0.0393 -0.0888
27588W        W43205   8.845  11.713  13.926 -0.1257 -0.1832  0.0511
27589W        W43206   8.562  12.055   0.149 -0.0193 -0.0437 -0.1673
27590W        W43207   5.637   0.648  16.128 -0.0630  0.1350  0.0794
27591W        W43208   6.782  13.757  11.888 -0.1691 -0.2736  0.3217
27592W        W43209  15.860  10.818   5.134  0.0918  0.2735  0.2554
27593W        W43210   1.864   0.575   0.264 -0.1485 -0.4740  0.0630
27594W        W43211  15.600   5.213  16.374  0.2084 -0.0744 -0.2818
27595W        W43212  14.712  15.852  14.918 -0.0853  0.0315 -0.1959
27596W        W43213   8.506   8.186  15.069 -0.2559  0.1484 -0.0205
27597W        W43214   4.543   8.859   3.846  0.1183  0.2740  0.3527
27598W        W43215  12.353   4.113  16.176 -0.0997 -0.4259  0.0880
27599W        W43216   0.590  15.708   2.456 -0.3353 -0.1574 -0.0519
27600W        W43217   5.266  12.878   0.793  0.1275  0.0088  0.0196
27601W        W43218   4.700   5.168   0.353 -0.1332 -0.0695  0.1192
27602W        W43219  14.265   7.479   4.415  0.1121 -0.0709  0.0107
27603W        W43220  12.417   6.643  11.409  0.3205  0.3079  0.1010
27604W        W43221   7.974   3.812  15.990 -0.1051  0.2482 -0.2070
27605W        W43222   9.146   4.339   0.719  0.0894 -0.0014  0.0549
27606W        W43223  12.660  13.378   5.254  0.1724  0.0522 -0.1834
27607W        W43224   5.984   0.426   2.678 -0.2639  0.3359  0.1433
27608W        W43225   8.823   3.399   4.783  0.3002 -0.3557 -0.1589
27609W        W43226   0.223  13.033  15.727 -0.1827  0.2423  0.2224
27610W        W43227   4.190   5.905  12.743 -0.2282 -0.0302  0.2474
27611W        W43228   6.380   9.369   4.745 -0.0663  0.1943 -0.0935
27612W        W43229  11.206   6.774  11.587 -0.0538 -0.0232 -0.1337
27613W        W43230  15.927   4.517   5.951 -0.2570  0.0880 -0.0122
27614W        W43231   2.516   0.118   5.255  0.0674 -0.3021 -0.0626
27615W        W43232  16.938   6.652  15.081  0.2401  0.2182 -0.1380
27616W        W43233   6.529  16.811   6.336 -0.0260  0.0064 -0.5131
27617W        W43234   8.652   5.468   3.257  0.1865 -0.2602  0.2238
27618W        W43235  11.913   2.660  16.403  0.0005 -0.3020 -0.4138
27619W        W43236   1.640   8.719   3.185  0.1246 -0.3217  0.0944
27620W        W43237  12.096   4.235  12.020 -0.5660  0.1935 -0.1630
27621W        W43238   0.830   1.299  15.179 -0.0498  0.0958  0.0339
27622W        W43239   5.198   1.340   5.294  0.1316  0.0647 -0.0216
27623W        W43240  12.757   5.979   1.655 -0.1627  0.2953  0.4832
27624W        W43241   0.585  17.291   1.228 -0.0234 -0.1393  0.0970
27625W        W43242   1.984   9.779   1.058  0.1622  0.0116  0.0673
27626W        W43243  12.150   4.040   1.596 -0.1615  0.1579 -0.0734
27627W        W43244  12.385  16.473   3.584  0.4618 -0.4114  0.0474
27628W        W43245   1.209  12.029   1.885  0.2084  0.2976 -0.2115
27629W        W43246  14.915  12.063   0.419 -0.0901 -0.1631 -0.0510
27630W        W43247  11.816  10.925   3.888 -0.3125 -0.2532 -0.1677
27631W        W43248  13.470   3.419  16.220  0.1600 -0.0329 -0.2219
27632W        W43249   4.465   7.374   1.692  0.1972  0.1530 -0.0514
27633W        W43250   8.657   9.119   2.815 -0.3192 -0.1448  0.0632
27634W        W43251  14.405  12.629  15.128 -0.0644 -0.0974 -0.2349
27635W        W43252   1.728  16.669   2.088 -0.1090  0.0100 -0.0133
27636W        W43253   5.354  17.471   4.753  0.0187  0.1269 -0.0214
27637W        W43254  10.433  15.410  15.538 -0.1801 -0.0169 -0.1028
27638W        W43255   4.700  14.369   5.412 -0.0897 -0.2523  0.0170
27639W        W43256  15.832   7.810  12.450  0.4431  0.1307 -0.0055
27640W        W43257  15.059  11.334  15.552 -0.0649 -0.0115  0.1678
27641W        W43258  16.580  16.254   2.456 -0.1551  0.0824  0.0957
27642W        W43259  14.298   3.976  16.017 -0.2853  0.4187 -0.1205
27643W        W43260   9.919   9.413  11.892  0.1974  0.0100  0.1772
27644W        W43261  14.069   4.521   1.724 -0.0001  0.1841 -0.1223
27645W        W43262  14.999   7.859   3.838  0.0501  0.0260 -0.0136
27646W        W43263  15.137  13.651  12.145  0.0565 -0.1498  0.1704
27647W        W43264   3.796  13.966   3.495  0.1591  0.1564  0.1852
27648W        W43265   6.698   5.978   1.210 -0.4732  0.0674  0.2137
27649W        W43266   7.180   4.209   1.347  0.0596  0.0202  0.0650
27650W        W43267  11.243   1.718  16.511 -0.0464 -0.0604  0.2518
27651W        W43268   1.902   9.321  12.457 -0.0339 -0.0216  0.2361
27652W        W43269   7.744   9.784  14.748 -0.0799 -0.0293  0.3131
27653W        W43270   1.775   6.261   4.343 -0.0287 -0.1542  0.0244
27654W        W43271   9.426  17.228   4.094 -0.1839 -0.1666  0.1895
27655W        W43272   9.207   8.542  12.462 -0.1902 -0.2066 -0.1841
27656W        W43273   5.154   8.649  13.783  0.0834  0.0287 -0.1350
27657W        W43274   3.425   9.704   2.615 -0.1495 -0.0513 -0.1392
27658W        W43275  15.691   4.968  16.831  0.2958 -0.0126 -0.0429
27659W        W43276   8.674  11.871  16.583  0.1085 -0.0877  0.1634
27660W        W43277  13.407   3.055   3.255 -0.1063  0.0268  0.0516
27661W        W43278  16.407   6.030  12.520 -0.2006 -0.0331 -0.1594
27662W        W43279   1.041   8.676   1.568  0.2943  0.2661  0.1384
27663W        W43280  16.187  17.609  11.839  0.0504 -0.0521 -0.2683
27664W        W43281  17.384  11.061   1.872  0.0720  0.0179 -0.0412
27665W        W43282   2.862   5.501   1.717 -0.1465 -0.2240 -0.0626
27666W        W43283   9.351  14.552  11.149  0.0220  0.0730  0.4373
27667W        W43284   8.049   3.228  11.619 -0.3178 -0.0546  0.1382
27668W        W43285  12.237  13.205   2.994 -0.1273 -0.1491  0.2936
27669W        W43286   7.556  14.980  13.461 -0.0469 -0.1935 -0.2262
27670W        W43287  15.771  14.316  13.004 -0.0727  0.0829 -0.2548
27671W        W43288  13.471  14.233   4.057  0.0358 -0.0291 -0.0314
27672W        W43289  16.625  10.233   3.873  0.0564  0.1164  0.0558
27673W        W43290  10.878   2.333  13.205  0.0483 -0.0949  0.0358
27674W        W43291  16.108   4.793   3.309  0.2829 -0.2010 -0.0460
27675W        W43292  14.172   9.924   6.366 -0.3590 -0.0312 -0.1453
27676W        W43293   9.633   6.370  12.550 -0.1605  0.2764  0.3003
27677W        W43294   4.395   1.416  17.216  0.0211  0.1103 -0.1379
27678W        W43295   6.822   3.158   3.445  0.3359 -0.0993 -0.2723
27679W        W43296  11.751  12.370  16.872 -0.2604 -0.0356 -0.1224
27680W        W43297  17.236   3.697   0.335 -0.3411  0.4359 -0.1028
27681W        W43298   2.438   5.110   0.522  0.2265 -0.0888 -0.1993
27682W        W43299   8.935   3.757   1.885  0.1538  0.3041  0.0136
27683W        W43300  10.579  14.569  12.284 -0.2343  0.0933 -0.0250
27684W        W43301   4.887   5.885  12.722 -0.1092 -0.0984  0.0709
27685W        W43302   3.321   1.135   2.358  0.1803 -0.1629 -0.0588
27686W        W43303   3.446   1.007   5.668  0.0666 -0.1332 -0.2600
27687W        W43304   5.959   9.326   1.478  0.5318 -0.0556 -0.0790
27688W        W43305   8.567  15.864   3.239  0.1678  0.0426 -0.0151
27689W        W43306  16.729  17.492   4.125 -0.0274  0.0500  0.3128
27690W        W43307   3.664  13.189   2.190  0.1381 -0.2701 -0.0842
27691W        W43308  15.763   1.132   1.905  0.0421  0.1971  0.0645
27692W        W43309  11.407   9.808   0.993  0.2471  0.0059  0.1253
27693W        W43310   7.447  10.854  14.626 -0.0947  0.1106 -0.1383
27694W        W43311   7.980   9.062  12.863 -0.0969  0.2336  0.3776
27695W        W43312   2.309   0.386   6.119 -0.0298  0.4776  0.1372
27696W        W43313   1.594  12.222  12.301  0.0830  0.1723  0.1107
27697W        W43314  12.004  12.038  16.175  0.1017  0.2325  0.2346
27698W        W43315  17.299   9.542   0.742  0.0677  0.1160  0.0789
27699W        W43316   4.978  12.316  16.242  0.1410  0.0112  0.1077
27700W        W43317   4.749  14.510  15.241 -0.1019  0.0172 -0.2135
27701W        W43318   2.201   1.876   3.807  0.1428 -0.0660 -0.0096
27702W        W43319  12.167   2.265  13.266  0.3196  0.0061  0.1650
27703W        W43320   8.178   1.248  13.429 -0.1352 -0.0581 -0.0851
27704W        W43321   7.756  14.763  12.639  0.0920 -0.1159  0.2915
27705W        W43322  16.788   6.353   2.051  0.0526 -0.0509  0.0155
27706W        W43323   3.435   2.635  12.555  0.1844 -0.0626  0.0559
27707W        W43324   7.856   2.688   4.038 -0.0050 -0.0111 -0.0506
27708W        W43325  17.260   7.122  12.542 -0.0611 -0.0143  0.0596
27709W        W43326  15.058   0.270  12.944  0.2266 -0.0967  0.0072
27710W        W43327   5.908  14.200   6.149  0.1536  0.2117  0.2724
27711W        W43328   9.870   7.345  16.059 -0.0946  0.3330  0.0814
27712W        W43329   1.703   6.415   2.532 -0.0585  0.1459 -0.0484
27713W        W43330   5.708   4.114   1.737 -0.2734 -0.0821 -0.1797
27714W        W43331   3.876  11.403   2.478  0.0350  0.0377  0.0064
27715W        W43332   3.332   4.029   3.755  0.3247  0.3236  0.0324
27716W        W43333  10.434   1.376   2.120 -0.0225 -0.1124  0.1826
27717W        W43334   4.870   2.198   2.155  0.0510  0.2587  0.3648
27718W        W43335   7.566   7.434   2.725  0.0774 -0.3227  0.1089
27719W        W43336   1.676   7.249   0.305  0.2023 -0.0294 -0.0536
27720W        W43337  14.683  16.390  17.196  0.2868  0.1868  0.1018
27721W        W43338   3.561   3.982  16.678 -0.0994 -0.0613  0.2718
27722W        W43339  10.391   3.122  11.557  0.0382  0.0406 -0.1721
27723W        W43340   5.930   9.170   0.930  0.3246 -0.1031  0.0419
27724W        W43341  13.593  14.071   0.742 -0.2037  0.2294 -0.3025
27725W        W43342  10.651   8.573  16.717  0.2041  0.0789 -0.1483
27726W        W43343   7.996  15.075  16.111 -0.2484  0.0711 -0.0993
27727W        W43344   3.468  12.193  15.345  0.1953  0.1500  0.0808
27728W        W43345   9.042  16.203  13.862  0.2576  0.1694 -0.0539
27729W        W43346   8.344   0.400  14.037  0.2001  0.1992  0.1935
27730W        W43347  11.827   2.304   5.292 -0.0048  0.0352  0.2323
27731W        W43348  15.848  16.214  15.505 -0.0034 -0.2123  0.1068
27732W        W43349   5.528   5.375   3.711 -0.1470 -0.0912  0.0084
27733W        W43350   4.280  16.441   2.986 -0.0863  0.1258  0.4433
27734W        W43351  15.723   1.971  17.023 -0.1031  0.1983 -0.1852
27735W        W43352   5.663  14.845   1.851  0.1334 -0.1071 -0.0979
27736W        W43353  16.533   2.952  16.737 -0.3042 -0.0721  0.1511
27737W        W43354   9.244   7.854   0.223  0.1164  0.0870 -0.0494
27738W        W43355  14.287  11.432   3.657 -0.1107  0.1982 -0.0838
27739W        W43356   2.340   8.687   3.882  0.1360 -0.0791 -0.0798
27740W        W43357   9.796  13.901   0.696 -0.1132 -0.3603  0.1362
27741W        W43358  16.940   1.033  13.325  0.0012  0.4488 -0.1143
27742W        W43359  10.015  12.854  12.223 -0.1306 -0.2411 -0.2101
27743W        W43360  15.606  16.320   2.476 -0.1773  0.1212 -0.1570
27744W        W43361  15.020   3.117   0.171 -0.0067 -0.2507 -0.1021
27745W        W43362  15.629   8.590   6.674 -0.1808 -0.1263 -0.2057
27746W        W43363   6.317   9.913   0.653 -0.0809  0.3947  0.0527
27747W        W43364  12.008   9.176   4.557  0.3646 -0.2317 -0.1070
27748W        W43365   5.481   7.187  16.872 -0.0101  0.3370 -0.1517
27749W        W43366  16.100   4.139   4.495 -0.2079  0.1393 -0.1660
27750W        W43367   4.682  11.838   3.135  0.2116 -0.2777 -0.2977
27751W        W43368  11.439  17.032  15.733 -0.0659 -0.2891  0.1724
27752W        W43369   1.859   9.922  17.001 -0.3749 -0.1483 -0.2813
27753W        W43370   5.827  13.856   3.225 -0.1875  0.0035  0.1626
27754W        W43371  13.469  16.957   0.783 -0.1089  0.1896 -0.1906
27755W        W43372   4.549  12.445  11.868  0.1855 -0.1146  0.0389
27756W        W43373  13.830  13.043   0.895 -0.2052 -0.3171 -0.2282
27757W        W43374  12.139   1.891   4.110  0.1039  0.2399 -0.1942
27758W        W43375   4.286   2.937  13.046  0.0967 -0.3206  0.3797
27759W        W43376  15.576  17.464  11.309 -0.0616 -0.1876  0.1760
27760W        W43377   0.517   9.492  12.529 -0.0435 -0.0793 -0.2686
27761W        W43378   5.394  10.070  16.374  0.0831 -0.2968 -0.0450
27762W        W43379   7.694  15.399  16.456 -0.0996  0.2023  0.2171
27763W        W43380  13.093   8.312   5.954  0.4593  0.0017  0.1449
27764W        W43381   8.163   1.142   1.334  0.1704  0.0778  0.0510
27765W        W43382   1.865  16.196   3.459 -0.2207  0.0178 -0.1895
27766W        W43383   8.032   9.718  14.027 -0.0916  0.0021  0.0036
27767W        W43384  11.932   7.119   5.697 -0.2482 -0.3389  0.1131
27768W        W43385   4.459  14.947   0.794  0.2364  0.1774  0.0031
27769W        W43386  12.521  10.840   1.899 -0.1122 -0.0219 -0.0325
27770W        W43387   0.294   8.033   4.136  0.0148 -0.0008 -0.1578
27771W        W43388   0.735   9.041  12.207 -0.1988  0.0005 -0.2335
27772W        W43389   4.310   6.041   6.019  0.1605 -0.0793  0.2286
27773W        W43390  12.072   1.656   5.249 -0.0414 -0.1778  0.2797
27774W        W43391  16.873  13.242  15.394  0.1089  0.0726 -0.0243
27775W        W43392   0.965  16.317   0.289  0.1416  0.3363  0.3330
27776W        W43393   8.026   5.666   2.128  0.1405 -0.4383  0.0060
27777W        W43394   6.989   8.487   3.898  0.0984  0.3725  0.0159
27778W        W43395  12.440  16.851  16.430 -0.0660 -0.0134 -0.0610
27779W        W43396   4.368   3.106   5.129 -0.1044  0.0723 -0.0128
27780W        W43397   7.088  13.967   1.293  0.0594 -0.2061 -0.3626
27781W        W43398   0.944  15.851   4.635  0.0258  0.1980 -0.0017
27782W        W43399   5.241   9.960   4.174  0.1887  0.0464  0.1446
27783W        W43400   4.833   8.843   3.452 -0.0727 -0.1332  0.1797
27784W        W43401   5.661   0.640   5.251  0.1223  0.1917 -0.3556
27785W        W43402   9.143  10.611  13.792  0.2139 -0.0088  0.3107
27786W        W43403   3.383  15.372  15.097 -0.2978  0.1971  0.3122
27787W        W43404  11.874  12.582  15.568 -0.1765  0.0606  0.0419
27788W        W43405   6.079  13.205  14.406  0.1810  0.0909  0.5126
27789W        W43406   0.400  15.011   1.847  0.1115 -0.2375  0.0549
27790W        W43407  17.523   9.080   5.918 -0.0166  0.0681 -0.0634
27791W        W43408   9.692  15.062   2.900 -0.1085 -0.3572 -0.0720
27792W        W43409   8.924   8.061  12.134 -0.1400 -0.0548 -0.0525
27793W        W43410   0.200   2.952  12.348  0.0878  0.4680  0.0350
27794W        W43411  11.957   6.105  14.411  0.0379  0.2175  0.2461
27795W        W43412  14.090  14.445  12.525 -0.0245  0.2214 -0.0006
27796W        W43413   6.410   5.833  15.162  0.0110 -0.2924 -0.1860
27797W        W43414   3.586   5.344   0.637 -0.1117  0.0510  0.0240
27798W        W43415   2.740   4.322   2.188  0.0473 -0.0319  0.1121
27799W        W43416   3.920   7.258   2.573 -0.0763 -0.1403  0.0483
27800W        W43417   5.356   0.761   3.218  0.0510 -0.1649  0.1663
27801W        W43418   6.365  15.916  13.794 -0.2982 -0.3107 -0.0896
27802W        W43419  15.536   5.502  12.670  0.1523  0.0517  0.0240
27803W        W43420   5.721   0.816   2.844  0.2004  0.0135 -0.3569
27804W        W43421   0.573  13.844  13.998  0.0486 -0.3098 -0.0403
27805W        W43422   5.574   8.869  13.878  0.1619 -0.0996 -0.2616
27806W        W43423  11.504  17.252  11.147 -0.0032  0.1330  0.0813
27807W        W43424  16.049   5.053   6.084 -0.0735 -0.1696 -0.1333
27808W        W43425  12.906   9.754  14.686  0.0512 -0.1564  0.0891
27809W        W43426   7.625   0.700  13.385 -0.2924  0.1482 -0.0559
27810W        W43427  14.680  11.282   6.516  0.2269 -0.1962  0.1076
27811W        W43428   3.164  14.467   2.233  0.1837 -0.0889 -0.1818
27812W        W43429  15.685  17.016   1.532  0.2794  0.0045  0.1387
27813W        W43430  10.291   8.347  16.383  0.0756 -0.0347  0.0936
27814W        W43431   2.111   0.574   2.219 -0.2059 -0.0767  0.1769
27815W        W43432  16.368  16.332   3.501  0.0468  0.2764 -0.0982
27816W        W43433   0.133   2.661   1.418  0.0727 -0.0897  0.1889
27817W        W43434  16.090   9.155  14.419 -0.0008 -0.4748  0.0089
27818W        W43435   7.433   4.251   1.820 -0.2198  0.1946 -0.2582
27819W        W43436   1.035   1.483   1.132 -0.0156 -0.1252 -0.0737
27820W        W43437  13.977  12.220  17.289 -0.2104 -0.0839 -0.2393
27821W        W43438   4.731   7.515   3.128  0.2751 -0.1165 -0.2742
27822W        W43439  16.449   1.283   4.820  0.2165 -0.1618  0.1226
27823W        W43440   2.960   2.969  16.851 -0.2618  0.0106  0.2897
27824W        W43441   0.564  12.656   1.628  0.1804 -0.1786 -0.1797
27825W        W43442   8.993   4.289   3.153  0.0167 -0.1567 -0.0021
27826W        W43443   1.123  16.083   3.080  0.1944 -0.0937  0.3857
27827W        W43444  11.374  16.353   4.399 -0.0408  0.1753  0.0928
27828W        W43445   9.653   8.571  11.272  0.1338  0.2291  0.3001
27829W        W43446   0.390   1.225   5.270  0.1072  0.1502  0.3817
27830W        W43447  12.142  10.694   5.380  0.0377 -0.0973 -0.0991
27831W        W43448   6.822  15.590  13.143 -0.1193 -0.0142  0.0782
27832W        W43449   6.830   4.661  15.935 -0.4839 -0.0746  0.1352
27833W        W43450   2.237   1.233  11.506  0.1028  0.1349  0.0728
27834W        W43451   6.744  15.660  16.970  0.2957  0.0216  0.1345
27835W        W43452   9.166  14.393   2.177 -0.1348  0.0209 -0.1336
27836W        W43453   8.234  12.833   3.052 -0.0312  0.3116 -0.0219
27837W        W43454   1.135  10.825  12.385 -0.1172 -0.0776 -0.1625
27838W        W43455   0.264  14.638   1.506 -0.1358 -0.1431 -0.1751
27839W        W43456   0.565   5.438  13.672  0.2008  0.0789  0.0343
27840W        W43457   1.000  13.078  15.436 -0.1674  0.3497  0.0595
27841W        W43458  12.411  13.539   4.813  0.1587 -0.2132 -0.0220
27842W        W43459   1.024   1.274  16.666 -0.1768 -0.0185 -0.0190
27843W        W43460   4.463   5.963  15.076  0.3810  0.0723  0.1678
27844W        W43461  14.583  16.563  15.518 -0.0988  0.2127  0.0558
27845W        W43462   8.336   3.362   1.875  0.1773  0.0206 -0.3341
27846W        W43463   8.778  15.190   4.141  0.1290  0.2919 -0.2475
27847W        W43464  10.406  12.224   4.588 -0.2197 -0.0477  0.2077
27848W        W43465   4.346  15.312  15.356 -0.0168  0.0133  0.3118
27849W        W43466  12.875   9.714   4.659 -0.3150  0.0160  0.0923
27850W        W43467  13.716   5.608   3.154 -0.0340  0.1181  0.1629
27851W        W43468   0.037   8.990   4.799 -0.2735  0.1122  0.1201
27852W        W43469   6.928  13.193  13.729 -0.0835 -0.1783  0.0131
27853W        W43470  17.313  15.481  15.424  0.2294 -0.1165  0.0329
27854W        W43471  17.579   1.648   0.254  0.2264  0.2466  0.1285
27855W        W43472   1.843  14.490   6.194  0.0868  0.0631 -0.1686
27856W        W43473  13.059   7.993   3.616  0.2568 -0.0194  0.0775
27857W        W43474   8.600   3.078   1.512 -0.0737 -0.0567 -0.1250
27858W        W43475  13.654  10.045   4.858 -0.0372 -0.0559  0.2483
27859W        W43476  11.465   5.278   5.270 -0.1211  0.0412  0.0454
27860W        W43477  14.701   0.315  16.514  0.2608 -0.0421  0.1491
27861W        W43478   6.959  14.964   0.759 -0.3104 -0.0715  0.1749
27862W        W43479  15.182  16.746  11.974  0.3394 -0.1885  0.0988
27863W        W43480   4.838   9.878   5.566 -0.0982  0.2524 -0.2609
27864W        W43481  16.609   6.050  16.965 -0.0353  0.1480 -0.1303
27865W        W43482  16.635   0.342  16.759 -0.0363  0.1942  0.0664
27866W        W43483   3.954  16.010   3.745 -0.2399  0.2247  0.0064
27867W        W43484   3.704  11.248   1.582 -0.2652  0.0563 -0.3033
27868W        W43485   0.053  11.749   3.171  0.0422 -0.0946 -0.2198
27869W        W43486  16.595  11.129  14.510 -0.1482 -0.0208 -0.0649
27870W        W43487   2.781   9.078   0.779  0.0408 -0.0469  0.1854
27871W        W43488   8.302   8.586  15.277  0.1049 -0.0051 -0.1264
27872W        W43489  11.069  13.673   0.324  0.2993 -0.0221 -0.0025
27873W        W43490  16.333   7.071   0.202 -0.1014  0.1846 -0.2139
27874W        W43491  12.827  13.877  13.510 -0.0267 -0.2837 -0.2200
27875W        W43492  16.481  10.309   0.342  0.1048 -0.0026  0.3346
27876W        W43493   9.673  16.768   3.471 -0.1332  0.0999  0.3298
27877W        W43494   1.263  13.852  16.025 -0.1018 -0.0663  0.3903
27878W        W43495  13.314   6.329  12.722  0.3150 -0.3642 -0.0364
27879W        W43496  15.397  12.874   4.662 -0.3177 -0.0846 -0.0891
27880W        W43497  11.073  15.239   2.092  0.0053  0.1075 -0.0369
27881W        W43498   0.702   4.259  14.166  0.0327 -0.1311  0.2697
27882W        W43499   4.960   7.855  12.403 -0.1194 -0.4004 -0.3302
27883W        W43500   5.270  16.527   3.833 -0.0666 -0.0772 -0.0284
27884W        W43501  14.357   5.228   3.750  0.2185  0.2307 -0.1232
27885W        W43502   5.269   8.497  17.081  0.0390  0.0477 -0.0819
27886W        W43503   9.882   7.850  15.763 -0.2023  0.1945  0.3196
27887W        W43504   5.374   3.970   6.014  0.0255 -0.0235  0.2105
27888W        W43505  11.801  11.852   1.123  0.0025  0.0828 -0.0950
27889W        W43506  12.564  17.350  13.124 -0.3192 -0.1302 -0.1207
27890W        W43507  15.780   9.571  11.858  0.2567  0.1984  0.0382
27891W        W43508   4.517  13.743  13.925  0.1643  0.0909  0.0103
27892W        W43509   7.653   6.990   0.217  0.0709  0.1565  0.0247
27893W        W43510  16.531   8.983   5.539 -0.1285  0.1572 -0.0465
27894W        W43511   0.594   2.785  15.840 -0.1363 -0.0994 -0.0210
27895W        W43512  12.712  14.534   1.815 -0.1365  0.0467  0.1686
27896W        W43513   0.956   3.314   3.468  0.1918 -0.1894 -0.1147
27897W        W43514   3.306   8.401   6.159 -0.0065 -0.1680  0.1088
27898W        W43515  12.253  10.193  12.302  0.1362  0.0164  0.2802
27899W        W43516   9.900  12.826  14.861  0.3920  0.2133 -0.2265
27900W        W43517  17.478   4.452   1.770 -0.2110  0.1497  0.0603
27901W        W43518  11.484  14.153  14.834  0.0443 -0.1389  0.0524
27902W        W43519   2.532  14.916  13.668 -0.0134  0.1107 -0.1837
27903W        W43520  10.368  16.682  11.239 -0.1327 -0.1722  0.0258
27904W        W43521  17.262  13.739   2.265  0.0356 -0.0124  0.0187
27905W        W43522   7.043   6.739   5.217  0.2188  0.3197 -0.1812
27906W        W43523  12.894   1.582   1.085 -0.0968  0.3280  0.2112
27907W        W43524   6.978  11.812   3.911  0.0610 -0.3621 -0.0122
27908W        W43525  11.353   8.035   3.305 -0.0507 -0.1234 -0.1511
27909W        W43526   9.129  12.907  16.225  0.2720 -0.1127 -0.1925
27910W        W43527   3.500   5.570   5.642  0.1951 -0.1326  0.0145
27911W        W43528   8.979   4.519  15.339  0.1071  0.0084 -0.2332
27912W        W43529  13.272  10.248   2.958 -0.1513 -0.1257  0.0572
27913W        W43530   3.415   3.450  12.331 -0.0907  0.3233 -0.1431
27914W        W43531   4.003   3.673  13.496  0.2338 -0.0331 -0.1997
27915W        W43532  10.035   2.711   4.828  0.0473 -0.2806  0.4099
27916W        W43533   7.980   4.713   5.623 -0.0227 -0.0576  0.1394
27917W        W43534   4.716  11.959  16.620  0.0809 -0.3355 -0.1910
27918W        W43535   6.883   5.249   4.722  0.0206 -0.1441 -0.1372
27919W        W43536  15.476   6.549  15.058 -0.0019  0.1753  0.0266
27920W        W43537   2.649   6.287  15.180 -0.0780  0.0351 -0.1556
27921W        W43538   3.642   4.652  17.196 -0.2158 -0.0062 -0.3034
27922W        W43539   5.604   3.622   4.332 -0.0207  0.0470 -0.2341
27923W        W43540   3.904  13.711   1.471  0.0377  0.1393 -0.0471
27924W        W43541  11.287  10.167  16.989 -0.0652 -0.3961 -0.0679
27925W        W43542  13.438   5.496  16.716  0.1357  0.2940 -0.0686
27926W        W43543  12.958  15.538  10.612  0.0532 -0.1263  0.1556
27927W        W43544  10.705   6.095  15.027 -0.0720  0.2959  0.0036
27928W        W43545  16.553  11.111  16.510 -0.1670 -0.3187  0.1559
27929W        W43546  10.977   4.165   4.993  0.0432  0.1016  0.2040
27930W        W43547  12.942   5.773   5.531  0.2977  0.1676  0.1867
27931W        W43548   4.932   0.184  12.188  0.1760  0.0291 -0.2872
27932W        W43549   6.367  12.891   2.009  0.0264  0.2153 -0.0340
27933W        W43550   6.647  10.114   2.299  0.0481  0.3325 -0.0043
27934W        W43551  11.793   9.971   1.977  0.1328  0.0378 -0.0235
27935W        W43552   2.106   2.537  13.372  0.0894  0.3186 -0.2524
27936W        W43553   0.422   6.136  16.002  0.1666  0.1298 -0.3907
27937W        W43554   3.603  13.496   3.392  0.1671 -0.1154  0.0458
27938W        W43555   0.108   0.173  15.091 -0.2498  0.1094  0.1191
27939W        W43556   9.035   9.958   4.211  0.1405  0.0244 -0.1616
27940W        W43557   9.104  11.517  16.566 -0.0873 -0.0648 -0.3641
27941W        W43558  16.280  11.812  12.543 -0.0782 -0.0733  0.1988
27942W        W43559   9.904  17.147  17.195  0.2014 -0.2780 -0.0359
27943W        W43560   9.740  15.461  13.531 -0.0130  0.0431  0.1281
27944W        W43561  13.541   4.574  12.081 -0.0622  0.0121  0.0017
27945W        W43562  16.261   5.331   3.826 -0.0698 -0.3209 -0.0921
27946W        W43563  15.209  11.646   3.522  0.0567  0.5784 -0.0497
27947W        W43564   2.932  17.358   5.379 -0.0783  0.4276  0.3798
27948W        W43565   1.083   7.880   3.001 -0.0609 -0.1892 -0.0057
27949W        W43566  11.004  13.649   0.815 -0.0921 -0.1858 -0.0455
27950W        W43567  12.904  16.530   3.625  0.1409  0.0849 -0.0836
27951W        W43568  17.406  17.057   4.671  0.0629  0.0301 -0.0414
27952W        W43569   2.061   7.089   0.026 -0.4219 -0.2440  0.0566
27953W        W43570   7.625  14.117   4.018  0.0592 -0.1090  0.0873
27954W        W43571  12.195  17.455  14.514 -0.0443 -0.0642  0.2754
27955W        W43572  16.649  12.565  11.654 -0.0501 -0.0749 -0.0027
27956W        W43573  13.069   9.414   0.944  0.1747  0.2161 -0.4150
27957W        W43574   8.078   4.703   2.298  0.1981 -0.0273 -0.0847
27958W        W43575   7.068  14.860  13.559 -0.1655  0.2089  0.1543
27959W        W43576   7.752  13.468  15.430 -0.0788  0.0664  0.2316
27960W        W43577   1.648   3.799   3.245 -0.0156  0.0064  0.0989
27961W        W43578   6.010   0.265   5.167  0.1892 -0.3022 -0.0339
27962W        W43579   1.037   3.047   1.567 -0.1740 -0.0276  0.3159
27963W        W43580   7.140   1.658  16.149  0.2385 -0.1599  0.0409
27964W        W43581  10.204   7.336   5.441 -0.0183 -0.3904 -0.0269
27965W        W43582  17.286  13.509   1.807  0.0147  0.0685  0.0822
27966W        W43583  12.136   4.289   0.567 -0.1369 -0.2485 -0.1030
27967W        W43584  14.414   2.582   1.548 -0.0127 -0.2972 -0.2268
27968W        W43585   2.993   7.862   2.452 -0.0891 -0.2628 -0.1667
27969W        W43586   7.035   9.800   5.124 -0.1190 -0.0275 -0.0775
27970W        W43587  15.241   5.687  14.334 -0.1902 -0.0922  0.0263
27971W        W43588   6.623   8.802   3.732  0.0713 -0.1163  0.0927
27972W        W43589  16.343   5.824   3.786 -0.2220  0.0176 -0.2459
27973W        W43590   9.911  10.347   1.720 -0.0816  0.1931 -0.2960
27974W        W43591  15.688   9.972  17.253  0.0583  0.1919 -0.0278
27975W        W43592   1.757   7.700   0.755 -0.3215  0.0199 -0.1866
27976W        W43593   0.995   8.468   3.895 -0.1693  0.0161 -0.3048
27977W        W43594   8.379   1.045   2.003 -0.4981 -0.2432  0.0951
27978W        W43595   6.234  15.708  12.147  0.1434 -0.2124  0.3706
27979W        W43596  17.176   4.299  14.095 -0.0061  0.2518 -0.0682
27980W        W43597   9.451   0.965   4.415  0.1152 -0.0371 -0.1876
27981W        W43598  12.079  16.056   3.665 -0.0169 -0.0363 -0.0648
27982W        W43599  15.821   5.218  12.348 -0.1085 -0.0496  0.3614
27983W        W43600  11.376   5.219   0.121 -0.0320  0.2231 -0.0071
27984W        W43601  15.646   1.541   2.188  0.0608 -0.2956 -0.0570
27985W        W43602   7.765   5.650   4.546  0.1503  0.2368 -0.2270
27986W        W43603   8.921   1.367   2.964 -0.2454  0.0356  0.1015
27987W        W43604  10.212   5.021  15.594 -0.1321 -0.0858  0.2748
27988W        W43605   2.255  12.693   3.954  0.1172  0.1219  0.0536
27989W        W43606   8.390   1.629  12.896 -0.0783 -0.2304 -0.1110
27990W        W43607   9.657   0.347  16.431 -0.2781  0.1312 -0.1469
27991W        W43608  15.671  14.005   1.617  0.0698 -0.2187 -0.1806
27992W        W43609  10.509  10.119  11.233 -0.2168  0.0030  0.0303
27993W        W43610   0.994   0.099  16.453  0.2377 -0.1769  0.0174
27994W        W43611   6.753   1.094  16.536  0.1326 -0.2200 -0.2607
27995W        W43612  17.032   9.254  14.761 -0.1076  0.0752  0.1763
27996W        W43613   7.964   8.653  13.223  0.0315 -0.1619 -0.3736
27997W        W43614   1.573  10.060   3.279  0.4205 -0.0141 -0.2053
27998W        W43615   0.713  15.479   4.920  0.0538  0.1849 -0.1896
27999W        W43616   2.306   1.125   5.017 -0.2195 -0.1695 -0.1378
28000W        W43617   9.027   6.518   0.591 -0.1777 -0.1265 -0.1176
28001W        W43618  15.748   6.513  15.899  0.0846  0.0394 -0.2806
28002W        W43619   9.128  12.912   3.909 -0.1413  0.0143  0.1031
28003W        W43620  11.329  16.296   0.772  0.1969 -0.1039 -0.0379
28004W        W43621   9.914  12.061   4.900 -0.1564 -0.0883 -0.2141
28005W        W43622   7.371   0.454   2.509  0.0529  0.0623  0.3617
28006W        W43623  10.930   6.924   4.826  0.4349  0.1023 -0.1512
28007W        W43624   2.694   8.271   3.871  0.1942 -0.1394  0.0799
28008W        W43625   6.115  13.216   5.329  0.1876  0.0060  0.0520
28009W        W43626  16.086   6.425   0.931 -0.0738  0.3070  0.0641
28010W        W43627  14.912  14.152  14.418  0.1541  0.0240  0.1595
28011W        W43628  17.526  10.027  13.237 -0.2731  0.2535 -0.1227
28012W        W43629   8.009   3.660   2.143  0.0185 -0.0879 -0.0190
28013W        W43630   6.547   6.884   5.021  0.0617  0.0447  0.0338
28014W        W43631  14.838   3.481  14.690 -0.1716 -0.1606 -0.0547
28015W        W43632  12.217   5.300   5.199 -0.0887 -0.0618 -0.0774
28016W        W43633  16.861  15.830  13.107  0.1279 -0.3944  0.2041
28017W        W43634   9.985   2.243   1.324  0.1536 -0.0170  0.1472
28018W        W43635  13.685   9.981   1.608 -0.2147 -0.0730  0.2174
28019W        W43636  14.088  12.027  14.494  0.0199 -0.2184  0.1708
28020W        W43637   6.690   9.062  16.184  0.1181  0.1470 -0.2556
28021W        W43638   5.476   1.693   6.047  0.1271 -0.1566 -0.1854
28022W        W43639   9.154   2.010   3.665 -0.0143  0.1512  0.1541
28023W        W43640  16.993   1.316   0.595  0.2648  0.0619 -0.3710
28024W        W43641  13.724   8.200   2.068  0.0514 -0.1913 -0.0831
28025W        W43642  10.170  10.383  10.874 -0.1204 -0.1968 -0.1466
28026W        W43643   2.833   5.563   0.424 -0.0645  0.4188  0.0392
28027W        W43644   5.749  13.252  12.229 -0.0713  0.1302 -0.1201
28028W        W43645  11.661  13.833   4.265  0.3339  0.1267 -0.0428
28029W        W43646   3.005   9.278  12.293 -0.1748  0.0407  0.0948
28030W        W43647  11.439  12.564  13.853  0.1802 -0.0609  0.2381
28031W        W43648  17.157  10.227   4.098  0.1606  0.1164 -0.0675
28032W        W43649  12.272   8.651   4.626 -0.0970  0.1452  0.0203
28033W        W43650  16.995  13.540  15.723  0.2609 -0.0806 -0.0346
28034W        W43651   8.519   3.403   6.486  0.1547 -0.0458 -0.0775
28035W        W43652  10.256   9.102  12.911  0.0747  0.0137  0.0722
28036W        W43653  11.075   6.167  15.431 -0.0850 -0.0945  0.3252
28037W        W43654  13.018   8.893  14.838 -0.0872 -0.1738 -0.1739
28038W        W43655  16.711   8.242   1.801  0.0902 -0.0788 -0.2431
28039W        W43656  16.758  12.444   0.282 -0.3720  0.1412  0.0068
28040W        W43657  14.527   6.490  12.927  0.3491  0.0211 -0.0373
28041W        W43658   1.558   0.513  16.223  0.1383 -0.0851 -0.1612
28042W        W43659  10.318  13.394  15.919 -0.0480  0.4255 -0.0954
28043W        W43660   8.283   0.976  14.655 -0.1787  0.0375 -0.0475
28044W        W43661   7.146   6.918   1.140  0.1248  0.0011 -0.2045
28045W        W43662   9.905   8.918   0.840  0.3680  0.2412  0.0626
28046W        W43663   7.895  10.657  14.704  0.1739 -0.1863  0.2897
28047W        W43664  15.445  15.789  14.608 -0.3473 -0.1826  0.2290
28048W        W43665  12.588   8.181  15.468 -0.1452  0.1615  0.0769
28049W        W43666  16.340  16.143  16.915  0.1595 -0.0433  0.0333
28050W        W43667   8.817  17.613  14.401  0.3355  0.1707  0.0613
28051W        W43668   3.259   4.931   6.129 -0.2131  0.1012 -0.2505
28052W        W43669   4.855   4.276   3.452  0.2398  0.1027 -0.0811
28053W        W43670   1.554   8.212  13.652  0.2185 -0.1372  0.1245
28054W        W43671   0.292   7.066  15.041 -0.1516  0.0955  0.3134
28055W        W43672  14.589   6.538   0.386 -0.2035  0.3572  0.2088
28056W        W43673   6.546   6.089   4.690 -0.2394  0.0903  0.1986
28057W        W43674  12.400   5.198   0.395  0.1948 -0.1245  0.0307
28058W        W43675   6.847  13.995  15.051  0.1916  0.0457  0.2778
28059W        W43676   3.277   9.603   0.175  0.0467 -0.2210  0.0744
28060W        W43677   7.050   7.312   2.868 -0.0715 -0.0261 -0.4768
28061W        W43678   0.225   7.293   4.126  0.2612 -0.0470 -0.2142
28062W        W43679   8.776   6.092   1.834 -0.0689  0.2477 -0.0281
28063W        W43680   2.932  14.546   4.426  0.0213 -0.1261  0.1802
28064W        W43681   1.551   4.021   5.295  0.1061 -0.0494 -0.2407
28065W        W43682  13.723   9.580  16.686  0.0154 -0.0646  0.2502
28066W        W43683  15.700   0.615   2.512  0.2843  0.2194 -0.0213
28067W        W43684   3.897  13.753   1.989  0.1379 -0.0378  0.0056
28068W        W43685   7.034  10.472   2.397  0.1142 -0.2450  0.0399
28069W        W43686  13.795  10.602   2.128 -0.1830  0.0106 -0.1665
28070W        W43687  14.329  11.895  14.044  0.2459 -0.0238  0.2208
28071W        W43688   2.099  15.334  16.036  0.0276  0.2451  0.1352
28072W        W43689  15.911   7.527   5.658  0.0470  0.2623  0.0930
28073W        W43690   9.035  10.645  16.182 -0.1750 -0.0831 -0.0876
28074W        W43691  16.847  17.567  12.556  0.0871  0.0016 -0.1139
28075W        W43692  12.616  10.020  16.118  0.1009  0.0776 -0.1945
28076W        W43693  15.647   3.908  14.873  0.1326 -0.0378 -0.2120
28077W        W43694  10.867   9.293  17.131  0.1513  0.0293  0.1462
28078W        W43695   3.665   1.741  14.786  0.2751 -0.2369 -0.0515
28079W        W43696   6.566   0.590  15.421 -0.2955 -0.0201  0.0562
28080W        W43697   4.419   7.935  13.222  0.1474  0.3232  0.2368
28081W        W43698   0.241  13.444   5.035 -0.4585  0.1692 -0.2606
28082W        W43699   4.686   3.382   4.690  0.4692  0.0403 -0.1024
28083W        W43700   4.041   7.094   4.145 -0.0098  0.0345  0.0998
28084W        W43701   3.779   8.623   3.288 -0.3329 -0.0574  0.0862
28085W        W43702   9.912   2.910   4.415 -0.0978 -0.0308 -0.1434
28086W        W43703   4.538   8.685   4.655  0.1175 -0.1343  0.2553
28087W        W43704  12.618   9.110   3.934 -0.0049  0.1078  0.0309
28088W        W43705  15.356   4.213   3.683 -0.3650 -0.0766  0.1971
28089W        W43706  11.226   5.995  17.178 -0.3131 -0.1964 -0.1900
28090W        W43707   4.625   9.651  17.176 -0.0826 -0.0314  0.1173
28091W        W43708  11.886   3.120  15.267 -0.1669 -0.1051 -0.0506
28092W        W43709  12.102   9.687   2.845 -0.0598  0.1589 -0.0484
28093W        W43710   8.901  16.732  11.076 -0.2128 -0.1042  0.1602
28094W        W43711  11.337   0.718   3.594  0.0051  0.3042  0.3117
28095W        W43712   4.715  12.538  16.795 -0.2660  0.1292  0.1075
28096W        W43713   0.518  16.958   5.554  0.0473 -0.1360 -0.4304
28097W        W43714   4.332   1.718  11.881 -0.4004 -0.1523 -0.2714
28098W        W43715  16.472  10.265   6.636 -0.0282  0.3709  0.0069
28099W        W43716   3.809  16.768   2.954  0.0668 -0.2297  0.2175
28100W        W43717  12.905  16.372   1.761  0.2029  0.2290  0.1011
28101W        W43718  12.046  11.773  15.706  0.1122  0.2941 -0.0947
28102W        W43719   3.880   7.219   5.609  0.3658 -0.2181  0.1131
28103W        W43720   4.298   3.998  13.696 -0.0309 -0.0079 -0.0627
28104W        W43721  12.174  17.213  15.278 -0.3499 -0.1860 -0.0242
28105W        W43722  16.438   1.639   4.046  0.0567  0.0364 -0.1821
28106W        W43723   3.541   7.062   4.525  0.1460 -0.1697 -0.0387
28107W        W43724  15.783   8.822   3.987 -0.5484 -0.0724 -0.0054
28108W        W43725   9.727   8.151   5.658  0.1422  0.1175  0.2964
28109W        W43726   3.961  15.800   5.539  0.1089 -0.2867 -0.0256
28110W        W43727  15.683   3.187   0.938  0.1627 -0.1351 -0.0094
28111W        W43728   1.289   7.818  14.852 -0.0256  0.0679 -0.3806
28112W        W43729  16.560   1.730   0.182  0.2181  0.0210  0.1586
28113W        W43730   7.917  12.958  16.533  0.0686  0.0384  0.0373
28114W        W43731  12.257  16.141  12.374 -0.1976 -0.0041 -0.0879
28115W        W43732   4.110   4.039   4.066  0.1857 -0.1971  0.0216
28116W        W43733   7.450   6.526  13.998  0.2048  0.3030 -0.0503
28117W        W43734  13.976   3.269   0.354 -0.1547  0.2064  0.0483
28118W        W43735  11.789  13.570  15.734  0.0095  0.2247 -0.0797
28119W        W43736   4.447   7.313   0.715 -0.1050 -0.3171  0.1490
28120W        W43737  16.873   3.886  14.804  0.0246 -0.0100  0.1127
28121W        W43738   6.905  17.512  14.233  0.3825 -0.2334  0.1528
28122W        W43739   2.899   4.412   2.842 -0.0321  0.1023  0.1410
28123W        W43740  15.693   1.223   4.276  0.4449 -0.3594 -0.2430
28124W        W43741   8.272   0.092   3.377  0.1914 -0.1921 -0.2590
28125W        W43742   8.319   5.712  13.204 -0.3583 -0.0771  0.2053
28126W        W43743  11.766  17.428  15.806 -0.0884 -0.0383 -0.1188
28127W        W43744  15.777   3.071  14.989  0.0570 -0.0844 -0.0019
28128W        W43745  14.141  13.070   0.527 -0.1754 -0.2153  0.2417
28129W        W43746   8.854  13.818  16.481 -0.3126 -0.0915  0.0258
28130W        W43747   4.810   0.966   1.821 -0.0304 -0.2197  0.0450
28131W        W43748  14.214   9.084  16.374  0.0123 -0.0115  0.3933
28132W        W43749   1.236  13.313   0.418 -0.0162  0.0530 -0.0019
28133W        W43750  14.319   9.712   3.139 -0.1850 -0.0724 -0.0353
28134W        W43751   1.343  14.318  14.268 -0.0011  0.1492 -0.2580
28135W        W43752   4.488   0.380  13.754  0.2150 -0.2646 -0.3386
28136W        W43753  13.567   0.243   2.544 -0.1160  0.0831  0.0464
28137W        W43754  16.214   7.611  12.658  0.3119  0.2038  0.3585
28138W        W43755  13.769  16.864  16.163 -0.2704 -0.1470  0.1774
28139W        W43756   4.997   2.430  12.149  0.1210 -0.0531 -0.0138
28140W        W43757  16.496  12.579  12.860 -0.0444  0.0298 -0.3339
28141W        W43758  12.235   8.152   6.586 -0.0276 -0.2918  0.1668
28142W        W43759   4.222   9.279   5.098  0.0539  0.3060  0.2639
28143W        W43760   5.363   7.511   5.403 -0.0393  0.1961  0.0236
28144W        W43761   0.846   2.942  13.626  0.0572  0.1726  0.1552
28145W        W43762   3.925   8.148   0.029  0.1040 -0.2967 -0.2763
28146W        W43763   8.146  11.224  16.325 -0.0876  0.0906  0.2471
28147W        W43764  13.604  10.626  16.726  0.0581 -0.1886 -0.1638
28148W        W43765  17.287  15.468  12.256 -0.0084  0.0577 -0.0228
28149W        W43766   9.363  14.571   4.974  0.2495  0.1955  0.0033
28150W        W43767  15.523  13.788  16.346 -0.3304  0.1783  0.3701
28151W        W43768   1.242   8.763  14.961 -0.2319  0.2213 -0.1936
28152W        W43769  15.865  13.950   1.179  0.1742 -0.1381  0.1470
28153W        W43770   5.698   2.735  12.668 -0.0117 -0.1854 -0.2380
28154W        W43771   9.463  11.725   5.050 -0.1302  0.1716 -0.0036
28155W        W43772  14.040  10.970  16.794  0.2442  0.0271 -0.2427
28156W        W43773   9.823  17.356   0.760 -0.0722 -0.1782  0.1417
28157W        W43774  14.357  12.840   5.585  0.1255  0.2567  0.0028
28158W        W43775   2.246  17.381  12.287  0.3320  0.0318  0.0958
28159W        W43776   9.823  13.324  11.786  0.0372 -0.0051  0.0161
28160W        W43777   1.585   0.335   1.340  0.2601 -0.2546  0.0756
28161W        W43778   4.316   2.805  16.728 -0.0032 -0.0014  0.0267
28162W        W43779   7.224   4.461  13.331 -0.0176 -0.2747  0.2234
28163W        W43780  12.457   5.460   1.793 -0.2175  0.0880 -0.1567
28164W        W43781  13.508   7.666   4.876  0.2211 -0.0776  0.0908
28165W        W43782   3.041   2.633   6.032 -0.5714  0.1070 -0.0341
28166W        W43783  15.334   7.068  16.849  0.0783  0.2356  0.1300
28167W        W43784   9.505   2.560   4.583  0.0969  0.0457 -0.1408
28168W        W43785  16.521   4.087  13.941  0.4929  0.0531 -0.0878
28169W        W43786  16.903   5.367  12.501 -0.0432  0.1478  0.0504
28170W        W43787   6.538  14.676  16.378 -0.0581 -0.1642  0.1946
28171W        W43788   8.351  15.045  11.209  0.6031  0.1256  0.0253
28172W        W43789   1.218   3.512  14.208 -0.0345  0.0776  0.1544
28173W        W43790   1.038   7.582  13.610  0.0182  0.0137  0.2336
28174W        W43791  15.360  12.219  13.432 -0.1782  0.1701  0.1293
28175W        W43792  11.350   0.567  14.272  0.0585  0.2845  0.0707
28176W        W43793   8.099   0.756  13.326  0.3725 -0.0581 -0.2811
28177W        W43794  10.930   0.810  14.056 -0.1053  0.0844  0.0819
28178W        W43795  16.066   8.462   3.233 -0.2558 -0.3659  0.1196
28179W        W43796   7.822  14.224   1.368  0.0038 -0.1333  0.2110
28180W        W43797   1.405   7.753   5.277 -0.2325  0.0690 -0.2772
28181W        W43798   4.207   6.923   5.934  0.1875 -0.0780 -0.3995
28182W        W43799  11.166   1.094   1.273 -0.0234 -0.3550  0.1076
28183W        W43800   4.643   1.040  16.834 -0.0633  0.1496  0.0912
28184W        W43801   6.094  11.706   2.481  0.1998 -0.0855 -0.0269
28185W        W43802   3.613  15.247  12.171  0.1047 -0.3859  0.2435
28186W        W43803  10.836  12.358   0.366 -0.1968  0.0322 -0.1400
28187W        W43804   6.704  15.603  14.735  0.3410  0.0142  0.1743
28188W        W43805   1.625  14.143   0.232  0.1492  0.0764  0.0875
28189W        W43806   7.413   0.282  17.296  0.0501 -0.3030  0.0660
28190W        W43807   8.977  11.323  17.003 -0.0780 -0.1761 -0.0554
28191W        W43808  17.032   3.772  13.169  0.2117 -0.0224 -0.0880
28192W        W43809  10.478   2.365   1.258 -0.1598  0.0277 -0.0689
28193W        W43810  13.991   4.864   5.407  0.0815 -0.1847 -0.0208
28194W        W43811  10.138   0.828  16.490 -0.0201  0.1860  0.0778
28195W        W43812  11.177  15.439   3.126 -0.2022  0.2779 -0.3591
28196W        W43813  11.646   8.349  16.822  0.1707  0.2116 -0.2070
28197W        W43814  10.592  14.873  15.188 -0.3744  0.0207 -0.1477
28198W        W43815  12.473   8.583  16.230 -0.0849 -0.3764 -0.2170
28199W        W43816   7.591  14.870   3.220 -0.0589 -0.2420 -0.2295
28200W        W43817   4.135   2.942  12.212  0.1761  0.1320  0.3999
28201W        W43818   9.803  12.631   0.661  0.2609 -0.0860 -0.3229
28202W        W43819  10.610  16.153  14.503  0.0324  0.3409  0.0208
28203W        W43820   9.234   6.067   6.792 -0.3918  0.0277  0.2324
28204W        W43821  14.730   2.087  14.383  0.1840  0.1828  0.2269
28205W        W43822   1.936   3.098   4.482 -0.1551 -0.1480 -0.1359
28206W        W43823  15.071   0.903   1.791  0.0825 -0.3014  0.1265
28207W        W43824  11.242   9.673  17.164 -0.0891 -0.0144  0.2249
28208W        W43825  11.130  10.645   2.687 -0.2153 -0.1526 -0.0082
28209W        W43826   5.290   0.266   3.371 -0.1050 -0.0442  0.3003
28210W        W43827   3.415   9.071   4.666  0.0317  0.1709 -0.1808
28211W        W43828   8.592   3.664   4.371  0.1513 -0.2851  0.2029
28212W        W43829  14.892   5.387   3.667 -0.1426  0.1434 -0.1134
28213W        W43830   9.620   6.140  15.886  0.2877  0.1082  0.0643
28214W        W43831  10.632   7.659   3.104 -0.1559  0.0152  0.2300
28215W        W43832   2.583  13.814   2.190  0.2535  0.1077 -0.1248
28216W        W43833   0.806   3.932  15.609 -0.0790 -0.0347 -0.2412
28217W        W43834   2.612   1.690   5.596 -0.1183  0.0658  0.0237
28218W        W43835   9.946   8.124   5.167 -0.1490  0.0382  0.1969
28219W        W43836  11.869   9.212   2.193 -0.0025 -0.0775  0.1160
28220W        W43837   9.667   6.811  11.943  0.3652  0.0953  0.2678
28221W        W43838  14.915   9.473  16.825 -0.1889 -0.0028  0.0010
28222W        W43839  13.656   6.850  14.701  0.2481  0.2520 -0.1154
28223W        W43840  10.433   9.014  16.926  0.0710 -0.2558 -0.0143
28224W        W43841  11.304   0.708  16.064 -0.1403  0.1325  0.3538
28225W        W43842   8.086   4.827   0.914  0.3299  0.0548 -0.1596
28226W        W43843  10.218   4.447   0.373 -0.1270  0.1217  0.2788
28227W        W43844  11.796   9.178   4.047  0.0676  0.0756  0.0662
28228W        W43845  14.955  10.950   0.827  0.4322  0.0432  0.0253
28229W        W43846   1.293   9.679  14.640  0.1642  0.0605  0.1062
28230W        W43847  17.140  16.936   5.187 -0.1547  0.0295  0.1682
28231W        W43848   1.322   7.788  16.977 -0.0322 -0.4893 -0.3577
28232W        W43849   2.682  10.709  11.999 -0.1029 -0.1877 -0.0342
28233W        W43850   0.784   9.542   6.226 -0.0393  0.0663 -0.1989
28234W        W43851  15.862  13.716   5.397  0.1160 -0.3317  0.1556
28235W        W43852  15.063   9.701   5.851  0.0246  0.2047  0.1512
28236W        W43853   9.795   3.976   1.437  0.1143 -0.1327 -0.0455
28237W        W43854  13.016   6.550   5.623  0.0966  0.2452  0.0029
28238W        W43855  12.401   1.425   0.904 -0.0976  0.0429 -0.0920
28239W        W43856   4.301  10.596   0.943 -0.2660 -0.0970 -0.1295
28240W        W43857   0.428  15.351   5.349  0.0384  0.2264 -0.1130
28241W        W43858   8.899  13.043  17.266  0.0113 -0.1318  0.0919
28242W        W43859   6.289   3.511  13.836  0.0661 -0.1033 -0.0150
28243W        W43860   9.500   4.966  12.956 -0.1652 -0.1796  0.1515
28244W        W43861  10.236  15.095   6.238  0.2719  0.1324 -0.2520
28245W        W43862   1.428   8.901  11.267 -0.3107  0.0812 -0.2073
28246W        W43863  14.692  13.638   4.464  0.0935 -0.4833  0.1112
28247W        W43864   2.026  16.588   4.511 -0.0420  0.1142  0.2154
28248W        W43865   0.831   6.388   1.771  0.1554 -0.1893 -0.1101
28249W        W43866  14.764   3.636   3.092  0.1296  0.0567 -0.2193
28250W        W43867  15.820   0.565  12.345  0.0340 -0.0118  0.0986
28251W        W43868   0.302   6.685   0.497 -0.1962  0.1096 -0.4094
28252W        W43869  15.786   1.765  16.533 -0.1076  0.1196  0.0794
28253W        W43870   2.053  10.673   0.968 -0.0743  0.2929 -0.0014
28254W        W43871   5.566   8.390  15.615  0.4638 -0.0706  0.2578
28255W        W43872  15.266  13.051  15.447 -0.3718  0.1832  0.0087
28256W        W43873   4.804   9.374   6.315 -0.2011 -0.2153  0.1704
28257W        W43874   8.717   3.062   3.096 -0.0430  0.4088 -0.3583
28258W        W43875   3.687  11.708  17.110  0.2597 -0.1278 -0.0747
28259W        W43876   1.044   0.457  11.831  0.0663  0.1321 -0.0180
28260W        W43877   9.687  16.180   4.781 -0.1953  0.0796  0.0795
28261W        W43878   0.970   1.239   4.975  0.3422 -0.1150  0.1991
28262W        W43879  17.010   3.238   0.564 -0.2930 -0.2284 -0.2418
28263W        W43880   5.047   5.992  12.216 -0.1560 -0.0519 -0.2325
28264W        W43881   3.714  15.200  17.021  0.0597  0.1359  0.3124
28265W        W43882   3.755   2.915   0.759 -0.1799 -0.0091  0.0085
28266W        W43883   1.107   9.600   4.321 -0.3022 -0.0768  0.0584
28267W        W43884   8.487   1.424   4.026  0.0348  0.1522  0.1421
28268W        W43885   6.348   9.229  15.791 -0.2036  0.1619  0.1836
28269W        W43886   1.359  17.186  16.616  0.1251 -0.0273  0.2469
28270W        W43887   6.091   3.231   6.723 -0.0139 -0.0966 -0.1926
28271W        W43888   4.821  14.398   5.897  0.0776  0.1439 -0.3064
28272W        W43889  14.524   4.055   3.178 -0.0165  0.0841 -0.1373
28273W        W43890  11.560   5.815  11.850 -0.0493 -0.0123  0.1839
28274W        W43891  14.978   6.954  16.144  0.0714  0.2368  0.1821
28275W        W43892   9.565  10.893   2.037  0.1427  0.3084  0.0289
28276W        W43893   8.490  13.388   1.475 -0.0354 -0.0300 -0.0209
28277W        W43894   7.029  13.354   4.035 -0.1946  0.0215 -0.2965
28278W        W43895  15.125  17.601  12.532 -0.0093  0.0306 -0.0178
28279W        W43896   0.221  16.532  12.063  0.0921  0.0535  0.6037
28280W        W43897   7.056  10.226   3.275  0.1937 -0.0569 -0.0218
28281W        W43898   9.559  15.023  12.036 -0.2162 -0.1355  0.1108
28282W        W43899   8.742   4.019   0.526 -0.0244  0.0755 -0.0245
28283W        W43900   0.229  12.772   6.204 -0.2462 -0.2489  0.2774
28284W        W43901   6.780  10.145   0.471  0.0274 -0.1910 -0.1108
28285W        W43902   3.467  13.934   1.634  0.0274 -0.3092  0.1783
28286W        W43903   6.621  13.421  15.648 -0.0485 -0.3057  0.0198
28287W        W43904   3.791  15.906  13.063 -0.0352 -0.0083 -0.2559
28288W        W43905   8.527  10.891   3.186 -0.0548  0.2126 -0.0355
28289W        W43906   9.744  11.258   5.455  0.1706  0.0088  0.2510
28290W        W43907   5.361   6.019   4.849 -0.0624 -0.2795  0.0084
28291W        W43908  15.726  14.392  15.632 -0.1487 -0.0972  0.0035
28292W        W43909   2.685  13.417   6.444 -0.1417  0.2095 -0.1375
28293W        W43910   6.826   5.945  17.159  0.0475  0.0418  0.0937
28294W        W43911   2.597   2.480   2.127  0.1093  0.2214  0.0132
28295W        W43912   3.842   6.552  15.613 -0.0704 -0.0007 -0.1739
28296W        W43913  14.410  15.742  12.262 -0.2103  0.2967  0.0652
28297W        W43914  13.504  16.364   4.811  0.2576  0.0689  0.0601
28298W        W43915  11.692  11.702  12.328  0.0214  0.5565 -0.0724
28299W        W43916   1.990  13.744   0.964  0.1462 -0.0405  0.2145
28300W        W43917  11.099   6.214  12.868 -0.1401 -0.1530  0.0480
28301W        W43918   0.009   8.414  13.060  0.0414 -0.0877 -0.3219
28302W        W43919  16.343   1.619  16.602  0.2089 -0.1877  0.0914
28303W        W43920   1.593  13.812  11.505  0.1265 -0.2061 -0.3102
28304W        W43921  14.178  13.353  11.022  0.2345  0.0425 -0.0024
28305W        W43922   5.406  16.067   1.080 -0.1105  0.2058  0.0253
28306W        W43923   8.635  17.110  11.336 -0.3616  0.1760  0.0929
28307W        W43924   7.226  10.738   1.106 -0.0495  0.1169  0.2025
28308W        W43925   9.765   6.067  11.315  0.0941 -0.2426 -0.3788
28309W        W43926  11.907   0.870   0.111  0.0045  0.0451  0.1984
28310W        W43927   9.089   4.891  13.564 -0.1991  0.1842 -0.2850
28311W        W43928  11.307   7.690   5.218 -0.0271  0.0876  0.0230
28312W        W43929   2.102   5.815   3.052  0.1749  0.0018  0.0495
28313W        W43930  10.104  10.581  17.064 -0.1857  0.0408  0.3579
28314W        W43931  11.336  11.340  12.034  0.1689 -0.1229 -0.0132
28315W        W43932   7.284  14.930  15.987  0.1128 -0.0203  0.1468
28316W        W43933  15.747   8.731   1.098 -0.0281  0.0158 -0.0195
28317W        W43934   2.723   7.127  12.247  0.0152  0.0390  0.3202
28318W        W43935   5.466  15.930  12.838  0.0961 -0.3816 -0.3198
28319W        W43936   1.716   1.683  13.825 -0.1356 -0.0341  0.0196
28320W        W43937   3.565   1.384  13.041 -0.0071  0.1270  0.0282
28321W        W43938   2.921   6.015  16.457 -0.1577 -0.4343  0.3976
28322W        W43939   3.034  10.727  14.940  0.0348 -0.3042  0.1192
28323W        W43940  10.019  10.427  12.684  0.0978 -0.2063 -0.1023
28324W        W43941   0.242  16.931   3.765  0.4068  0.3001  0.2328
28325W        W43942  17.492   2.464   3.377  0.2041  0.0724  0.0118
28326W        W43943   9.001   8.343  14.905 -0.3760 -0.2775 -0.0618
28327W        W43944   7.966   1.410  12.929  0.1294 -0.2851 -0.4775
28328W        W43945   9.856   9.631  15.513  0.0508 -0.0442 -0.0621
28329W        W43946   0.560   5.581   3.679 -0.2780  0.0718  0.0673
28330W        W43947   1.957  13.386  17.053  0.2438 -0.0951 -0.1376
28331W        W43948  10.960   2.637  12.283  0.0383 -0.0872 -0.1309
28332W        W43949  10.797  15.947  16.216  0.1615 -0.1851 -0.1598
28333W        W43950   3.403  17.551   4.571  0.2495  0.1824 -0.2204
28334W        W43951  16.218   9.144   2.534 -0.2423 -0.0556  0.1834
28335W        W43952  12.867   8.437   3.563  0.2942  0.0329 -0.1339
28336W        W43953   2.825   9.509  15.641  0.1989  0.0178  0.2584
28337W        W43954   2.325  16.334  14.473  0.1020 -0.0143  0.3588
28338W        W43955  11.884  15.583  11.566  0.0493 -0.1841  0.0944
28339W        W43956  13.181   1.690  12.134  0.3042  0.3637 -0.0206
28340W        W43957  13.696   9.267   0.503  0.0086 -0.1690 -0.0039
28341W        W43958  11.772  14.755  14.946 -0.1279 -0.0085  0.1707
28342W        W43959   8.681   0.982   3.948 -0.0094  0.1449  0.0546
28343W        W43960  11.502   6.420   0.789  0.2644  0.0877 -0.1087
28344W        W43961   3.953   8.519  16.774 -0.0721  0.0514 -0.0143
28345W        W43962   4.681  15.151  12.015 -0.0812  0.0532  0.4941
28346W        W43963   0.256   5.944  14.769  0.0131  0.0174  0.0955
28347W        W43964   6.232   0.269  12.164 -0.1984 -0.1838  0.0763
28348W        W43965  14.169   4.901  16.375 -0.0856  0.2377  0.3843
28349W        W43966   2.687   5.018   1.906  0.1813 -0.0323 -0.3950
28350W        W43967   9.980   3.615   5.008  0.0137  0.2522 -0.1072
28351W        W43968   2.708  16.986   5.593  0.2558 -0.1814  0.0247
28352W        W43969  17.409   3.864  14.079  0.1351 -0.0277 -0.0954
28353W        W43970   2.961   4.563  13.850  0.1247  0.0575  0.1653
28354W        W43971   1.447   7.681  16.214  0.2401  0.0312 -0.2351
28355W        W43972   2.675  16.004  14.735 -0.0139  0.1203  0.2269
28356W        W43973   0.481   8.924   0.826 -0.3614 -0.1400 -0.1590
28357W        W43974  13.934  10.258  16.020  0.3186 -0.0420 -0.2161
28358W        W43975  17.070  15.943  13.722  0.2499  0.1217 -0.1313
28359W        W43976   1.505   3.915   6.777  0.1471  0.0726  0.2555
28360W        W43977   5.755   8.363  16.868 -0.3551  0.0798  0.1398
28361W        W43978   3.527   7.159  14.445  0.0473  0.1408  0.0374
28362W        W43979   1.492   8.342   1.630 -0.1878  0.1076 -0.1685
28363W        W43980  16.867   7.888  13.889  0.0476  0.1407  0.1932
28364W        W43981   0.960   3.340   2.124  0.1576  0.0677 -0.0876
28365W        W43982  16.663  13.795  12.478 -0.2532 -0.1896  0.1716
28366W        W43983   5.270   1.094   1.602 -0.2066  0.0468 -0.2665
28367W        W43984  14.294   5.219   1.213 -0.0606  0.0618 -0.0767
28368W        W43985   2.514   6.477  14.423 -0.1092  0.0789 -0.2780
28369W        W43986   7.930   7.358  16.971 -0.1653 -0.2161  0.0695
28370W        W43987  12.167   0.906  15.889  0.0031  0.0114  0.3986
28371W        W43988  14.792   2.243   1.498 -0.1924 -0.0461 -0.2826
28372W        W43989  14.073   3.877  11.501 -0.0658 -0.0534 -0.0690
28373W        W43990   1.246   0.930  13.437 -0.0276 -0.0510  0.0004
28374W        W43991   8.047  10.149  14.447  0.1641  0.1446 -0.1754
28375W        W43992   4.784   9.948  16.165 -0.1864  0.1392  0.0239
28376W        W43993   1.182   2.872  14.915 -0.1624  0.3257  0.0231
28377W        W43994   3.885   5.216   5.719 -0.1044 -0.0117 -0.0247
28378W        W43995  13.607  13.093  13.737  0.1972 -0.0825  0.3950
28379W        W43996   0.638   8.947   1.536 -0.0608  0.1481  0.1233
28380W        W43997  13.044   1.267  13.901 -0.2092  0.3193  0.0640
28381W        W43998  11.375   0.423   3.114  0.0159 -0.2859 -0.0706
28382W        W43999   9.396  15.303  14.404 -0.0282 -0.3086 -0.4244
28383W        W44000   0.362  15.733  16.025 -0.1206 -0.1304 -0.1691
28384W        W44001  10.509   1.964   5.249  0.2397  0.2696 -0.2143
28385W        W44002   8.182   0.723   0.821 -0.0317  0.1554 -0.1435
28386W        W44003   0.763   4.506   2.731  0.2343  0.0709 -0.0686
28387W        W44004  10.491  11.532  13.324 -0.1508 -0.2178  0.3348
28388W        W44005  12.000  16.194  14.777  0.0845  0.0040  0.1499
28389W        W44006  16.897   7.933   4.071 -0.3556  0.0101  0.0370
28390W        W44007   9.304  14.138   0.093 -0.4207  0.0800  0.0770
28391W        W44008   6.720  15.578  12.165 -0.0012 -0.2903  0.1349
28392W        W44009  13.371   5.629   2.323  0.1784  0.2828  0.2484
28393W        W44010   1.476  14.649  12.275 -0.1329  0.1702  0.0157
28394W        W44011   6.732  16.272  17.294 -0.2325  0.0519  0.0462
28395W        W44012  17.333  15.085  15.147 -0.0749  0.0122  0.0026
28396W        W44013  10.768   8.068   5.117 -0.0288 -0.2132 -0.1896
28397W        W44014   0.245  10.880   0.510  0.1890  0.3655  0.0231
28398W        W44015   3.964   3.959   4.556 -0.0570  0.0510 -0.2917
28399W        W44016   9.374  10.054   0.202 -0.0768  0.1619 -0.1520
28400W        W44017  13.146  13.190   3.991  0.2033  0.1790 -0.0803
28401W        W44018   0.169  16.913  15.177  0.1514  0.0882 -0.0215
28402W        W44019   0.260  10.551   2.939 -0.2306  0.2011  0.1010
28403W        W44020   1.914  16.186   6.308  0.1523  0.0017 -0.1140
28404W        W44021   7.713  11.414   4.948  0.0488 -0.1327 -0.1908
28405W        W44022  11.576   1.560  15.701 -0.0619 -0.1605 -0.0697
28406W        W44023   8.105  16.123  12.538 -0.0935 -0.1328  0.3206
28407W        W44024   0.350   0.088  12.534  0.1269  0.4583  0.0850
28408W        W44025  10.930   7.570   4.982  0.1466  0.0357 -0.0458
28409W        W44026  14.579  11.502   2.518 -0.4178  0.2838  0.1264
28410W        W44027   4.580   2.972   0.814  0.2557  0.0871 -0.2523
28411W        W44028   6.366   0.897   5.192 -0.0092 -0.3072  0.1113
28412W        W44029   4.634   1.086  15.348 -0.0533 -0.3658 -0.3103
28413W        W44030   7.416  17.617  11.427 -0.1095  0.0792  0.1915
28414W        W44031   4.091  13.935  15.598 -0.2109  0.1672 -0.1155
28415W        W44032  11.863  11.893   5.751  0.0242  0.1048 -0.0998
28416W        W44033  10.035   9.164  15.384 -0.2708 -0.0616  0.0907
28417W        W44034  11.513   8.308  14.607  0.1253  0.1253  0.2173
28418W        W44035   7.354   9.635  15.620 -0.2898 -0.1100  0.0485
28419W        W44036   1.559  11.371   6.197  0.3530  0.0494  0.1172
28420W        W44037  14.493   7.035   5.736  0.2649 -0.0615  0.0618
28421W        W44038   6.769   7.005  13.504  0.2434  0.1426  0.1682
28422W        W44039  11.040  12.257   4.718 -0.1927 -0.1400 -0.0767
28423W        W44040   7.457   3.437   5.561 -0.2411  0.0857 -0.1552
28424W        W44041   9.893   7.786  15.137 -0.0108  0.2583 -0.1624
28425W        W44042   2.531   7.494   2.441  0.1138  0.2015 -0.0317
28426W        W44043   9.424   1.569   1.087 -0.1882 -0.0469  0.2190
28427W        W44044   9.752   9.796  17.185 -0.0298 -0.1079  0.2330
28428W        W44045  13.765   9.962   4.151  0.0235 -0.2496 -0.0810
28429W        W44046   5.481   1.326   2.993 -0.1140  0.2695  0.0420
28430W        W44047   6.799   6.316  12.150 -0.1328  0.1811 -0.1763
28431W        W44048  16.142  11.234  15.568  0.0532 -0.1677 -0.0966
28432W        W44049   1.601  11.924  15.015 -0.0937 -0.0623  0.2610
28433W        W44050  15.654   1.546  10.970 -0.3800 -0.0771 -0.1941
28434W        W44051   3.822   8.957   5.944  0.0999 -0.2447  0.2401
28435W        W44052   3.176  14.009  15.123 -0.2398 -0.2526  0.4042
28436W        W44053  16.898   7.856  13.274 -0.1504  0.1234 -0.2832
28437W        W44054   1.843   2.278   0.556 -0.1754 -0.1808  0.4601
28438W        W44055  14.682   8.141   2.422 -0.1575  0.0192  0.1315
28439W        W44056   6.726   8.516  12.960 -0.1216  0.0137  0.0945
28440W        W44057  13.389   1.795   1.131 -0.1954  0.1416 -0.0010
28441W        W44058   0.735  13.771   0.921  0.0606  0.4798  0.0520
28442W        W44059   5.387   5.419  13.196 -0.3165 -0.0561 -0.2677
28443W        W44060   0.161   9.433  15.521  0.1066  0.2089  0.4727
28444W        W44061  10.055   8.133  13.218  0.3555  0.1335  0.1259
28445W        W44062  11.191  16.781  16.077 -0.0472  0.1315  0.2380
28446W        W44063   6.047  10.749   3.141  0.4643  0.0953  0.2203
28447W        W44064  11.161  15.822   1.944  0.1256  0.0889 -0.1869
28448W        W44065   9.893   3.218  13.073  0.0838 -0.1624  0.4472
28449W        W44066   8.054   5.308  14.139  0.2215  0.5485  0.0417
28450W        W44067   2.654  12.547   5.314 -0.3989  0.0010 -0.0633
28451W        W44068  10.027   4.082   1.890 -0.4236  0.1970 -0.0122
28452W        W44069   4.533   1.459   3.409 -0.3660 -0.0888  0.0933
28453W        W44070  11.427   1.122   0.020  0.2119  0.1025  0.0869
28454W        W44071   6.287   2.828   2.576 -0.3344  0.1777 -0.0981
28455W        W44072   3.161  13.470   0.293 -0.3045 -0.0245 -0.2000
28456W        W44073   2.593  15.410   0.559 -0.1014 -0.1266  0.0951
28457W        W44074   0.775  15.286   3.074 -0.1126  0.0283 -0.4844
28458W        W44075  16.689   8.642  16.879  0.0613 -0.0936 -0.0243
28459W        W44076  17.054   5.432   0.824  0.0318 -0.0768 -0.1508
28460W        W44077   4.038   7.265  14.092  0.0725  0.1701 -0.1746
28461W        W44078   9.139   3.235  16.826 -0.0065 -0.0196  0.0452
28462W        W44079  15.572   3.749  12.796 -0.1043  0.0089  0.2306
28463W        W44080  11.908  15.454   2.533  0.1646 -0.0479 -0.0231
28464W        W44081   8.025   8.850  11.002 -0.0784  0.2568  0.1005
28465W        W44082  10.733   1.237   2.498 -0.1049  0.0750 -0.2967
28466W        W44083   2.942   1.261   3.712  0.2364 -0.1040 -0.0853
28467W        W44084  13.348   1.629   3.630  0.1311 -0.0186  0.2897
28468W        W44085   0.300  10.993   1.456 -0.2432 -0.0140  0.1785
28469W        W44086  13.884   4.212  12.225  0.1074  0.1600 -0.1405
28470W        W44087   5.034   0.144  12.672  0.1013 -0.0061  0.1148
28471W        W44088   3.373  16.991  16.182  0.1874  0.0719 -0.2925
28472W        W44089   9.096   3.925  15.584 -0.2506 -0.0210 -0.1787
28473W        W44090   9.319  10.206   6.056  0.1008 -0.1751  0.1077
28474W        W44091   5.938  11.702   3.582  0.2499 -0.1906 -0.2363
28475W        W44092   3.667  13.341   0.574  0.2322  0.2489  0.1101
28476W        W44093   3.537  10.505  15.217 -0.1657  0.0178 -0.1637
28477W        W44094   5.439  16.973   3.711  0.0729  0.1505  0.1314
28478W        W44095  15.038   2.654  15.518  0.3583 -0.0379  0.0295
28479W        W44096   7.839   4.486  16.329  0.4414 -0.0404  0.1794
28480W        W44097  12.727  10.329  12.597  0.2315  0.0177  0.1382
28481W        W44098   6.841   9.353  15.631  0.2916  0.0946 -0.0879
28482W        W44099  14.167   4.483   5.180 -0.1186  0.1903 -0.0283
28483W        W44100   2.921   6.474  16.085  0.0859 -0.0423 -0.0351
28484W        W44101   2.463  12.515   1.008 -0.0285  0.0066 -0.2784
28485W        W44102  11.439   4.087   3.228 -0.3487  0.1219 -0.2574
28486W        W44103  11.011   1.845   2.732  0.0898  0.0486 -0.1596
28487W        W44104   2.188  15.777  12.226  0.1872  0.3781  0.4353
28488W        W44105  15.234   2.407  13.721  0.1166 -0.2722 -0.1934
28489W        W44106   6.279   2.349  13.558  0.2873  0.4108 -0.2094
28490W        W44107  13.487  14.246   3.009  0.1934 -0.3565 -0.4369
28491W        W44108   0.078   1.349  16.733 -0.1487 -0.2934 -0.2473
28492W        W44109  11.002   6.935  13.722 -0.0801 -0.0194  0.0538
28493W        W44110  17.362  10.973   0.833  0.0853 -0.0098 -0.0785
28494W        W44111  13.854   8.670  15.708  0.3926  0.2146  0.0348
28495W        W44112   7.420   1.819  16.538  0.0339 -0.1895 -0.1220
28496W        W44113  12.672   6.464   1.601 -0.1655 -0.2525  0.1423
28497W        W44114  13.478  15.001   1.870 -0.0465 -0.3307 -0.2519
28498W        W44115   2.060   2.694  12.891  0.1467 -0.2454 -0.2943
28499W        W44116  12.298   9.187  17.010 -0.0516 -0.0530 -0.0694
28500W        W44117   7.237   1.891   5.786 -0.0649  0.0650  0.1682
28501W        W44118  13.281   8.685  16.433 -0.2012  0.1948 -0.0192
28502W        W44119   7.942   7.370   1.419 -0.1473 -0.0090  0.0731
28503W        W44120  10.343   3.956  16.491 -0.2857  0.0837 -0.3894
28504W        W44121  15.082  15.077  16.531 -0.0677  0.1050  0.0395
28505W        W44122  12.687   9.540   5.643  0.3128  0.0911  0.1839
28506W        W44123  15.101   0.993  16.882  0.1424 -0.3443  0.0181
28507W        W44124   0.651   0.410  13.897 -0.0248 -0.1519 -0.0376
28508W        W44125   3.340  14.702   0.455  0.0134 -0.2010 -0.4244
28509W        W44126   3.134   6.582   1.164  0.0395  0.0722  0.1204
28510W        W44127  13.530  15.477  11.343  0.1780  0.0525  0.3224
28511W        W44128  10.923   4.021   3.437  0.2062  0.2350  0.3717
28512W        W44129   1.518   2.711   2.778  0.2784 -0.0235 -0.2133
28513W        W44130  11.056   0.889   0.794  0.0271  0.0970 -0.0107
28514W        W44131   3.077  17.334   4.021  0.0320 -0.2219  0.0429
28515W        W44132   9.393   6.934  15.419  0.1187  0.1425 -0.1147
28516W        W44133   2.244  17.112   3.232  0.1665 -0.0658  0.1067
28517W        W44134   5.878  14.053  15.953  0.1257  0.1154 -0.3377
28518W        W44135  12.327   0.367   1.419 -0.0689 -0.2089 -0.2147
28519W        W44136   2.742   9.261   5.479  0.0573  0.3009 -0.2513
28520W        W44137  11.572   8.364   4.116  0.4199 -0.0546 -0.3150
28521W        W44138   1.309   4.195  12.098  0.0937  0.1692  0.0455
28522W        W44139  14.779   4.224  11.145  0.1899  0.1681 -0.0204
28523W        W44140   0.590   9.772   4.531 -0.1507 -0.1007 -0.1666
28524W        W44141   1.556   1.344   1.716 -0.0086  0.0405 -0.3408
28525W        W44142  15.378  11.468  12.440  0.1528 -0.1003 -0.1263
28526W        W44143  10.430   8.626  13.087  0.2181  0.0392 -0.1149
28527W        W44144   0.646   0.799  15.018 -0.0831 -0.1127 -0.2169
28528W        W44145   3.324  10.997  14.580 -0.1448 -0.1475  0.3625
28529W        W44146   3.408   1.653   0.993  0.1659 -0.0226  0.0140
28530W        W44147  14.220  13.857   2.371  0.3473 -0.3503 -0.1452
28531W        W44148   0.713  16.601  16.005 -0.3312  0.1436  0.1547
28532W        W44149   5.318   9.153  16.577 -0.2941 -0.0707  0.1532
28533W        W44150   3.558   1.948   3.514  0.1714  0.1405  0.1980
28534W        W44151   5.807  14.750  16.341 -0.0835  0.1939 -0.0014
28535W        W44152   6.254   9.633  13.167  0.1367  0.1588  0.1187
28536W        W44153   3.075  13.372  16.350 -0.1451  0.2322  0.1162
28537W        W44154   9.630  13.478  10.992  0.2062 -0.0634 -0.1806
28538W        W44155  16.656  14.670   4.331 -0.0278 -0.0705 -0.1750
28539W        W44156   0.007  12.068   0.177  0.0408 -0.4631 -0.1964
28540W        W44157  17.290   0.361   5.704  0.1734 -0.1310 -0.2829
28541W        W44158   8.006   0.836   1.738 -0.1572  0.0292  0.2047
28542W        W44159   2.085  10.743  17.229 -0.0412 -0.1347 -0.2623
28543W        W44160   4.701  10.559   3.438 -0.4230  0.2260  0.0144
28544W        W44161  13.309   3.573   0.302 -0.1180  0.1565 -0.1680
28545W        W44162  10.184   0.874  14.331 -0.2420 -0.1405 -0.0540
28546W        W44163  13.005  17.355   3.677 -0.0681 -0.0238 -0.0592
28547W        W44164   6.966   7.195  11.873  0.3639 -0.3011  0.1220
28548W        W44165  14.084   3.275  16.209  0.0260 -0.2716 -0.0846
28549W        W44166   5.821  13.156   3.929 -0.0575  0.1221 -0.3128
28550W        W44167  11.088   4.182   4.486  0.2979  0.0913  0.2206
28551W        W44168   9.474  17.522   6.016 -0.0350  0.2118  0.3711
28552W        W44169   3.436   6.725   6.581  0.0030 -0.0789  0.0182
28553W        W44170  10.181   8.428   5.561 -0.1809 -0.2798  0.0888
28554W        W44171   1.108  12.953   3.165  0.0965  0.1052  0.0395
28555W        W44172  10.111  16.101   3.603  0.2448 -0.1053 -0.2091
28556W        W44173   0.066   3.462   3.176 -0.0780  0.1916 -0.1242
28557W        W44174   5.888   2.452  13.866 -0.1149 -0.0689  0.1032
28558W        W44175  16.510   2.437   3.973 -0.0227  0.3418 -0.1946
28559W        W44176   0.329  17.398   1.953 -0.1177  0.0824  0.1179
28560W        W44177  12.287   5.841   2.687  0.0216  0.1182 -0.2836
28561W        W44178  12.055   4.130  12.558 -0.0629  0.0162  0.1124
28562W        W44179   7.227   3.772   0.726  0.0498  0.1609  0.2725
28563W        W44180   9.550  13.937   4.665 -0.1286 -0.0322 -0.1268
28564W        W44181   4.432   2.165   3.599 -0.1230 -0.1473  0.2525
28565W        W44182   5.455  16.549  16.421  0.1688  0.1681  0.1504
28566W        W44183   9.702  17.544   3.269  0.4704 -0.0208  0.0924
28567W        W44184   5.074   1.287  16.984  0.0113 -0.1654  0.2951
28568W        W44185   6.119   4.363   2.407 -0.1609  0.2169  0.1927
28569W        W44186   3.080  11.075   5.605 -0.0248  0.0627  0.0093
28570W        W44187   2.923   2.153  11.943  0.2622 -0.3041  0.1766
28571W        W44188   6.900   8.207  12.151  0.0169 -0.3782 -0.3526
28572W        W44189   1.257   7.748   0.725 -0.3937 -0.1360  0.2317
28573W        W44190   7.453  13.032  17.157 -0.2022  0.0708  0.1615
28574W        W44191  11.483   8.787  14.436  0.0882  0.1851  0.1705
28575W        W44192  13.194   6.985   0.601 -0.0214  0.0845 -0.0412
28576W        W44193   1.038   2.467   3.363 -0.0813 -0.1369 -0.2961
28577W        W44194   6.651  17.020  12.212 -0.2327 -0.0654  0.1224
28578W        W44195   0.955  11.993  13.036  0.2215  0.2115  0.2421
28579W        W44196  11.681  13.505  15.188 -0.1548  0.0533 -0.0376
28580W        W44197  14.418  16.328   1.696  0.1632 -0.0982  0.2212
28581W        W44198   7.657  10.258  13.219 -0.0150 -0.2377 -0.1919
28582W        W44199   3.104  14.429   2.998 -0.1461 -0.0906  0.1372
28583W        W44200  10.464  11.965   0.518  0.0854 -0.2833 -0.3129
28584W        W44201   3.367   6.942  12.695 -0.3869 -0.0085 -0.0373
28585W        W44202   2.989  10.000   0.260 -0.3877  0.0993  0.0117
28586W        W44203   2.717   6.144  12.271  0.0797  0.1576  0.0620
28587W        W44204  12.663  11.735   0.593 -0.2480  0.0683  0.0733
28588W        W44205   6.960   8.520   0.343 -0.0881  0.0581  0.0534
28589W        W44206   8.760   1.483   3.432  0.0683  0.0496 -0.2593
28590W        W44207   6.182   2.842  12.100 -0.1805 -0.3688  0.2873
28591W        W44208   7.313  14.394   5.309  0.0784 -0.0664  0.0508
28592W        W44209  12.959   5.471  11.692  0.0573 -0.1478  0.0704
28593W        W44210  16.847  16.335   3.611 -0.3716  0.0545  0.2750
28594W        W44211  12.533   0.654  12.821 -0.1055 -0.1006 -0.1589
28595W        W44212   2.778  15.530  11.952  0.0407  0.2578 -0.1152
28596W        W44213  13.170   1.050   0.659 -0.0967 -0.0961  0.1632
28597W        W44214  12.283  14.444  17.287  0.1249 -0.0814  0.0005
28598W        W44215  10.518  12.399  13.387  0.0286 -0.0373  0.0395
28599W        W44216  14.527   6.148  16.022  0.1805  0.1911  0.1597
28600W        W44217   9.905   5.150   4.984 -0.2164 -0.0124  0.2426
28601W        W44218   4.229  11.835  15.273  0.0810 -0.1195 -0.0196
28602W        W44219   0.774   0.820   2.795  0.1262  0.0693 -0.2325
28603W        W44220  16.251   3.188  15.022  0.2606  0.0846  0.0028
28604W        W44221  16.961   0.115  15.981 -0.2677 -0.2063  0.0744
28605W        W44222  14.230   3.579   5.317  0.0890  0.4210 -0.0028
28606W        W44223  10.466  11.163   4.996  0.2694  0.2547  0.0907
28607W        W44224  13.160  10.708   5.401  0.3251  0.2701  0.2232
28608W        W44225  14.127   0.308   2.675 -0.2087  0.0548  0.2746
28609W        W44226  11.139   6.657   0.444  0.1767 -0.0896 -0.2350
28610W        W44227  10.926   0.334  16.082 -0.1986 -0.0432  0.0818
28611W        W44228  12.990   0.453  14.011 -0.0018  0.2901  0.1040
28612W        W44229   1.998   3.484  14.940  0.3976  0.0102  0.1692
28613W        W44230   7.466   1.467   6.035 -0.0597  0.0334  0.0221
28614W        W44231   4.724   7.449   5.056 -0.0561  0.0091 -0.2243
28615W        W44232   2.086   8.618  15.095  0.0025 -0.3050 -0.2350
28616W        W44233  15.761   7.811   4.354  0.1674 -0.2705 -0.1419
28617W        W44234  11.764   4.182   5.492  0.0315 -0.2983  0.0406
28618W        W44235   8.727  16.677  16.195 -0.0180  0.0392 -0.2001
28619W        W44236  11.617   1.582   0.517  0.2481 -0.1768  0.0777
28620W        W44237   0.200   9.123   1.331 -0.2274  0.0901 -0.2948
28621W        W44238   2.170  16.135   3.802 -0.1431 -0.0762  0.0387
28622W        W44239   3.421   2.938   4.469  0.2262 -0.0126 -0.0035
28623W        W44240   8.053  15.073   2.406  0.1082 -0.1410  0.0129
28624W        W44241   0.125  12.203  15.793  0.0651  0.2924 -0.3351
28625W        W44242   9.606   2.191  13.833  0.0757  0.2279  0.3336
28626W        W44243   5.936  12.153   2.164  0.3126  0.2288 -0.0707
28627W        W44244  13.275   2.937  16.351 -0.1663  0.1042 -0.1184
28628W        W44245   6.864  12.524  15.907  0.2252  0.0335  0.2058
28629W        W44246   0.828  15.543  16.930  0.1148 -0.3142 -0.1666
28630W        W44247  13.634   9.322  14.538 -0.3134  0.1419 -0.3652
28631W        W44248  11.035   2.433   3.372 -0.0826  0.1391  0.2949
28632W        W44249  16.967   9.274   4.274 -0.1453  0.1113  0.0960
28633W        W44250  13.024   9.740  12.829  0.0891  0.0442  0.1987
28634W        W44251   6.520  16.971   2.701 -0.0536 -0.0821  0.0682
28635W        W44252   8.703   3.641   5.782 -0.3670  0.2596  0.0225
28636W        W44253   2.698   4.769   2.386  0.0763 -0.0500  0.0021
28637W        W44254   7.772  13.439   0.463  0.1403  0.0734 -0.1131
28638W        W44255   9.941   9.230   1.280 -0.2734  0.3562  0.0482
28639W        W44256  13.676  12.343  14.370 -0.1090 -0.0583  0.0749
28640W        W44257   0.219  16.270   4.400  0.0420 -0.1682 -0.2491
28641W        W44258  15.831   8.024  15.348 -0.0929  0.1635  0.2371
28642W        W44259   0.829   8.701   5.763  0.0140  0.0725 -0.0243
28643W        W44260   2.745   3.243   3.474  0.0807 -0.0020 -0.0223
28644W        W44261   6.392  14.949  11.390  0.3147  0.1778  0.1220
28645W        W44262  14.275   1.040  15.340  0.2340 -0.2213  0.1597
28646W        W44263  10.499  16.770   3.212 -0.2525 -0.2070  0.4964
28647W        W44264   7.070   0.655  15.590  0.1859 -0.0003  0.1700
28648W        W44265  17.594  14.405   3.464 -0.0738 -0.1018  0.2597
28649W        W44266   0.598   2.350   4.244 -0.4439  0.2307 -0.0181
28650W        W44267  13.263  12.991  15.574  0.1905  0.0453 -0.1108
28651W        W44268   5.520   3.497  15.586 -0.1693 -0.1988  0.0522
28652W        W44269   9.102   5.640   0.555  0.2194  0.0275  0.3060
28653W        W44270   8.137   3.822  12.417 -0.0704  0.0077 -0.1593
28654W        W44271   2.292   5.144   2.456 -0.2031 -0.2252 -0.0199
28655W        W44272   3.672   0.991   1.069  0.2941  0.0537 -0.0181
28656W        W44273   4.270  15.086   4.421 -0.2476 -0.1404 -0.0697
28657W        W44274  14.485  16.704  12.187  0.1401  0.3569 -0.0033
28658W        W44275  12.166   5.327  17.230  0.0676  0.4164 -0.2275
28659W        W44276  10.850  12.616  12.956  0.0856 -0.2866 -0.2679
28660W        W44277   5.885   8.559   2.770  0.2934 -0.0808  0.1481
28661W        W44278  13.792  11.032  13.762 -0.0650  0.2115 -0.0021
28662W        W44279  16.627  14.350   1.220 -0.2546  0.3154 -0.0727
28663W        W44280  11.435  15.045   4.873  0.0361  0.0601  0.3268
28664W        W44281  16.804  13.849   1.116 -0.1397 -0.3376  0.0389
28665W        W44282   7.122   0.616  13.453  0.3043  0.0042  0.0323
28666W        W44283  16.704   5.056  12.181 -0.0006 -0.1290 -0.2660
28667W        W44284   6.988   1.586   0.722  0.0383  0.0376  0.0754
28668W        W44285   0.558  15.838  13.918 -0.1041  0.1638  0.2457
28669W        W44286   6.992   3.452  12.391  0.2411 -0.3977 -0.2078
28670W        W44287  13.836  11.384  14.556  0.3098 -0.2705  0.1763
28671W        W44288   8.157   4.211   5.529 -0.0690  0.0869 -0.0573
28672W        W44289   9.755   6.805  13.222  0.0357  0.0576 -0.0081
28673W        W44290   1.375   7.838   5.775  0.1886 -0.4253  0.1656
28674W        W44291  13.318   9.468  16.413  0.2728 -0.0974 -0.0660
28675W        W44292   3.577  15.336  16.554  0.0520  0.1142 -0.1489
28676W        W44293  10.487   6.273  16.633  0.1328  0.4175  0.0487
28677W        W44294   4.755   0.556  15.443 -0.0216  0.0168  0.1101
28678W        W44295  14.771   2.743   1.858  0.3637 -0.0218 -0.3328
28679W        W44296  13.561  13.296  16.560  0.0217  0.0908  0.0055
28680W        W44297  11.692   6.655  16.133 -0.0029  0.0165  0.1499
28681W        W44298  11.211  10.090  13.040  0.0475  0.0796  0.0639
28682W        W44299  13.112   2.192   2.956 -0.3651  0.1467 -0.0552
28683W        W44300  11.711   5.186  17.069 -0.0947 -0.0527  0.4555
28684W        W44301   5.070  14.096  15.320  0.3461  0.2957 -0.2446
28685W        W44302   8.699  15.689  15.597  0.0445  0.0823 -0.2462
28686W        W44303   1.040   5.727   3.965  0.1351 -0.1809  0.2244
28687W        W44304  10.659  13.497  13.330 -0.3210 -0.1223 -0.1605
28688W        W44305   1.677  13.346   5.264  0.1703  0.0112  0.3251
28689W        W44306   7.519   8.350   5.309  0.0338  0.2751 -0.1017
28690W        W44307   1.231  12.327  12.717 -0.0255  0.1282 -0.0713
28691W        W44308  10.010   3.863   0.436 -0.0196  0.1818 -0.3365
28692W        W44309  11.740   9.828   1.527 -0.0727 -0.0239  0.3546
28693W        W44310  14.321  15.039  17.019  0.0970  0.0619 -0.0398
28694W        W44311  12.167   8.982  15.272  0.0785 -0.0567  0.3722
28695W        W44312   5.458  11.382  15.240 -0.1325  0.0028  0.0839
28696W        W44313   8.304  14.940  16.808 -0.1340  0.1051 -0.1654
28697W        W44314  11.806   4.497  13.833 -0.0303 -0.1734  0.0021
28698W        W44315   5.624  16.041   4.704  0.2789  0.0742  0.0842
28699W        W44316  11.761  10.269  16.619  0.0184  0.0201  0.1605
28700W        W44317  17.239   8.902  16.970  0.1217  0.1871  0.4349
28701W        W44318   8.646  14.358  13.161 -0.3305 -0.2337  0.0969
28702W        W44319   2.044   2.138   1.110  0.1945 -0.0333 -0.3655
28703W        W44320   1.847   9.304   4.786  0.2719  0.1796 -0.0972
28704W        W44321   5.376  14.846   6.322  0.2405  0.0586  0.1124
28705W        W44322   0.264  13.241  12.071  0.0547 -0.3353 -0.0606
28706W        W44323  16.624   7.873   0.436  0.0174  0.0330  0.2488
28707W        W44324  12.945   7.038  13.967 -0.1636 -0.1610 -0.1952
28708W        W44325   2.527   1.466   1.376 -0.0142 -0.0634  0.0372
28709W        W44326   1.523   3.305  13.193 -0.0626  0.1079  0.2462
28710W        W44327  10.446   3.800   2.084 -0.1376 -0.0726  0.0051
28711W        W44328  14.989  16.334  10.348  0.0108 -0.1001  0.0949
28712W        W44329   8.596   8.436   3.169  0.1107 -0.0566 -0.0017
28713W        W44330   9.595   7.030  14.914  0.2619 -0.0038 -0.1509
28714W        W44331   6.277   6.463  12.941 -0.0033  0.2369  0.2263
28715W        W44332   1.549   5.624   5.936 -0.2770 -0.1363  0.0182
28716W        W44333  12.659   3.658   6.151 -0.2030 -0.2869 -0.0959
28717W        W44334   4.804  16.977  17.072 -0.0463 -0.0392  0.1256
28718W        W44335   3.191   9.325   1.734  0.0094  0.0328  0.0154
28719W        W44336   7.790  15.766   5.400 -0.2206  0.0108  0.0266
28720W        W44337  10.543   3.354   1.830  0.2746 -0.0714 -0.1955
28721W        W44338  17.485  13.031   5.851  0.2598 -0.2164  0.0747
28722W        W44339   0.096   1.475   3.368 -0.2073  0.0314 -0.2827
28723W        W44340   1.918  12.849  17.017  0.1988  0.2772  0.1303
28724W        W44341  16.572  11.274   0.240 -0.0593 -0.0105 -0.1391
28725W        W44342   6.983  12.991   1.898 -0.2115 -0.0504 -0.0463
28726W        W44343   0.682  16.611  12.306 -0.0046  0.2978 -0.1891
28727W        W44344   9.098  15.057   1.119 -0.0298 -0.0627 -0.1612
28728W        W44345   5.924  16.223  12.902 -0.1626 -0.3267  0.2466
28729W        W44346   8.420   8.846  17.236 -0.0313  0.1836 -0.0690
28730W        W44347  14.525   6.326   2.108 -0.1485 -0.0517 -0.1325
28731W        W44348   2.444  14.198   1.272 -0.1601 -0.1067  0.2072
28732W        W44349   7.357   3.281   0.858 -0.0815  0.1579 -0.0040
28733W        W44350   3.123   6.785   4.126  0.0811 -0.1867  0.0042
28734W        W44351   7.914  15.219  15.031  0.1126 -0.1908  0.0973
28735W        W44352  13.908   4.389  14.367  0.4658  0.3015  0.0687
28736W        W44353  16.347   2.702   2.204 -0.0095  0.0068  0.1013
28737W        W44354   3.938   3.052  15.941  0.1064 -0.2085 -0.0915
28738W        W44355  11.359  17.333  16.779 -0.2209  0.0716 -0.0439
28739W        W44356   9.924   5.732   3.376  0.0815 -0.2499 -0.0800
28740W        W44357   9.685  14.617   3.220  0.3859 -0.1600 -0.0335
28741W        W44358  14.387   9.454  15.594 -0.2139  0.1174  0.4273
28742W        W44359   2.283   3.109  12.667 -0.1817 -0.4013 -0.2458
28743W        W44360   1.491  10.407   2.892  0.1054  0.1637  0.3142
28744W        W44361   9.114   7.682   3.865 -0.1209  0.2927 -0.0360
28745W        W44362  11.088  15.636  13.096  0.1724 -0.1608 -0.3443
28746W        W44363   6.011   7.228   2.055  0.0861  0.1750 -0.0166
28747W        W44364   4.543   7.902   4.946 -0.0881 -0.0903  0.1370
28748W        W44365   1.579   0.342  17.235  0.2700  0.0281  0.0943
28749W        W44366  13.892  11.050   7.033 -0.0685 -0.1323  0.0925
28750W        W44367   3.357  17.075   3.206 -0.2975 -0.1439  0.2684
28751W        W44368   0.399   5.933  14.234 -0.2131 -0.5491  0.0370
28752W        W44369   0.365  16.415   0.466  0.0203 -0.0181 -0.1582
28753W        W44370  14.696   9.908  13.388 -0.0155  0.0924 -0.3014
28754W        W44371  14.136   1.205  15.823  0.1821 -0.0579 -0.1758
28755W        W44372   1.052   3.436   5.884 -0.1486  0.0633  0.0506
28756W        W44373   6.815  13.625  12.368  0.1875 -0.2280  0.3781
28757W        W44374   8.973  17.325   0.959  0.2190  0.0272 -0.0504
28758W        W44375   4.421  14.691   2.267 -0.0950 -0.0243 -0.0553
28759W        W44376  13.770   6.780  15.633  0.1752 -0.0365 -0.3096
28760W        W44377   5.035  16.582  13.266 -0.2125  0.1905 -0.5285
28761W        W44378   1.883  15.684   4.544 -0.1756  0.1309 -0.2269
28762W        W44379   9.817  14.763   5.173  0.0332 -0.2401  0.0717
28763W        W44380   4.122  15.178   0.460  0.0526 -0.0448 -0.1971
28764W        W44381  10.993  13.820   6.114  0.0363  0.0487  0.0426
28765W        W44382   9.908  16.779  11.493 -0.2610  0.2056 -0.2227
28766W        W44383  16.808   9.072  17.074 -0.0615  0.0565 -0.3271
28767W        W44384  12.104  11.404   1.241  0.4756  0.4797  0.1408
28768W        W44385  10.500   8.876  15.351  0.2655 -0.4330  0.0077
28769W        W44386  11.775  10.547  13.810  0.1034 -0.2283 -0.1260
28770W        W44387  15.613   5.385  14.273  0.1154 -0.1947  0.1890
28771W        W44388   8.290  12.931   2.056  0.2686 -0.2280 -0.0105
28772W        W44389   1.174  13.592  13.490  0.2040 -0.1782  0.1668
28773W        W44390  16.993   4.602   3.532 -0.3042  0.3934  0.1870
28774W        W44391  11.068   0.437   4.372  0.0292 -0.3395  0.1397
28775W        W44392  16.957   7.876  16.574 -0.0815 -0.2933 -0.2648
28776W        W44393  12.694   0.513  16.781 -0.0786  0.0417  0.1824
28777W        W44394  12.716   4.125   0.322 -0.0235  0.2017  0.0596
28778W        W44395  16.880   5.363  13.148 -0.3856  0.0709  0.1792
28779W        W44396   7.918   5.585  11.895  0.0863 -0.1714 -0.3119
28780W        W44397  15.505  10.344   2.623 -0.0545 -0.0895  0.0581
28781W        W44398  11.445   3.903  14.446 -0.2781  0.0252  0.4690
28782W        W44399   9.192  12.473   4.968 -0.1333  0.2631 -0.1787
28783W        W44400   8.291  10.537   2.089 -0.2716 -0.3625  0.0361
28784W        W44401   4.715   4.506   0.110 -0.2354 -0.0329  0.2103
28785W        W44402  16.777   1.780  12.778  0.0904 -0.0585 -0.1973
28786W        W44403  15.104   4.306  15.784 -0.4255  0.2717 -0.1794
28787W        W44404  10.232   4.081  14.894 -0.1356  0.2749  0.1146
28788W        W44405  16.849  15.060   2.599  0.1492 -0.1160 -0.1640
28789W        W44406   4.012   4.979   3.977  0.1801 -0.0398 -0.2627
28790W        W44407   2.213   8.184   0.033  0.0321 -0.1733  0.3039
28791W        W44408  10.933  11.498   0.352 -0.0739 -0.0439 -0.1226
28792W        W44409   8.735   2.564  12.680 -0.2886  0.0778  0.1404
28793W        W44410   3.368   8.319   3.242  0.1195  0.0007  0.3212
28794W        W44411   3.665  12.543   2.439  0.0616  0.2879 -0.1337
28795W        W44412  16.039  14.141   0.115 -0.1029 -0.0026 -0.1955
28796W        W44413   2.584  13.894   6.280 -0.0791  0.2346 -0.0759
28797W        W44414   6.332  11.315  14.254  0.3637 -0.0635  0.0694
28798W        W44415   8.931   1.288   1.789 -0.1636 -0.2935  0.0636
28799W        W44416  15.623   1.570  13.070 -0.1197 -0.2695  0.0621
28800W        W44417  11.470  11.112  14.603  0.1943 -0.0117  0.0221
28801W        W44418   2.541   5.738   5.661  0.2603  0.2112 -0.0580
28802W        W44419  16.430   0.840   4.522  0.0304  0.0317  0.1884
28803W        W44420   2.008  13.026   2.751  0.3437  0.1378  0.3548
28804W        W44421   4.399   3.912   4.817  0.0911 -0.1710 -0.0121
28805W        W44422   1.260   9.952  12.298  0.2420 -0.2235  0.1803
28806W        W44423   9.610  11.157  14.447  0.1721 -0.1512 -0.4352
28807W        W44424  12.505  16.139   1.423 -0.1071  0.0796  0.0440
28808W        W44425   9.979   3.990   3.843 -0.0402 -0.2398 -0.2892
28809W        W44426  11.266   7.348  16.370 -0.3199  0.1700 -0.0779
28810W        W44427   6.910   0.207  15.594 -0.0659 -0.0987 -0.0477
28811W        W44428  12.525  16.284   3.057  0.0509 -0.0482  0.0166
28812W        W44429  12.755   7.451   5.608 -0.3535  0.0887  0.0213
28813W        W44430   9.683  11.894   0.072 -0.0833  0.1233 -0.2789
28814W        W44431   6.877  16.027   5.646  0.0580 -0.2190 -0.0975
28815W        W44432  15.497  11.377  16.168 -0.0312 -0.0953 -0.3920
28816W        W44433   3.069   9.770   3.489  0.0158  0.0552  0.1246
28817W        W44434  10.850  17.583   0.769 -0.1701 -0.0984 -0.0025
28818W        W44435  13.339   5.391   0.292 -0.2306  0.0292 -0.0289
28819W        W44436   0.247   5.650   0.851 -0.2677 -0.0424 -0.1074
28820W        W44437   4.660   6.827   1.975  0.0995  0.0337 -0.0370
28821W        W44438  13.722  12.764   4.718 -0.0472  0.2023  0.1731
28822W        W44439  14.119   0.279  17.270 -0.1154  0.4773 -0.2584
28823W        W44440   3.347   4.419  16.743  0.0291  0.2672 -0.0388
28824W        W44441  15.592  14.708   6.078  0.1180 -0.0840 -0.3458
28825W        W44442   7.541  15.485   4.506 -0.0130  0.1201 -0.0794
28826W        W44443   7.603   6.850  12.438  0.0929 -0.2629  0.1042
28827W        W44444   4.332   7.729   2.344 -0.0499 -0.0623  0.0867
28828W        W44445   8.407  17.310  15.535  0.1837 -0.0963  0.1149
28829W        W44446  15.426  12.171  11.931 -0.0403 -0.1760  0.2315
28830W        W44447   5.197   5.666   0.620 -0.1018  0.1423 -0.2415
28831W        W44448  10.407  10.481  15.585 -0.2965  0.0786 -0.0050
28832W        W44449   4.095   8.019  12.853  0.1768  0.0621  0.1061
28833W        W44450  15.386   8.914   2.113 -0.0429 -0.1448 -0.2359
28834W        W44451   7.363   8.096  16.992  0.1163 -0.1677 -0.0373
28835W        W44452   2.353  12.164   6.121  0.3191  0.2131 -0.3224
28836W        W44453   3.760  13.128   3.078 -0.4009 -0.3751 -0.0091
28837W        W44454  11.492   8.502   1.691 -0.0232 -0.1472 -0.0757
28838W        W44455   9.976   4.802   1.187 -0.0166  0.1965 -0.3022
28839W        W44456   5.405   2.163  11.990 -0.2356 -0.0938  0.3738
28840W        W44457   9.240  14.899   0.608 -0.0538  0.1284  0.1227
28841W        W44458   0.868   4.729   6.397 -0.0108  0.4144  0.1515
28842W        W44459   2.269  12.072   0.871 -0.0910  0.1184 -0.1252
28843W        W44460   3.804  15.507   0.686 -0.1990  0.4162 -0.1220
28844W        W44461   0.432  13.035   3.506 -0.1048  0.1154 -0.0281
28845W        W44462  16.984  16.891   1.903  0.3207  0.2345  0.0133
28846W        W44463  13.827   8.414   4.605 -0.0751  0.1023  0.3204
28847W        W44464  16.687  15.628  11.349 -0.0412 -0.0831 -0.1121
28848W        W44465   5.012   0.135  15.437  0.4863  0.2264  0.1162
28849W        W44466   5.458  10.067   3.025 -0.1109  0.1753 -0.0979
28850W        W44467  13.705  11.455  12.760  0.0674 -0.2076 -0.1415
28851W        W44468   1.763  15.585  11.979  0.0048  0.0750 -0.1399
28852W        W44469  13.923   6.866  13.832 -0.0049  0.0871  0.1872
28853W        W44470   0.092  11.294   5.142 -0.1489  0.0753 -0.0276
28854W        W44471   7.796  14.346   4.591  0.0720 -0.0255  0.1511
28855W        W44472  14.731   1.386  17.227  0.1069  0.0623  0.2073
28856W        W44473  16.108  15.655   5.183 -0.1723 -0.1745 -0.0925
28857W        W44474  12.687   2.236   2.609 -0.2130  0.1040 -0.0474
28858W        W44475  10.212  11.396   5.401 -0.2961  0.1905  0.1696
28859W        W44476  15.118  11.772   5.353 -0.0929 -0.1819  0.2682
28860W        W44477  14.775   4.758   2.335  0.1542  0.1962 -0.0044
28861W        W44478  10.820  12.229   2.823  0.1652 -0.2112  0.1444
28862W        W44479   3.985  17.522   1.910  0.1852 -0.2291  0.1414
28863W        W44480   5.000   0.081   5.224  0.1625  0.0780 -0.0535
28864W        W44481  16.147   9.984  12.678 -0.0469 -0.1240  0.2625
28865W        W44482   4.448   0.947   3.544  0.2348 -0.1913 -0.0117
28866W        W44483  14.210   0.808  12.885 -0.0118  0.1329 -0.0639
28867W        W44484  16.124   1.863  12.109 -0.0487  0.3297 -0.0645
28868W        W44485   6.382  17.378  14.394  0.3050 -0.3015 -0.0539
28869W        W44486   9.374  11.410  12.502  0.2205 -0.1567  0.0130
28870W        W44487   9.403   5.002  16.478  0.0698 -0.1732  0.1837
28871W        W44488  12.927  11.850  16.053 -0.1587 -0.1832  0.0522
28872W        W44489  10.271  10.970   0.217 -0.0050 -0.1016 -0.2022
28873W        W44490   8.571  11.627  15.606  0.0239 -0.0822 -0.4598
28874W        W44491   0.685   3.056   0.132 -0.0610  0.0381 -0.2629
28875W        W44492   2.184   3.654   0.319 -0.0145 -0.1194 -0.0585
28876W        W44493   3.360   6.509  13.681 -0.1483  0.1990  0.1523
28877W        W44494   4.841  11.185   1.749  0.1262  0.0936 -0.1223
28878W        W44495   7.351  11.652  15.057 -0.1212  0.0052 -0.0538
28879W        W44496   5.555   2.772   0.853  0.1764  0.2178  0.0894
28880W        W44497  14.692  15.446   3.232 -0.2634 -0.1759 -0.4005
28881W        W44498  12.835   4.956   3.904  0.2230  0.0183  0.2200
28882W        W44499  14.762   8.463  12.362  0.2459 -0.2057  0.0119
28883W        W44500   7.901  15.227   0.907 -0.1294 -0.2050 -0.1404
28884W        W44501  16.814   8.771   4.479 -0.1850  0.0814 -0.3390
28885W        W44502   4.885  15.243   4.390  0.1374 -0.4612  0.2294
28886W        W44503  15.620  17.237   0.066 -0.1067 -0.0487  0.0590
28887W        W44504   6.569   0.017  11.286 -0.2942 -0.0197  0.1071
28888W        W44505   5.731  14.362  14.538 -0.0372 -0.3191 -0.0426
28889W        W44506   1.825  12.794  14.113 -0.0704  0.2947 -0.0858
28890W        W44507   2.801   3.041   1.906 -0.0015 -0.1992 -0.0375
28891W        W44508   9.108  11.266  13.294 -0.0108  0.2621  0.2921
28892W        W44509   3.469   2.358   0.211 -0.0945  0.0962  0.1545
28893W        W44510   4.395   4.464  15.716 -0.2027 -0.2193 -0.1748
28894W        W44511   7.575   1.123   2.959 -0.1494  0.3318  0.0209
28895W        W44512   6.316  13.384  16.682 -0.2337  0.0668 -0.2447
28896W        W44513   6.510   0.065   4.893 -0.0338  0.2271  0.2823
28897W        W44514   8.413   2.816   5.315  0.0694  0.1751  0.1307
28898W        W44515   0.284   2.963  14.906  0.2786 -0.0672  0.1183
28899W        W44516   1.028  10.873  16.736 -0.0699 -0.0032  0.0824
28900W        W44517   9.546  12.915  15.789 -0.0212 -0.0888 -0.0400
28901W        W44518  14.657   6.493   0.939 -0.0247  0.0141 -0.3057
28902W        W44519   9.127   7.063   0.832 -0.1121 -0.1121  0.1652
28903W        W44520   0.157   8.098   1.752 -0.2264 -0.0139  0.2187
28904W        W44521  15.685   4.892  15.991 -0.0504 -0.0027  0.0368
28905W        W44522  15.423  10.223  13.395  0.1052  0.0691 -0.1322
28906W        W44523  11.848   5.860   5.308 -0.1928  0.0815  0.0391
28907W        W44524  10.937   6.788  12.339  0.3000  0.1345  0.0469
28908W        W44525   3.018   8.699  16.914  0.5900  0.2475 -0.3453
28909W        W44526   8.995   2.879  15.724 -0.2919 -0.0245  0.0438
28910W        W44527  13.481   9.736  13.098  0.1358 -0.2242  0.0916
28911W        W44528   3.675   4.638   2.168  0.2321  0.1200 -0.1293
28912W        W44529   3.450   2.400   3.520  0.1685 -0.0334 -0.4434
28913W        W44530  15.967   0.098  15.775  0.0907 -0.2733 -0.2125
28914W        W44531   0.979  13.035  12.442  0.0319  0.3624 -0.0104
28915W        W44532   2.417  13.379   4.988 -0.0862 -0.0048  0.2046
28916W        W44533   8.102  12.636  11.929 -0.2825 -0.2462 -0.3023
28917W        W44534  16.145   4.837   0.173  0.1625  0.1025  0.1805
28918W        W44535  15.243   5.670  13.470  0.3976 -0.2210  0.0764
28919W        W44536   9.778   4.068  12.097  0.3076  0.0653  0.0150
28920W        W44537  10.116  17.560  16.380 -0.0876  0.0875 -0.0468
28921W        W44538   8.322  14.919  12.284  0.0788 -0.0735 -0.1275
28922W        W44539   0.361  16.461   3.546  0.1981  0.3249  0.1161
28923W        W44540  15.670  12.908  13.374 -0.1872  0.1156 -0.1290
28924W        W44541   1.423  13.027   5.542 -0.1364 -0.1423  0.0576
28925W        W44542   5.178   9.861  15.887  0.5926 -0.0344 -0.0043
28926W        W44543   1.686   7.399   3.510 -0.0572 -0.0185 -0.0133
28927W        W44544   1.140   7.397   2.657 -0.1932 -0.0954  0.1388
28928W        W44545   9.159   4.888  12.596 -0.3534  0.1691 -0.0329
28929W        W44546   5.242  17.081   2.190 -0.2527 -0.1734  0.4950
28930W        W44547  10.734   8.719   1.593  0.3203 -0.4818  0.0565
28931W        W44548  15.847   1.289  12.707  0.3358  0.1179 -0.1506
28932W        W44549   2.223   0.143  15.232 -0.2358 -0.0003 -0.1507
28933W        W44550  13.349   2.389  14.528  0.3120 -0.3084 -0.1613
28934W        W44551  11.212  15.922   2.466 -0.0431  0.6823 -0.0496
28935W        W44552   8.830   7.307  15.776 -0.1755  0.0489 -0.1719
28936W        W44553  16.427   3.183  13.686 -0.0900 -0.0731  0.1326
28937W        W44554   6.551  12.206  12.891  0.0578  0.2872  0.1219
28938W        W44555  16.111  14.181  14.247  0.0050  0.0370 -0.0360
28939W        W44556   5.598  13.930  15.304  0.1849  0.2688  0.2171
28940W        W44557  17.337  15.426   6.514  0.0718  0.0458  0.0545
28941W        W44558  14.023  11.729  14.901 -0.0406  0.0220 -0.2567
28942W        W44559   9.808  11.641   2.809 -0.0580 -0.1527  0.1225
28943W        W44560   2.611   8.722  12.781 -0.3133 -0.0660  0.0385
28944W        W44561  14.971   8.492   4.057 -0.1011 -0.0122  0.0030
28945W        W44562   3.206   0.710  15.727  0.6272  0.0532 -0.1561
28946W        W44563   5.171   8.830  15.546  0.1735 -0.0320 -0.0650
28947W        W44564   8.449   0.236  15.378  0.0280  0.3740  0.0073
28948W        W44565   4.842   8.325  13.203 -0.0497 -0.1685  0.0558
28949W        W44566   6.997   5.950  15.573 -0.0702 -0.0682 -0.0185
28950W        W44567   2.945  15.976  12.240 -0.1489  0.1470 -0.0532
28951W        W44568  17.585   4.971  15.303 -0.1881  0.1411  0.1569
28952W        W44569   3.774   7.562  16.084  0.2611 -0.2879  0.0456
28953W        W44570  10.407   7.542  15.000  0.0577  0.1959  0.0608
28954W        W44571  15.774   8.865   3.078 -0.1226 -0.0380 -0.3846
28955W        W44572  10.735   8.926  12.814 -0.1161  0.2507 -0.0880
28956W        W44573  13.280   4.804  12.837 -0.2253 -0.0679  0.0972
28957W        W44574  14.476  14.274  14.136 -0.1683 -0.1646 -0.0083
28958W        W44575  11.904   1.771  13.416  0.1382 -0.0460 -0.3425
28959W        W44576  16.429   6.312   5.476  0.1066  0.0568  0.1255
28960W        W44577  14.707  17.375   0.421  0.1689  0.4738  0.1823
28961W        W44578   8.498  11.721   2.860  0.1790  0.0297 -0.0377
28962W        W44579   7.479   5.872   3.728  0.1217  0.0195 -0.0555
28963W        W44580  13.204  12.011  16.547 -0.0605  0.1709 -0.2030
28964W        W44581   8.380  10.865   5.017  0.0812 -0.0045 -0.1630
28965W        W44582  12.690   5.011  14.018 -0.1280  0.4043  0.0061
28966W        W44583   4.618   9.918   2.828 -0.0728  0.1574  0.2990
28967W        W44584  14.498   1.379  16.761  0.1280 -0.1767 -0.2353
28968W        W44585   9.612  16.004  14.488 -0.0876 -0.1306 -0.3962
28969W        W44586  11.457   9.680  15.695 -0.2508 -0.2314 -0.1099
28970W        W44587  12.122  17.082   4.521 -0.1485 -0.2168  0.0693
28971W        W44588   8.869  11.860   3.165  0.0116 -0.0850 -0.0146
28972W        W44589   2.981  16.497   1.349 -0.0240 -0.0267  0.0747
28973W        W44590  10.004   3.147  16.752 -0.0479  0.2892 -0.0270
28974W        W44591  12.385  13.475   5.822 -0.0927 -0.0176 -0.1985
28975W        W44592   2.314  10.167   0.954 -0.1240 -0.2624  0.0732
28976W        W44593   0.345   7.858   2.484 -0.2241  0.1442 -0.2312
28977W        W44594  14.815  12.671   5.484 -0.1498  0.1399  0.0320
28978W        W44595   3.156  10.854   0.711 -0.1137 -0.0460  0.2035
28979W        W44596   1.638  16.449   4.766 -0.3187 -0.0212 -0.3843
28980W        W44597  14.080   7.164  12.464  0.1472  0.1776  0.0886
28981W        W44598   5.582  11.500   3.225 -0.0069  0.3078  0.2720
28982W        W44599  17.243  16.751  13.683 -0.1443 -0.1669  0.1899
28983W        W44600  16.953   2.651  16.982  0.0611 -0.2708 -0.1047
28984W        W44601   3.571   6.614  13.031  0.0916  0.2952  0.2061
28985W        W44602   6.318   9.656   5.612 -0.1774  0.0248  0.0606
28986W        W44603   0.144   1.520   3.892 -0.0238  0.0012 -0.0788
28987W        W44604   2.284  14.909  17.034 -0.1119 -0.1101  0.1817
28988W        W44605  14.072   8.654  14.012 -0.0641  0.0633 -0.0362
28989W        W44606   5.875   5.634  13.147 -0.0801 -0.0355 -0.0853
28990W        W44607  12.170  11.092  12.108 -0.1156 -0.3719  0.2797
28991W        W44608   4.478   5.616  13.622  0.2624 -0.1174 -0.0200
28992W        W44609   2.191   5.376  12.041 -0.3768 -0.0231  0.0835
28993W        W44610   3.736   4.375   5.625 -0.0005 -0.0070 -0.1058
28994W        W44611   0.323  15.261  16.753 -0.0127  0.0949 -0.0220
28995W        W44612   4.614   7.779  13.720 -0.0278  0.2136 -0.1640
28996W        W44613  16.869   9.397   0.611 -0.0405 -0.1309  0.1401
28997W        W44614   9.352   5.212   0.534 -0.1142  0.1040 -0.0697
28998W        W44615   8.715   5.133  17.133 -0.2318 -0.0508 -0.1501
28999W        W44616  15.899  12.861  14.286 -0.0114  0.1023  0.3007
29000W        W44617   5.652   5.812   0.835 -0.0926  0.3280  0.0040
29001W        W44618  13.667  16.504   0.877 -0.0847 -0.2534  0.1802
29002W        W44619  16.816  17.070   2.805 -0.1013  0.2349 -0.0371
29003W        W44620  11.818  10.541  15.706  0.2080  0.1348 -0.0078
29004W        W44621   3.031  17.136  16.574  0.0619 -0.2877 -0.1510
29005W        W44622  17.569   0.344   0.482  0.0841  0.1262  0.3028
29006W        W44623   7.072  15.228   0.249  0.0352  0.1389  0.1220
29007W        W44624   6.632  10.407  14.350  0.1903  0.0032 -0.2304
29008W        W44625  10.000  14.753  15.784 -0.2445  0.2354  0.4112
29009W        W44626  13.079   2.618  14.914  0.1547 -0.0405 -0.1468
29010W        W44627   2.715  11.372  12.933  0.0018 -0.0587  0.2769
29011W        W44628  15.075  12.901  14.040  0.0764  0.1635 -0.0609
29012W        W44629   7.481  13.946  17.188 -0.1542 -0.2804  0.1215
29013W        W44630  16.185   3.282   4.043  0.0219  0.0729 -0.0162
29014W        W44631   5.520  12.430   2.336 -0.2398 -0.1194  0.0891
29015W        W44632  14.802   1.139  13.979  0.0282 -0.0287 -0.0493
29016W        W44633   5.972  13.487   4.330  0.1194  0.2276  0.1997
29017W        W44634  15.933   1.352   5.236  0.0298  0.1616 -0.0059
29018W        W44635   4.913   2.749  13.498 -0.2304  0.3006 -0.1871
29019W        W44636   3.337  11.906   5.350 -0.0472  0.2039 -0.1029
29020W        W44637   1.162  16.324   4.921 -0.1549  0.0349 -0.1862
29021W        W44638   9.526   7.107  13.650  0.1540 -0.0197 -0.1367
29022W        W44639   6.662   1.544  11.876 -0.1131  0.0292  0.1881
29023W        W44640   7.359  10.661  15.670 -0.0663 -0.0516 -0.2400
29024W        W44641   4.101  11.990   5.675 -0.2423  0.0841  0.0786
29025W        W44642   1.204  17.613  16.950  0.2658  0.1103 -0.1738
29026W        W44643   2.217   1.761  13.962 -0.1475  0.3243 -0.2142
29027W        W44644   8.307  15.679  13.903 -0.2868 -0.0573  0.0581
29028W        W44645   9.324  11.724  16.984 -0.1988 -0.1325  0.0035
29029W        W44646  17.494   4.220  13.664 -0.2707 -0.3943  0.2617
29030W        W44647  11.194   6.885   1.570  0.0342  0.2046  0.0393
29031W        W44648  11.588  15.417   3.907 -0.0611 -0.0663  0.4223
29032W        W44649  15.468  11.882  16.145 -0.1448  0.1413  0.1111
29033W        W44650  16.973   6.491  13.249 -0.2328  0.0127  0.0599
29034W        W44651  17.109   3.650  15.588 -0.4704  0.2816 -0.2224
29035W        W44652  10.946  17.384   5.157  0.1903 -0.2192 -0.1018
29036W        W44653   2.106  12.110  12.216 -0.2578  0.2017 -0.1914
29037W        W44654  12.170   0.450  15.620 -0.0769  0.0248  0.0392
29038W        W44655  12.649  13.756  14.855  0.2831 -0.2741  0.0700
29039W        W44656  15.605  12.406  16.205 -0.3945  0.0665  0.1658
29040W        W44657  12.301   9.952   1.418 -0.0297  0.0907 -0.1810
29041W        W44658  13.395   2.275   1.681  0.0660 -0.1620 -0.3109
29042W        W44659   9.892  15.121  11.615 -0.0562 -0.1864  0.0223
29043W        W44660   9.519  16.344  14.016 -0.1855  0.0242  0.0985
29044W        W44661   3.129   0.862   0.566  0.0025  0.3386 -0.2032
29045W        W44662   7.061   1.475   1.370 -0.1613  0.0486  0.0938
29046W        W44663   9.036  10.782   2.979 -0.1246  0.3567  0.4029
29047W        W44664   3.050  12.018   3.012  0.0021  0.0781 -0.0902
29048W        W44665  15.364   2.146   1.517  0.0514 -0.1129 -0.1312
29049W        W44666   0.497   1.839   4.457  0.0553 -0.2653 -0.1981
29050W        W44667  10.125   8.517   3.349  0.1460 -0.0701  0.0926
29051W        W44668  11.389   7.615   0.194 -0.3728 -0.1542  0.2004
29052W        W44669   1.036   7.516  11.129  0.0912  0.0459  0.0453
29053W        W44670  15.167  10.859   0.108  0.0877 -0.1500  0.1698
29054W        W44671   1.454   1.908   2.601  0.1085 -0.4273  0.0937
29055W        W44672  16.162   2.638  16.652 -0.1967  0.0794  0.1852
29056W        W44673   4.329  12.820  15.513  0.2583 -0.2877  0.1700
29057W        W44674   1.105  13.924   1.303  0.2614 -0.0295 -0.0791
29058W        W44675   8.145  13.465   1.809  0.0214 -0.0462  0.3644
29059W        W44676   0.534  12.461   5.422 -0.3592 -0.0024  0.0219
29060W        W44677   7.741   1.494  16.452  0.2768 -0.0863 -0.1933
29061W        W44678   6.986  15.048  15.065 -0.1776  0.0984 -0.1425
29062W        W44679   8.135  14.338  14.868 -0.0899  0.2293 -0.2574
29063W        W44680   3.882   3.592  11.059  0.0086  0.1121  0.0977
29064W        W44681   2.383  16.280  12.285  0.1229  0.0912  0.1097
29065W        W44682   2.676   4.219  16.203 -0.0483  0.0148 -0.2166
29066W        W44683  16.212   0.992   2.107  0.1626  0.1067  0.0651
29067W        W44684   1.600   9.235  15.851  0.0550 -0.3232 -0.0253
29068W        W44685   2.805   9.649  12.614  0.1627  0.1483 -0.0223
29069W        W44686   7.953   5.097  15.182  0.2452 -0.0037  0.0943
29070W        W44687   6.808   1.079   5.008 -0.0818 -0.2787 -0.2662
29071W        W44688   6.137   6.677  15.165 -0.0213 -0.0978  0.1241
29072W        W44689  14.270  10.799  13.844 -0.1274 -0.1549  0.0101
29073W        W44690  15.182  10.532  16.522 -0.0712  0.0190  0.0766
29074W        W44691  10.611  12.169  16.100  0.2512  0.2452  0.2082
29075W        W44692   7.074  12.402  11.446 -0.3927  0.2018  0.0298
29076W        W44693   5.219   5.382   5.100  0.1689  0.0445  0.2511
29077W        W44694   7.739   2.319  11.832  0.4159 -0.0351  0.1859
29078W        W44695  14.025  13.220   4.505  0.3199 -0.0263  0.0171
29079W        W44696   7.671  14.550   1.820  0.1864  0.0130  0.0256
29080W        W44697   4.135  17.482  14.998 -0.1084  0.2119 -0.1264
29081W        W44698  13.055   1.466  16.684 -0.2313  0.2290 -0.2164
29082W        W44699   0.071   7.081  17.178 -0.3306 -0.2088  0.1479
29083W        W44700  10.015   7.225  15.063  0.1411 -0.1468  0.0518
29084W        W44701  13.208   4.048   1.262  0.0974 -0.2311  0.2680
29085W        W44702   7.308  15.018  11.845  0.1323  0.2023 -0.5223
29086W        W44703   4.832   0.075  13.481 -0.2043  0.0608  0.0157
29087W        W44704   1.912   2.543  17.254 -0.0266 -0.0596 -0.2189
29088W        W44705  16.892   2.060   1.943 -0.5291  0.1022 -0.3215
29089W        W44706   5.691  11.249  12.006 -0.0193 -0.1914  0.1339
29090W        W44707  10.940   4.428  12.677 -0.1937  0.1388 -0.0279
29091W        W44708  15.537   0.448  11.661 -0.0975 -0.1426  0.5122
29092W        W44709   0.244  16.977   0.098 -0.3597  0.0835 -0.1822
29093W        W44710   2.862  17.246  16.135  0.2613  0.1108 -0.0100
29094W        W44711  16.965  15.567  13.486 -0.3327 -0.0252  0.3016
29095W        W44712   9.650  10.514  13.812  0.2832  0.2091 -0.0927
29096W        W44713   8.813   9.785   3.806  0.1544 -0.1037  0.2146
29097W        W44714  12.658   2.855   4.028  0.0686 -0.0436 -0.2766
29098W        W44715   3.191  15.393  14.590  0.3614 -0.1635  0.0053
29099W        W44716   5.776   0.892  12.013  0.2507 -0.1131  0.2839
29100W        W44717   7.319   2.749   4.507 -0.1054  0.2645  0.0911
29101W        W44718   4.177   3.496  17.229  0.0389 -0.0984  0.3315
29102W        W44719  16.183   1.628   6.590  0.0184 -0.0007 -0.0741
29103W        W44720  17.425   4.445   3.277 -0.0545  0.0064 -0.0133
29104W        W44721   0.038  12.818  14.710 -0.1459  0.3467  0.2184
29105W        W44722   5.879   4.410  13.956 -0.1736 -0.0297 -0.1707
29106W        W44723   4.035   9.894   3.532  0.2821 -0.2068 -0.0746
29107W        W44724   7.452  15.523   4.016  0.0298  0.1691  0.0121
29108W        W44725   8.046   5.056   3.521  0.1513 -0.3542  0.0195
29109W        W44726  10.744   7.054   1.153 -0.1190 -0.1694 -0.0736
29110W        W44727  15.070   2.984   5.009  0.1300 -0.1693  0.1811
29111W        W44728  13.663  15.454   1.797 -0.0380  0.1386  0.1709
29112W        W44729   6.895  13.073  15.467  0.0462 -0.2477 -0.0931
29113W        W44730  15.254  17.246   1.452  0.2786 -0.3213 -0.0901
29114W        W44731   3.626  11.611  13.252  0.1318 -0.1739 -0.3484
29115W        W44732  16.763   9.944   2.725 -0.1331 -0.0801 -0.1218
29116W        W44733  15.597   0.680   5.783  0.1701  0.1270 -0.0027
29117W        W44734   3.704   2.939   2.836 -0.0537 -0.0911 -0.0052
29118W        W44735   1.889  11.202  13.389  0.2572 -0.1532  0.1261
29119W        W44736  10.240   2.523   0.803  0.0151 -0.1102 -0.2222
29120W        W44737  17.308   7.385   5.772  0.1639  0.2068  0.0465
29121W        W44738   4.623  13.967   1.305 -0.0679  0.2303  0.2238
29122W        W44739  11.008   9.472   6.022 -0.1666  0.1396 -0.0480
29123W        W44740   9.531   2.293  16.344  0.0092 -0.1513 -0.0292
29124W        W44741   2.593  15.464   4.832 -0.1661  0.1939  0.0298
29125W        W44742  13.048  12.230  13.524  0.0474 -0.2762  0.1343
29126W        W44743   9.738  10.252   3.037 -0.0857  0.3429 -0.3076
29127W        W44744  13.939  16.769  13.706  0.0785 -0.1722  0.1964
29128W        W44745   9.249  13.673  14.365 -0.1353 -0.0652  0.0835
29129W        W44746   7.093  12.690  12.456  0.2809 -0.2907 -0.1131
29130W        W44747   0.013  11.245  14.824 -0.1687  0.3411 -0.3721
29131W        W44748   7.848  15.880   1.963 -0.0847 -0.2360  0.1284
29132W        W44749   7.802   2.445  12.854 -0.4157  0.0682  0.1750
29133W        W44750  12.768   5.308   5.401  0.0870 -0.1460 -0.2535
29134W        W44751   1.604   9.470  14.110  0.1839 -0.1237  0.3363
29135W        W44752  12.606   3.944  13.436 -0.0526  0.0615 -0.2498
29136W        W44753  12.914  10.570  11.693 -0.3460 -0.2391 -0.3317
29137W        W44754  10.240   8.517   0.707 -0.0868  0.0963  0.0139
29138W        W44755   2.390   6.560  16.185  0.2425  0.2738  0.0836
29139W        W44756  16.317  14.849   3.306  0.1311 -0.0503 -0.0720
29140W        W44757   4.519   8.977  13.406  0.0023  0.0556 -0.2187
29141W        W44758  14.349   0.714  15.818  0.1498  0.4122  0.0657
29142W        W44759   2.314   2.948   1.688 -0.0541  0.0298 -0.0828
29143W        W44760  14.944   8.073  12.689  0.2575  0.1124  0.2503
29144W        W44761  16.799   6.896  14.033 -0.4588  0.2780  0.0027
29145W        W44762   2.953   2.207   5.718 -0.2980  0.1469 -0.3025
29146W        W44763   5.824   7.126   4.467 -0.2219 -0.1557 -0.1948
29147W        W44764   5.456   5.075  15.957  0.0214 -0.1985  0.1361
29148W        W44765   7.798   4.670  16.881  0.2166 -0.1314 -0.1170
29149W        W44766   9.012   7.960   1.571  0.1075 -0.2073 -0.0484
29150W        W44767  15.848  16.684   1.179  0.1039  0.0797 -0.1441
29151W        W44768  14.979   9.599   2.648 -0.1455 -0.2192 -0.0864
29152W        W44769  10.398   6.382  14.621 -0.3156  0.1471  0.2028
29153W        W44770   1.152   6.266   5.573  0.2782  0.0027 -0.1151
29154W        W44771  13.249  11.936   1.651 -0.0714  0.1610 -0.0855
29155W        W44772   0.684  10.084  16.632  0.1489 -0.0768  0.0918
29156W        W44773   0.467   7.399  14.691 -0.2490  0.2072 -0.0441
29157W        W44774   0.003  17.309   2.305 -0.1777  0.2562 -0.2833
29158W        W44775   5.757   1.835  12.309  0.0889  0.0728 -0.1292
29159W        W44776   2.664  13.061  14.610  0.1769  0.0011  0.2086
29160W        W44777   8.500  13.392   2.279  0.0456  0.2540  0.2817
29161W        W44778   2.792   2.026   2.888  0.2420 -0.0610  0.0567
29162W        W44779   3.255  15.755   0.127  0.2313  0.3599  0.2007
29163W        W44780  15.180   2.822  11.172  0.4968 -0.1407  0.1492
29164W        W44781   5.879  15.420   1.825  0.1657 -0.2235 -0.0454
29165W        W44782  10.649  10.001  13.309 -0.1978  0.2280  0.0903
29166W        W44783   3.823   7.908  14.143 -0.1158  0.1658 -0.5280
29167W        W44784   0.495   1.363   4.774  0.4141  0.1415  0.0414
29168W        W44785  15.687   0.248  16.599 -0.1166  0.1575 -0.1055
29169W        W44786  15.159   4.292   4.352 -0.1238 -0.0141 -0.0321
29170W        W44787  13.851   9.655   1.261 -0.1568 -0.2470  0.1675
29171W        W44788   4.881   4.622  14.925  0.2021  0.1342  0.0497
29172W        W44789  14.213  14.459   5.395  0.4273  0.2422  0.2153
29173W        W44790   2.683  13.285  12.562  0.2001 -0.1366 -0.2584
29174W        W44791   7.572  11.229  12.978  0.3006  0.3972 -0.0765
29175W        W44792  15.242   1.744   2.580  0.0133  0.0249  0.0917
29176W        W44793   5.343   1.482   1.262  0.0642  0.1531  0.1040
29177W        W44794   2.118   3.349   4.990 -0.0459  0.0194  0.0680
29178W        W44795   4.935   4.913   1.818  0.0891 -0.0875  0.1911
29179W        W44796  13.917  12.645  16.841 -0.0546  0.1269 -0.0717
29180W        W44797   5.758  12.788   4.539  0.3153 -0.0575 -0.1440
29181W        W44798   2.389   0.120   5.728  0.2919 -0.1614  0.1589
29182W        W44799   3.389   9.679   5.492 -0.0801 -0.1361  0.1911
29183W        W44800   0.484   4.181   5.972 -0.2132  0.1027 -0.1673
29184W        W44801  15.847   6.318   4.905 -0.1086  0.1114 -0.2099
29185W        W44802  12.713  10.768   1.465 -0.2024 -0.0895  0.2499
29186W        W44803  16.804   6.012   2.485  0.1383 -0.0045 -0.0190
29187W        W44804  10.750   7.003  16.144  0.0651  0.0365  0.2273
29188W        W44805   4.733   5.541  15.863 -0.2042 -0.2925  0.1002
29189W        W44806   9.256   0.313   3.468 -0.1660  0.1126  0.0519
29190W        W44807   7.919   8.169   6.584  0.1219 -0.0303  0.2269
29191W        W44808   7.382  10.552   3.054  0.1398 -0.0558 -0.1184
29192W        W44809   9.602  11.496  16.483  0.2381 -0.1363  0.1742
29193W        W44810  10.077   0.559  13.958 -0.0032  0.0765  0.1674
29194W        W44811   5.651  11.254  13.248 -0.0315  0.0701  0.2479
29195W        W44812   7.445  13.637  16.183 -0.0376 -0.0342 -0.2131
29196W        W44813   1.913  16.111   1.584  0.3828  0.0347 -0.2941
29197W        W44814  15.313   4.593   1.458  0.1241  0.0756  0.0203
29198W        W44815   2.556  12.281  17.298 -0.0281 -0.2818  0.1613
29199W        W44816  14.336   7.875  14.462 -0.1566 -0.2782  0.0692
29200W        W44817  13.600  17.609   0.679  0.2019 -0.3368 -0.2915
29201W        W44818  14.038   8.279   0.474  0.1974  0.1011  0.0467
29202W        W44819   5.538  17.087  12.079 -0.0561  0.0217  0.0707
29203W        W44820  16.014   6.305   3.114  0.1028 -0.1165 -0.0768
29204W        W44821  13.703  13.122   1.700  0.0579 -0.3418 -0.3266
29205W        W44822  13.110   8.055   2.118  0.0490  0.0413  0.0837
29206W        W44823  14.174   3.579  17.270 -0.0077  0.1475 -0.0415
29207W        W44824   7.783   0.134   0.300 -0.0803 -0.1921 -0.0490
29208W        W44825   2.819  16.400   4.284  0.0152 -0.1006 -0.2703
29209W        W44826   3.235   7.197  13.658 -0.0826  0.0479 -0.1718
29210W        W44827   6.919   1.126   3.995 -0.0800 -0.0953  0.0422
29211W        W44828  11.659  10.258   5.914  0.1273 -0.3079  0.2573
29212W        W44829  11.633  10.466  12.904 -0.0612 -0.0811  0.1379
29213W        W44830  11.163  13.819   2.829  0.0472 -0.3979 -0.2281
29214W        W44831   4.513  12.986  13.106  0.0056 -0.0346  0.1595
29215W        W44832   6.545   2.341   1.597 -0.0061  0.2632  0.0332
29216W        W44833   0.539   6.554   2.531  0.1952 -0.0261 -0.0967
29217W        W44834  13.665  17.011   4.285  0.0928  0.3385  0.1652
29218W        W44835   1.157  11.214   5.917  0.3705  0.2440 -0.1225
29219W        W44836   3.072   1.314   5.594  0.0439 -0.2176  0.1884
29220W        W44837   7.374   2.140   4.720 -0.1300 -0.3871 -0.1894
29221W        W44838   6.288   6.836   1.466  0.2640  0.1839  0.0835
29222W        W44839  13.127  16.872   1.701 -0.2346  0.1483  0.2122
29223W        W44840   2.065  13.942  11.526 -0.0598 -0.2325 -0.0574
29224W        W44841  14.791  17.205   1.720  0.1564  0.1755 -0.0080
29225W        W44842   5.545   9.874  14.538 -0.0439 -0.0977  0.1745
29226W        W44843  17.033   6.742  12.852  0.3389  0.0665  0.1174
29227W        W44844  13.862  13.464   3.582 -0.2005 -0.3034  0.1694
29228W        W44845   8.941  12.433   3.988  0.3032  0.0611 -0.0547
29229W        W44846  11.498   8.906   0.429 -0.0514  0.2121 -0.0775
29230W        W44847  10.740  13.016   1.718 -0.1832  0.2846 -0.3811
29231W        W44848  12.284   4.675  13.832  0.2065  0.1037  0.1173
29232W        W44849   2.285   9.068  16.380 -0.1231  0.2148 -0.2450
29233W        W44850   8.629   0.027  11.202 -0.1757  0.2060 -0.0962
29234W        W44851   6.998   5.457   5.872 -0.3974  0.0450  0.0277
29235W        W44852   6.739  10.599   4.647 -0.0139  0.0266 -0.2114
29236W        W44853  13.637   4.583   6.839  0.2759 -0.1472 -0.3466
29237W        W44854   2.501   1.906   2.467  0.0147 -0.0147  0.0801
29238W        W44855  10.722  15.191   1.676 -0.1831  0.4170  0.0547
29239W        W44856   8.386  13.210  16.576 -0.0210  0.1863  0.0319
29240W        W44857   1.829   2.344  12.216 -0.1233  0.1899 -0.3433
29241W        W44858   7.285  10.588   4.587  0.2322  0.0317 -0.0793
29242W        W44859   5.683   2.912  13.897 -0.0252  0.2907 -0.0362
29243W        W44860  11.328  14.145   4.510  0.1304  0.1484  0.0915
29244W        W44861   3.393   3.892  12.527  0.0347 -0.1630  0.2387
29245W        W44862  10.988  17.291  11.344 -0.0446  0.0499 -0.3825
29246W        W44863  15.332   4.240  14.486  0.1677  0.2360 -0.1294
29247W        W44864  17.454  14.405   2.938 -0.0478 -0.0399  0.1031
29248W        W44865   2.403   2.506  16.109  0.0585  0.1533  0.3432
29249W        W44866  15.790   0.636  16.269 -0.0525 -0.0351  0.2417
29250W        W44867  13.254  14.932  14.869 -0.0305  0.2638 -0.0874
29251W        W44868  17.522   7.503   0.867  0.0451  0.2895  0.1493
29252W        W44869  12.319  17.382   0.657 -0.2202 -0.0526 -0.0651
29253W        W44870  17.197   9.276   3.787  0.0593 -0.0481  0.0640
29254W        W44871   2.178   3.913  16.276  0.5100  0.0032 -0.1905
29255W        W44872   0.802  14.840  16.148 -0.2925 -0.0355  0.1546
29256W        W44873   0.760   4.350   3.457  0.0085  0.0290  0.1156
29257W        W44874   8.207   6.501  17.258 -0.2911 -0.0930  0.1270
29258W        W44875  13.907   5.555  16.932 -0.2612 -0.0191  0.2578
29259W        W44876   4.889   7.393  17.119 -0.3581  0.1341 -0.0361
29260W        W44877   7.688   1.571  10.472  0.2182  0.1693  0.1870
29261W        W44878  17.590   0.312   0.013 -0.3261  0.0988  0.4694
29262W        W44879  14.975   6.569  14.698 -0.2922  0.2759 -0.2325
29263W        W44880  11.627  15.595  12.150 -0.0677 -0.0215  0.0359
29264W        W44881   0.488  13.783   3.963 -0.2489 -0.0681  0.2480
29265W        W44882  13.323   7.209   3.088 -0.1302  0.0162 -0.5042
29266W        W44883   2.381  14.032   2.710 -0.0728 -0.1455 -0.2547
29267W        W44884   1.943   1.117   4.514 -0.2256  0.0218  0.0769
29268W        W44885  13.975   7.422   0.293 -0.1904  0.0120 -0.0641
29269W        W44886  15.280  16.247  15.335  0.1004  0.1179 -0.1811
29270W        W44887   1.645   1.972  14.206 -0.0015 -0.1075 -0.1195
29271W        W44888  11.263   2.768  11.906  0.2393  0.0402  0.0465
29272W        W44889   2.851   9.052  15.357 -0.2482 -0.0294 -0.0573
29273W        W44890   4.996  11.788  13.530  0.0417 -0.2436 -0.0414
29274W        W44891  17.382   5.871   0.902  0.0769  0.0897 -0.0137
29275W        W44892  14.150   5.357  12.748 -0.0749 -0.1173 -0.0516
29276W        W44893   7.235  12.407  14.483  0.0106  0.0686 -0.2745
29277W        W44894  13.726   0.479  12.856 -0.1192 -0.1630  0.0283
29278W        W44895  14.457   5.439   1.691  0.3096  0.0505 -0.0596
29279W        W44896   7.824   2.671   0.488 -0.1753  0.0293  0.0235
29280W        W44897  10.734   3.393   3.492 -0.1379  0.5136  0.0557
29281W        W44898   8.480  17.090  12.643 -0.0636 -0.0927  0.0475
29282W        W44899   1.639  12.619  12.057  0.2050  0.0207 -0.0926
29283W        W44900   7.415  13.727   2.857  0.0695  0.0659 -0.3232
29284W        W44901   9.695  14.479  12.068  0.4476 -0.0372 -0.3974
29285W        W44902  10.427   2.809  12.147  0.0753  0.2752 -0.0136
29286W        W44903   9.715   0.286  12.291 -0.0173  0.2115  0.1910
29287W        W44904   5.747  13.676   2.165  0.0061 -0.1253  0.1455
29288W        W44905   2.693   4.605  14.418  0.1676  0.0340  0.1428
29289W        W44906  11.038  10.441   1.480 -0.1032 -0.2508 -0.1906
29290W        W44907  11.417  10.170  15.710  0.1163 -0.0522  0.0347
29291W        W44908  14.036  12.534   5.878 -0.1143 -0.1835 -0.1650
29292W        W44909   6.646   0.899   2.716  0.0826  0.3066 -0.5114
29293W        W44910   9.993   0.138   2.084  0.6184 -0.1654 -0.0531
29294W        W44911  14.033  10.203   4.492 -0.1009  0.0654 -0.1944
29295W        W44912  12.318   1.375   3.857  0.1616 -0.3096 -0.1221
29296W        W44913  10.004   6.001   5.993  0.1523  0.3607  0.2208
29297W        W44914  17.346   1.837   5.139 -0.0103  0.4683  0.1413
29298W        W44915   5.737  16.598  12.077 -0.1070  0.0961  0.2345
29299W        W44916  17.598   7.661   4.384 -0.2186  0.0334 -0.0390
29300W        W44917  12.134  14.857  12.211 -0.2735  0.1079  0.0356
29301W        W44918   7.483   4.856  14.938  0.1692  0.2959  0.2408
29302W        W44919   8.064   3.754  11.623  0.1609  0.3943 -0.1440
29303W        W44920   5.185  15.102  11.904  0.0468 -0.1122  0.0320
29304W        W44921  10.569  16.857   5.392  0.1304  0.3134 -0.1280
29305W        W44922  12.734   1.033   3.413  0.2700  0.0448  0.1261
29306W        W44923   9.245   4.038  12.800 -0.2143 -0.0457 -0.0178
29307W        W44924   8.126  13.908   6.336 -0.1363 -0.2175 -0.0804
29308W        W44925   5.816  17.146   4.671 -0.0180  0.0263  0.0939
29309W        W44926   8.389  10.347  17.151  0.0305  0.0013  0.1296
29310W        W44927  10.537   4.398   5.186  0.1010  0.1753 -0.0534
29311W        W44928   2.873  17.518   0.387 -0.0658  0.2695 -0.1033
29312W        W44929  17.205  11.915  14.610 -0.0019 -0.2003  0.2219
29313W        W44930  12.441  14.918  17.280 -0.1653 -0.0358  0.0772
29314W        W44931   0.324   3.672   5.926 -0.0159 -0.1822 -0.0248
29315W        W44932   2.678   8.126  14.871 -0.0637  0.3637 -0.2505
29316W        W44933  15.128  10.636  13.525 -0.1423  0.1113 -0.2117
29317W        W44934   4.301  14.173  15.174  0.2841 -0.0150  0.1640
29318W        W44935   2.704  16.856  11.059 -0.2713 -0.5137  0.2798
29319W        W44936   9.867   2.082  12.474 -0.2423 -0.0082  0.1356
29320W        W44937   8.415   1.247   3.135  0.0337  0.0709  0.1656
29321W        W44938   3.782  16.782   5.275 -0.0826 -0.0134  0.1504
29322W        W44939  11.663  12.044   1.569 -0.1162 -0.2230 -0.1191
29323W        W44940  10.542  16.674  14.612  0.1432 -0.0264  0.0778
29324W        W44941  17.615  12.621   0.894  0.4544  0.0700 -0.1294
29325W        W44942  15.656  15.264   0.773 -0.0306 -0.3101  0.0967
29326W        W44943   6.838   3.972  16.817  0.0662 -0.0336  0.3486
29327W        W44944   8.192  16.268   4.399 -0.0998  0.0355  0.1594
29328W        W44945  11.273   3.237   3.640 -0.0528  0.1063 -0.1398
29329W        W44946  10.225  11.817   0.064  0.1085  0.2126  0.0171
29330W        W44947   0.834  16.490  16.569  0.0909 -0.3357 -0.0082
29331W        W44948   2.762   8.306   1.376 -0.0185  0.0864  0.0870
29332W        W44949   2.742  11.548   3.007  0.0329 -0.1993  0.0870
29333W        W44950  17.478   8.420  13.625 -0.3018 -0.0484  0.0211
29334W        W44951   0.435  12.896   5.666  0.1862 -0.1116  0.1457
29335W        W44952   9.464  12.021  11.867 -0.0134 -0.0987 -0.0175
29336W        W44953  14.476   6.751   4.316 -0.1064 -0.0182  0.0177
29337W        W44954   1.449  13.781  14.211  0.1792 -0.0319  0.1325
29338W        W44955  12.228   7.756   2.147 -0.2066  0.2632 -0.1865
29339W        W44956  12.023   5.902  13.916 -0.2232  0.1396  0.1554
29340W        W44957   7.148  16.826  12.380 -0.3380  0.0772  0.0053
29341W        W44958   6.236  10.255   5.623 -0.1239 -0.3087  0.3334
29342W        W44959  11.546   6.995  12.495  0.0316 -0.1313 -0.1029
29343W        W44960  15.131  11.536   1.680 -0.2096 -0.2691 -0.0886
29344W        W44961   4.708  14.297   0.446 -0.0219 -0.1129  0.2079
29345W        W44962   2.565  13.953   1.713 -0.2738  0.0652  0.3085
29346W        W44963   3.216   3.068   3.573  0.0051 -0.2236  0.0263
29347W        W44964  14.837   2.280  16.871 -0.1312  0.0868 -0.0258
29348W        W44965  13.139   9.723   6.269  0.0489 -0.4668 -0.0187
29349W        W44966  16.390  15.306   4.990  0.3720  0.0129  0.4122
29350W        W44967   0.218  17.551  14.597  0.0672 -0.1940  0.1681
29351W        W44968  13.600   3.478  11.701 -0.1266 -0.4242 -0.0477
29352W        W44969   6.953   4.182  12.024  0.3484  0.1692  0.0316
29353W        W44970   8.461   5.532  15.832  0.2450  0.0732 -0.2903
29354W        W44971  14.279  14.743  12.829  0.0144  0.0317 -0.0924
29355W        W44972   8.953   7.878  15.832  0.1391  0.3300  0.2039
29356W        W44973  15.265   3.747   5.269 -0.3143 -0.0503  0.0303
29357W        W44974  16.679  11.195  15.600  0.1325  0.0385 -0.0622
29358W        W44975   2.504   1.322  13.857 -0.1491 -0.0207 -0.3046
29359W        W44976   8.346  16.758  11.391 -0.0678 -0.1703 -0.0298
29360W        W44977   7.222  14.735  14.731 -0.0561  0.1449 -0.1296
29361W        W44978  16.619  11.130   1.517  0.2880  0.0778  0.2715
29362W        W44979   7.983   6.835  15.826  0.0410  0.2991  0.1352
29363W        W44980   8.243   3.007   4.016  0.1014 -0.1608 -0.2342
29364W        W44981   1.676  11.384  16.111  0.1914  0.0427  0.1566
29365W        W44982   8.450   9.185   1.353  0.0921  0.0957  0.0377
29366W        W44983   6.725   3.627  13.631  0.0813  0.0795 -0.2082
29367W        W44984   2.688   5.058  16.366 -0.1727  0.1782  0.0127
29368W        W44985  12.718   5.651   2.993  0.0320  0.0303 -0.2213
29369W        W44986   2.095   9.943   2.193  0.1567 -0.0813 -0.1256
29370W        W44987  15.283   4.471  16.911 -0.2616  0.3275  0.0943
29371W        W44988  13.174  11.185  14.815  0.3722 -0.0825 -0.0018
29372W        W44989   1.759  11.549   0.137  0.1969 -0.0211 -0.0315
29373W        W44990   3.010   1.783   1.311 -0.2879  0.0139  0.1511
29374W        W44991   5.605   9.357  17.029  0.2484 -0.1388 -0.1263
29375W        W44992   3.380  17.082   6.557  0.2376 -0.2688  0.1905
29376W        W44993  14.087  15.601   6.152  0.2820 -0.0154  0.0816
29377W        W44994   6.195   0.415  11.368  0.1432  0.0822 -0.1209
29378W        W44995   9.181   8.619  11.434  0.3492  0.1534  0.2530
29379W        W44996   6.602  13.211   4.817  0.0687  0.0018  0.0220
29380W        W44997   1.708   8.666   6.162  0.0204  0.1151 -0.0641
29381W        W44998   0.804  11.160   5.593  0.0911  0.3346 -0.2425
29382W        W44999  11.434  17.524  11.626  0.0759  0.1266  0.1650
29383W        W45000  12.225  17.418   1.521 -0.0658 -0.1291  0.4801
29384W        W45001  17.339   2.921  16.320  0.0714 -0.0904 -0.2942
29385W        W45002  13.139  13.567  12.297 -0.1340  0.1248  0.1026
29386W        W45003  12.369  11.793   4.850  0.1676 -0.1060 -0.4468
29387W        W45004  14.485   9.624  13.821  0.0373 -0.0647  0.0351
29388W        W45005   4.581   8.258   3.172  0.0064  0.0410 -0.2893
29389W        W45006   7.191   2.834   6.101  0.0555 -0.3316 -0.1853
29390W        W45007   1.305  15.509  14.994  0.0797 -0.0520 -0.0445
29391W        W45008  16.808   1.893  11.041 -0.2033 -0.1053  0.1482
29392W        W45009   2.621   2.726   5.721  0.1017  0.1280  0.0249
29393W        W45010  17.432   1.807   1.997  0.1396 -0.2601  0.1973
29394W        W45011   5.401   6.656   1.420 -0.0453 -0.1048 -0.2136
29395W        W45012  16.101  10.798  13.133 -0.0316  0.0899  0.3663
29396W        W45013  14.375   7.131  16.863 -0.0022  0.0747 -0.2240
29397W        W45014   1.810  17.332   4.514  0.1181 -0.1007  0.2785
29398W        W45015   8.770   9.748   5.285  0.0966 -0.0221 -0.1132
29399W        W45016   4.355   2.019  13.230 -0.4386  0.1563 -0.0477
29400W        W45017  15.682   8.408  13.566  0.0816  0.1370  0.2860
29401W        W45018   2.802   5.305   2.358  0.0279  0.0669 -0.3210
29402W        W45019   4.771   6.491   0.910 -0.1214 -0.0270 -0.1915
29403W        W45020  10.194   4.961  14.984  0.0137 -0.0659  0.4485
29404W        W45021  17.463  13.000   3.666 -0.2583  0.2869  0.1001
29405W        W45022   8.805   0.801   0.213 -0.0991  0.2335  0.0266
29406W        W45023   5.771  11.358  13.731  0.1480  0.0205 -0.2119
29407W        W45024  11.099  16.976  13.036 -0.2061 -0.3396 -0.2216
29408W        W45025   2.738   0.887  15.409 -0.0520 -0.0544 -0.1643
29409W        W45026  11.336  16.517  11.352  0.2360 -0.2240  0.0390
29410W        W45027   3.469  14.201  14.145  0.0997 -0.2974 -0.1489
29411W        W45028   9.579   7.303  12.412  0.2680  0.1286  0.0169
29412W        W45029  13.144  12.033   4.873 -0.0437  0.1397 -0.0996
29413W        W45030  14.453   4.120  15.602  0.0012 -0.1911 -0.3651
29414W        W45031   8.914   7.753   5.872 -0.2038  0.1285  0.1081
29415W        W45032   8.787   5.238  12.678 -0.0419  0.1581 -0.3147
29416W        W45033   2.180  11.399  16.268 -0.1951 -0.2039 -0.1109
29417W        W45034  13.889   9.346  12.291 -0.2901  0.0737 -0.2022
29418W        W45035  13.404   8.089   1.636 -0.1850 -0.2589 -0.0908
29419W        W45036   4.427   2.306  14.090  0.3427 -0.0683  0.2102
29420W        W45037  14.173   7.497  14.180 -0.0178 -0.0650 -0.3236
29421W        W45038  12.364   9.190   1.966  0.1642  0.0196 -0.1307
29422W        W45039   6.296   1.961  14.103  0.0058 -0.1458  0.1578
29423W        W45040  11.025   5.179  13.393  0.2024  0.2653  0.0673
29424W        W45041   4.347  11.460  12.045 -0.0223  0.1211  0.0005
29425W        W45042  14.915   1.375   2.780 -0.0994 -0.0794 -0.0813
29426W        W45043   2.173   2.000  16.039 -0.2172  0.3005 -0.2941
29427W        W45044  14.027   3.912   4.415  0.0356  0.3022  0.3766
29428W        W45045  12.431  10.366   5.173 -0.2572  0.0566 -0.2426
29429W        W45046   8.520  10.414   3.050  0.1211  0.1112 -0.5662
29430W        W45047  13.482  12.712  14.041  0.0298 -0.1486 -0.1418
29431W        W45048  16.714  16.084  16.554  0.1075  0.1809  0.0511
29432W        W45049   0.322   8.307  13.986  0.3436 -0.1452 -0.4994
29433W        W45050   1.993   9.169   2.452  0.0582  0.0607  0.2119
29434W        W45051   9.077   8.041  16.340 -0.0664 -0.1306 -0.0392
29435W        W45052  10.712  15.267  14.350 -0.0615 -0.0001 -0.4189
29436W        W45053   1.165   2.653  16.641  0.2022  0.4714  0.1326
29437W        W45054  12.250  16.595  15.943  0.1662 -0.1446 -0.1172
29438W        W45055   2.048   4.063   4.967 -0.1245 -0.0290 -0.1582
29439W        W45056   5.663  14.368  13.927 -0.0086  0.1163 -0.3401
29440W        W45057   8.640  10.584   0.727 -0.1736 -0.1675  0.1887
29441W        W45058   9.177   8.429   1.483 -0.2912  0.1108  0.2266
29442W        W45059  10.516   8.563   5.947 -0.2595  0.2543  0.0449
29443W        W45060   8.706  11.950   0.995 -0.0941  0.1203 -0.0928
29444W        W45061  14.161  14.448  11.674 -0.0983 -0.1059 -0.0625
29445W        W45062   1.307   0.424   2.704  0.0594 -0.3828 -0.0587
29446W        W45063  12.753   1.767   5.840 -0.3295 -0.0607 -0.0218
29447W        W45064   7.804   2.171   3.776  0.1525  0.0409 -0.0895
29448W        W45065  12.906  13.665   2.575 -0.2330 -0.1879  0.1867
29449W        W45066  16.247   0.943  11.753 -0.2312  0.1393 -0.0227
29450W        W45067  14.040   9.732   5.869  0.1584 -0.1317  0.0778
29451W        W45068   7.155  14.040   2.094 -0.0965 -0.0349 -0.1557
29452W        W45069   3.908  14.911  12.486  0.2259  0.3480 -0.2885
29453W        W45070   8.197   1.473  15.427  0.3233 -0.2516  0.0833
29454W        W45071   7.069  15.882   2.644  0.0521  0.2815  0.4197
29455W        W45072   3.587  11.708   6.272  0.2660  0.0342  0.0487
29456W        W45073  11.230   8.727   6.166 -0.1793  0.0995  0.0503
29457W        W45074   9.482  10.045  15.620 -0.2019  0.1821  0.0778
29458W        W45075   6.282  13.171   3.448 -0.0166  0.1354 -0.1005
29459W        W45076   9.595  14.957  16.583 -0.0867 -0.0444  0.0225
29460W        W45077  16.456  14.812   5.705 -0.0264  0.2594 -0.1096
29461W        W45078  15.949   2.845  12.300 -0.4722  0.1111  0.0707
29462W        W45079   7.440  10.635   5.399  0.0367  0.2481 -0.1588
29463W        W45080   7.816  14.276  12.775  0.1156  0.0783 -0.0017
29464W        W45081  14.744  11.165   6.069  0.0977  0.2380  0.0369
29465W        W45082   8.471  14.891   2.121  0.0292 -0.0337 -0.2482
29466W        W45083  16.246   6.663  14.739  0.3146 -0.0150  0.2674
29467W        W45084   0.708  14.398  12.545 -0.3353 -0.0830 -0.0471
29468W        W45085  12.308   6.207  16.288 -0.4605 -0.1637  0.2275
29469W        W45086  16.929  14.777  15.054  0.0323  0.4011  0.3152
29470W        W45087  13.413  12.896   3.143 -0.1878 -0.2129  0.3944
29471W        W45088   5.843   4.163  13.555 -0.0867  0.3649  0.1492
29472W        W45089   0.075   4.728  13.580 -0.1684  0.2165  0.0821
29473W        W45090   1.595  12.361   5.140 -0.0172 -0.1147  0.1110
29474W        W45091  11.690   9.958  13.020  0.1464  0.0204  0.1130
29475W        W45092   9.101  12.705   1.303  0.2605  0.0280 -0.1286
29476W        W45093   8.944   4.360   5.274  0.0302  0.4710  0.3281
29477W        W45094   7.573   7.863   3.780  0.2017  0.0690  0.3144
29478W        W45095   2.760   2.824   0.312  0.0973  0.3445  0.0880
29479W        W45096   3.993  17.468   3.926  0.0881  0.0826  0.0196
29480W        W45097  16.567  13.968   3.571  0.2625 -0.0400 -0.0563
29481W        W45098   9.624   6.656   5.659  0.1917  0.0488 -0.0363
29482W        W45099   5.999   9.193  13.963  0.0315  0.1088 -0.1289
29483W        W45100   4.447   4.756  15.184  0.0000  0.3594  0.1512
29484W        W45101  11.722   3.785  17.174  0.1230 -0.0363  0.0961
29485W        W45102  10.001   3.093  16.111 -0.2992  0.0442 -0.0564
29486W        W45103   0.758   9.104  17.147  0.1184 -0.2860 -0.1749
29487W        W45104   8.472   2.784   0.497  0.0923  0.0436  0.2509
29488W        W45105  15.886   5.306   5.397 -0.1815 -0.5562 -0.0441
29489W        W45106  16.381   9.628  15.379 -0.1676 -0.0959  0.0369
29490W        W45107  17.435   2.516   1.981 -0.0444 -0.1473  0.0656
29491W        W45108   9.192  14.265  15.844  0.2146 -0.2468  0.0671
29492W        W45109   0.644   2.761   3.309  0.0457  0.1661 -0.2581
29493W        W45110   6.345   7.156   0.001 -0.1637  0.1045  0.0048
29494W        W45111  10.215   4.425  13.375 -0.1928  0.0165  0.0620
29495W        W45112   4.171   0.272   0.583 -0.0011  0.3159  0.4838
29496W        W45113   1.572   8.985   2.711  0.0436 -0.0469  0.0868
29497W        W45114   4.563  17.165  11.928  0.2383 -0.1658  0.2972
29498W        W45115  12.257  10.181  16.502  0.2748  0.2236  0.2639
29499W        W45116   6.601   3.533   3.742 -0.0325  0.0474 -0.3379
29500W        W45117   9.677  16.583   2.796  0.1789  0.0014 -0.2483
29501W        W45118   8.579   9.750   5.780  0.1358 -0.2713  0.1834
29502W        W45119  15.100  11.233   4.494 -0.1631 -0.0871  0.0066
29503W        W45120   9.214  14.721   0.107  0.0556 -0.0677  0.0459
29504W        W45121   8.681  15.341   1.118  0.2395 -0.3880 -0.0643
29505W        W45122   3.532  14.282   4.974  0.0628  0.0169 -0.3292
29506W        W45123  12.617   5.983  17.102  0.2913 -0.0349  0.1559
29507W        W45124  14.994   6.928   1.009  0.1315  0.0347 -0.2067
29508W        W45125  11.509   4.355  14.237  0.0008  0.0610  0.1502
29509W        W45126  12.064   7.093  16.755 -0.1099 -0.1191  0.0662
29510W        W45127  11.668  12.009   3.973  0.0874 -0.0239  0.0545
29511W        W45128  12.228  14.073   4.936 -0.0581 -0.1257  0.0695
29512W        W45129  17.418  15.465   0.744  0.0800 -0.2212  0.2145
29513W        W45130  16.606   5.048   1.801  0.1253 -0.1277 -0.1036
29514W        W45131  13.970   3.122  17.031 -0.1099 -0.2810  0.1302
29515W        W45132   8.774  16.754   4.606 -0.3189  0.4428 -0.0585
29516W        W45133   2.939   2.578   1.732 -0.0531 -0.0034  0.1151
29517W        W45134  12.022  15.363  13.022 -0.2697 -0.0116 -0.2941
29518W        W45135   3.195   5.100  16.009 -0.0875  0.0571 -0.4442
29519W        W45136  11.318  11.271  13.142  0.2636 -0.4047 -0.0162
29520W        W45137  17.237  17.036  15.210 -0.1003  0.0742 -0.1735
29521W        W45138  16.740   5.249  15.762 -0.0047 -0.2745  0.1933
29522W        W45139  13.973   9.278   2.796  0.0639  0.0024 -0.0854
29523W        W45140   9.869   8.628   2.877 -0.1274  0.1713 -0.0560
29524W        W45141   1.296   4.991   2.181 -0.0386 -0.1964  0.1017
29525W        W45142   2.704  10.326  16.536  0.0899  0.0221 -0.0883
29526W        W45143  17.082  12.686   6.682 -0.2116  0.0844  0.0632
29527W        W45144   1.511  12.351  14.129  0.0856  0.1514  0.3130
29528W        W45145  14.222   0.347  12.722 -0.5773 -0.0355  0.3351
29529W        W45146  13.736  15.191   4.746  0.0734 -0.0210  0.0816
29530W        W45147  12.904   2.105   1.073 -0.2136  0.1458  0.2797
29531W        W45148   1.730  10.146   3.790  0.0687  0.0049 -0.1027
29532W        W45149  15.042   5.107   6.423 -0.0117 -0.0502  0.0491
29533W        W45150   9.114  11.357   0.491  0.0633  0.2866 -0.0524
29534W        W45151  10.126   6.613  14.175 -0.0420 -0.1232  0.1871
29535W        W45152   1.050  15.606   1.955  0.1794  0.1680  0.1033
29536W        W45153   5.306   0.646  11.799 -0.0426 -0.1098  0.1061
29537W        W45154   7.625   5.605   5.090  0.3354 -0.2998 -0.1709
29538W        W45155  17.454   7.964   0.698 -0.2116  0.0726  0.0527
29539W        W45156   1.226  12.384   0.229 -0.3765 -0.2028 -0.0894
29540W        W45157   9.415  13.575  16.558  0.1259 -0.1578  0.0631
29541W        W45158   3.102   7.416  15.466 -0.3599 -0.1310 -0.0825
29542W        W45159  16.379  12.713  16.836  0.2468  0.0301  0.2139
29543W        W45160  16.177  11.982   1.395  0.1367 -0.0370  0.1486
29544W        W45161   8.780  10.017   2.960  0.1294 -0.0391  0.4299
29545W        W45162   5.425   2.181   3.434  0.0909  0.0247 -0.1910
29546W        W45163  15.890   2.675  14.218 -0.1297  0.0881  0.0364
29547W        W45164  13.264   6.641   0.972 -0.0462 -0.1920  0.2250
29548W        W45165   8.778   0.910   3.271 -0.0022 -0.1236  0.0555
29549W        W45166  11.657  14.436  13.222  0.0829 -0.1097 -0.1253
29550W        W45167   8.286  12.425  12.851  0.1170 -0.1004  0.1413
29551W        W45168  14.441  17.234   3.022 -0.0685 -0.0516 -0.1647
29552W        W45169   2.964   8.741   6.083  0.1139  0.2599 -0.0378
29553W        W45170   0.872  13.550   3.197 -0.1528 -0.0353 -0.1304
29554W        W45171   7.734  12.204   0.002 -0.1400  0.1147  0.0723
29555W        W45172  13.292   7.989  14.350  0.2088 -0.2339  0.0717
29556W        W45173   2.095  11.641   2.157  0.1750 -0.2017  0.1084
29557W        W45174  14.880  10.383  14.842  0.1998 -0.2296  0.1377
29558W        W45175   0.939   9.271  16.668  0.0530 -0.1352 -0.2927
29559W        W45176  11.267  17.525   3.841 -0.0073  0.2646  0.0725
29560W        W45177   2.878  16.124  14.070 -0.1577  0.1349 -0.3163
29561W        W45178   2.424   1.758  11.406 -0.4183 -0.1894  0.1060
29562W        W45179  13.663   8.969   5.475 -0.1511 -0.0651  0.0393
29563W        W45180   6.304   4.239   5.576 -0.2263  0.1562  0.1630
29564W        W45181   6.751   3.670  15.768 -0.1809  0.1515 -0.2048
29565W        W45182   1.870   7.649  15.894 -0.1639  0.1340 -0.2822
29566W        W45183  17.484  15.559   4.666 -0.2633 -0.1045  0.0552
29567W        W45184   8.994  11.212  12.788  0.2576 -0.0841 -0.1395
29568W        W45185   0.853  15.326  12.575  0.3095  0.1171  0.1457
29569W        W45186   0.372  11.664  15.252  0.0954 -0.0430  0.1366
29570W        W45187   7.655  12.031  16.011 -0.1372 -0.1426 -0.1538
29571W        W45188  16.060   2.606   3.248 -0.3705  0.0743  0.0966
29572W        W45189  16.737   8.434   5.767 -0.0341 -0.0127 -0.1576
29573W        W45190   7.581   1.878  12.203 -0.1051  0.1189 -0.0662
29574W        W45191   7.490   5.563   0.706  0.1115 -0.2969 -0.0101
29575W        W45192  14.572  14.064  13.639 -0.0559 -0.0541 -0.1220
29576W        W45193   4.081  14.963  12.992  0.0017  0.0141  0.4405
29577W        W45194   8.969   9.810   6.074  0.0041  0.0427 -0.1659
29578W        W45195  15.886  11.191   5.517  0.0559 -0.1276 -0.0099
29579W        W45196  16.774  12.587   5.321  0.0959 -0.1061  0.0794
29580W        W45197   7.292  13.353  14.658  0.0192 -0.2326  0.2148
29581W        W45198   4.157   5.261  15.475  0.3068  0.0882  0.0723
29582W        W45199   1.403  12.858   1.609 -0.1757  0.1310  0.6218
29583W        W45200   2.453   8.356  16.925 -0.2675 -0.1877  0.1519
29584W        W45201  10.313  13.289  11.998 -0.1647 -0.2070 -0.1087
29585W        W45202  16.268   3.267  15.574  0.4559  0.0490  0.1046
29586W        W45203   6.357   8.305  12.194 -0.0569  0.6378 -0.1252
29587W        W45204   7.127  16.248   0.997  0.3552 -0.2981  0.0584
29588W        W45205   6.506   5.889  12.267  0.2431  0.0607  0.0074
29589W        W45206   1.697   2.512   6.347  0.0874  0.2907  0.0937
29590W        W45207  17.360   7.929  14.732  0.2625  0.0112 -0.1024
29591W        W45208   0.500  17.139  11.442  0.2183 -0.0833 -0.0929
29592W        W45209   6.258  10.811   0.025  0.0773  0.0935 -0.2136
29593W        W45210  10.459   4.494   0.899 -0.4268 -0.0177  0.3069
29594W        W45211   3.873   4.936   0.858  0.0580  0.0488 -0.4850
29595W        W45212   6.194   3.253  15.127  0.5237  0.1856 -0.2321
29596W        W45213   1.368  13.073  14.980 -0.0244  0.0317  0.0678
29597W        W45214   8.121   7.850   1.303  0.1560  0.1438 -0.1161
29598W        W45215  13.034  11.931  15.545 -0.0194 -0.1175  0.3577
29599W        W45216  17.544  12.982   2.997  0.1182  0.0906  0.0309
29600W        W45217   2.130   3.524  11.303 -0.0457  0.1281  0.4284
29601W        W45218   9.730  15.027  16.127  0.1118  0.0181  0.0131
29602W        W45219  10.093   0.767  12.476  0.0163  0.0271 -0.1514
29603W        W45220  12.862   8.296  12.213  0.1626 -0.2643  0.1388
29604W        W45221   0.467   4.826   4.353  0.1023  0.1462  0.0196
29605W        W45222  17.211   5.240  16.313  0.1281 -0.1172 -0.2206
29606W        W45223   1.358   6.162  14.519 -0.2768  0.1037  0.2024
29607W        W45224   7.591   3.147   0.444  0.4881  0.0619  0.1494
29608W        W45225   9.398   2.902   4.158  0.0227  0.1296 -0.0160
29609W        W45226   1.084  13.158   2.622 -0.2736 -0.0446 -0.0254
29610W        W45227   0.553  15.720  16.510  0.2017 -0.0991 -0.0163
29611W        W45228  11.078  13.170   0.674 -0.1772  0.0978  0.2253
29612W        W45229  14.793   3.515  13.277 -0.0574 -0.3716  0.3617
29613W        W45230  14.603  14.760   0.260 -0.1925  0.3559 -0.0393
29614W        W45231   1.335   2.228  15.535  0.0791 -0.2379  0.2961
29615W        W45232  16.561   2.304  17.023  0.1249 -0.0126 -0.0822
29616W        W45233   0.509  11.413   3.885 -0.4769 -0.0232  0.2374
29617W        W45234  16.275   1.850  17.044  0.1121 -0.2867 -0.2665
29618W        W45235  12.751   0.413   1.224 -0.0613 -0.1392 -0.1428
29619W        W45236   3.254   7.964  14.209  0.1819  0.1300  0.2557
29620W        W45237  11.189   8.467  14.208 -0.2649  0.1112  0.0169
29621W        W45238  16.060   3.796   1.493  0.2620  0.1203  0.1495
29622W        W45239  14.781  13.758   2.358 -0.0679 -0.1648  0.0303
29623W        W45240  13.432   1.383  15.401  0.0357  0.1630  0.0658
29624W        W45241   1.681   5.435   0.989  0.1823 -0.3474 -0.2123
29625W        W45242   3.134  12.343   5.475  0.2705 -0.0469 -0.1248
29626W        W45243  13.971   1.581   4.120 -0.3065  0.0731 -0.0301
29627W        W45244  15.153   2.574   1.359  0.0043  0.0615 -0.0926
29628W        W45245   4.089   4.502   6.049  0.1194  0.0144 -0.3597
29629W        W45246   0.478  10.923   3.682  0.0803 -0.0265  0.0208
29630W        W45247   0.795   5.153   2.100  0.1080 -0.4598  0.1268
29631W        W45248  14.514  11.259  15.463 -0.1100 -0.2665 -0.0268
29632W        W45249  10.606   5.054   5.246 -0.3623 -0.0201  0.1224
29633W        W45250   8.169  11.008   2.335 -0.0229 -0.1301 -0.0071
29634W        W45251  13.812   3.726   2.177 -0.2563 -0.2156 -0.0895
29635W        W45252   7.116   4.349   5.188 -0.0268 -0.1255 -0.2065
29636W        W45253   4.007  15.021  14.750 -0.1952 -0.1728 -0.1331
29637W        W45254   9.845  15.258   2.339 -0.2736  0.0369 -0.0016
29638W        W45255   5.723  15.890   5.184  0.1248 -0.0750 -0.0015
29639W        W45256   6.796   6.593   4.656 -0.1987 -0.0928  0.0805
29640W        W45257   8.623  16.083   1.617  0.1368 -0.2562  0.0121
29641W        W45258   6.129   3.337  12.051 -0.0993  0.1621  0.0361
29642W        W45259   0.681  11.182  14.108 -0.0740  0.0093 -0.0914
29643W        W45260   5.033   9.201   2.893 -0.0442 -0.2474 -0.1526
29644W        W45261  11.801  13.335   3.610  0.0153  0.1557  0.1948
29645W        W45262   6.371   9.334  13.548  0.1450 -0.0836 -0.1402
29646W        W45263   1.785   9.364   1.242 -0.1180 -0.2065 -0.2591
29647W        W45264   8.375  14.603  13.618 -0.0234 -0.0042 -0.1766
29648W        W45265  15.695  16.847  17.061  0.0421  0.2953  0.1551
29649W        W45266   5.385  10.146  15.035 -0.4762  0.2825 -0.1285
29650W        W45267  13.884   0.722   4.271 -0.0788  0.0255  0.0001
29651W        W45268  15.612   9.707   1.996 -0.0978  0.2745 -0.1875
29652W        W45269  11.416  14.508   0.120  0.2508  0.1072  0.0763
29653W        W45270   1.741  16.933   4.721  0.0956  0.2093 -0.2413
29654W        W45271   0.542  15.475   3.908 -0.2599  0.0647 -0.0522
29655W        W45272   8.127  13.987   4.352 -0.3454  0.2995  0.1642
29656W        W45273  12.975  17.216   2.688  0.3004 -0.0489 -0.1390
29657W        W45274   2.095   9.003   5.434  0.3241 -0.2393  0.2274
29658W        W45275  14.504   9.288   3.371 -0.1904 -0.3137 -0.0909
29659W        W45276   4.956  14.940   2.428  0.1382 -0.3913 -0.1717
29660W        W45277  11.521  13.418  12.906 -0.2294  0.0058 -0.0023
29661W        W45278  13.833  15.793   2.949 -0.0302 -0.2393  0.2038
29662W        W45279  10.269  14.362   4.405 -0.0262  0.1328  0.1862
29663W        W45280   4.951  14.999  13.734  0.1543  0.0384  0.2969
29664W        W45281   8.818  15.078   1.546 -0.1717  0.2105  0.3301
29665W        W45282  15.436   6.766   4.164 -0.3091  0.0402 -0.3778
29666W        W45283  16.179   6.072   6.374 -0.1553 -0.0665  0.1605
29667W        W45284   9.058   1.781  11.125 -0.1180  0.1177  0.3493
29668W        W45285  11.214   6.813  14.191  0.2029  0.2030 -0.2035
29669W        W45286  10.765   1.400  16.314 -0.3889 -0.1198  0.0650
29670W        W45287   7.582  17.519   4.126 -0.1844 -0.1774  0.0470
29671W        W45288   3.383   6.901   1.487 -0.0618 -0.3899 -0.0816
29672W        W45289   0.112   8.192   5.734 -0.1659  0.1528  0.1788
29673W        W45290   2.111   9.237  13.982  0.0913 -0.0997 -0.3538
29674W        W45291   6.501  16.638   5.852 -0.0598 -0.0175 -0.1592
29675W        W45292   5.560  13.783   1.288  0.2014  0.0870  0.0177
29676W        W45293  17.210  11.641   5.796  0.2008  0.3194 -0.3165
29677W        W45294   0.010   9.316   0.371 -0.0348 -0.1738 -0.5133
29678W        W45295  16.978   4.747   6.252  0.0062 -0.0530  0.3724
29679W        W45296  15.494  17.615   5.172  0.1117  0.1261  0.4429
29680W        W45297  15.894  11.362  14.550 -0.0061  0.2056  0.0354
29681W        W45298   4.517   3.425   6.083 -0.2233  0.2584  0.3121
29682W        W45299  12.451   2.321  16.534  0.0266 -0.0621 -0.1941
29683W        W45300  12.875  10.899   2.342 -0.2325 -0.0132 -0.0583
29684W        W45301   0.037   2.023  15.384  0.4278  0.3714 -0.0709
29685W        W45302  11.987  11.131   5.661  0.0165  0.1348  0.0917
29686W        W45303   3.709   5.726  14.069 -0.4175 -0.0824 -0.0550
29687W        W45304  10.966   3.826  12.503  0.0274  0.2322 -0.1855
29688W        W45305  13.593   9.247  13.097 -0.0112 -0.0051 -0.0733
29689W        W45306  15.738   2.209  13.792  0.1046 -0.1620  0.0718
29690W        W45307  10.205  11.938   0.959 -0.1323  0.1129  0.1480
29691W        W45308   3.131   5.972   1.400  0.1655 -0.3134 -0.2869
29692W        W45309  12.814  14.715   4.346 -0.0275  0.0004 -0.1403
29693W        W45310  11.382   2.255   1.648  0.1988  0.0413 -0.1516
29694W        W45311  13.573  14.165  16.230 -0.1121 -0.2724 -0.0793
29695W        W45312   1.457   9.630  16.208 -0.0905  0.0389  0.1917
29696W        W45313  13.077  17.095   4.818 -0.1751 -0.0380  0.1557
29697W        W45314   9.598   9.954   2.309  0.0449 -0.2405  0.1925
29698W        W45315  12.816  14.408  11.946 -0.1481 -0.1694 -0.0453
29699W        W45316  13.847   3.691   5.021 -0.0079  0.1266 -0.1593
29700W        W45317   6.677  11.579  16.924  0.0205  0.0491  0.3408
29701W        W45318   3.817  15.608   2.026  0.1429  0.2055  0.0576
29702W        W45319  12.912  12.849   0.707 -0.0864 -0.0845  0.0027
29703W        W45320   0.194   1.389   2.823  0.0599  0.1797 -0.0817
29704W        W45321   1.107  14.377  12.122 -0.0917  0.0918 -0.2386
29705W        W45322  15.758  14.873  16.067 -0.1202  0.4157  0.3611
29706W        W45323  11.535   1.513   1.527 -0.1997 -0.1699 -0.1768
29707W        W45324   6.501   9.046  13.973 -0.2023  0.0683  0.0337
29708W        W45325  16.301  17.103  15.108 -0.2165  0.3293 -0.0310
29709W        W45326   0.176   0.746  14.837  0.2108 -0.4377  0.1511
29710W        W45327   3.581   9.935   4.451 -0.0067  0.1744 -0.1278
29711W        W45328   4.240   9.270   1.394  0.0471 -0.3572  0.1036
29712W        W45329  12.975  16.941  15.437  0.2027  0.2018 -0.0242
29713W        W45330   7.303  10.130  17.056  0.3426 -0.2194 -0.2604
29714W        W45331   0.062  16.522   4.041  0.1029 -0.2684 -0.0641
29715W        W45332   8.708   4.613   2.894  0.0440  0.0784 -0.0759
29716W        W45333   4.994  12.942   5.887 -0.2045 -0.2923  0.2454
29717W        W45334   1.410  12.465   2.109  0.2560 -0.1293 -0.1654
29718W        W45335   6.639   0.357   2.746  0.1108 -0.0375 -0.0012
29719W        W45336   2.857   2.328  12.944 -0.1806  0.3005 -0.0883
29720W        W45337  10.138  14.120  14.746  0.0086  0.2783 -0.2022
29721W        W45338   3.996  14.689   0.728  0.3295 -0.1622 -0.0229
29722W        W45339   0.646   2.648   3.881  0.1155 -0.0863 -0.4247
29723W        W45340   5.333   1.236   4.065  0.0926  0.2763 -0.1021
29724W        W45341   1.678  11.417  15.046 -0.3271 -0.0414 -0.1662
29725W        W45342  14.639  13.282   2.573 -0.1606  0.0387 -0.1916
29726W        W45343   7.559   3.541  16.381 -0.0474 -0.1816  0.4876
29727W        W45344  11.887  16.914   2.715 -0.0715 -0.2436 -0.3122
29728W        W45345  14.153   5.386   3.294  0.1109  0.0948  0.1125
29729W        W45346   7.045   4.953  12.529  0.3791 -0.1264  0.3452
29730W        W45347   1.908   3.370  17.229  0.1045 -0.0547  0.1243
29731W        W45348   2.119  13.766  15.890  0.1084 -0.0289  0.1233
29732W        W45349   2.720  10.840  12.489 -0.0505 -0.1824 -0.2492
29733W        W45350   2.228   6.901  14.329  0.1399  0.0381 -0.2214
29734W        W45351   5.781  12.988   1.632 -0.1562 -0.0482 -0.1671
29735W        W45352  15.028   2.281   5.913 -0.4138 -0.0943  0.2240
29736W        W45353   4.707   8.391  16.263  0.0549  0.0325 -0.1249
29737W        W45354   6.194   6.976  14.812  0.0375 -0.1520  0.2748
29738W        W45355  13.029  13.733   0.034 -0.0316  0.1496  0.1679
29739W        W45356   6.755   3.347  15.122 -0.2417 -0.0064 -0.2540
29740W        W45357  13.129   6.247   2.803  0.0823 -0.0526 -0.1823
29741W        W45358  11.639   6.163  12.948 -0.1509  0.1820 -0.0199
29742W        W45359   7.862   5.446  15.510  0.1104 -0.0559  0.0235
29743W        W45360  17.509   2.386  13.563 -0.0064  0.1036 -0.1307
29744W        W45361  16.518  15.308  16.210  0.0198 -0.0257  0.0049
29745W        W45362   9.530  11.368  13.656  0.0668 -0.1722 -0.0579
29746W        W45363   1.889   9.020   0.849  0.0332  0.2072 -0.0338
29747W        W45364   3.271  14.160  12.750 -0.1159  0.2479  0.1434
29748W        W45365  10.473  16.970   2.668 -0.1079  0.0382 -0.1799
29749W        W45366   4.664   6.626  14.529 -0.3864 -0.1914 -0.1155
29750W        W45367   2.020  11.159   4.868 -0.1350  0.2209 -0.0213
29751W        W45368   7.697   6.689   4.263  0.5119  0.3794 -0.1340
29752W        W45369  12.630   1.116   2.471 -0.3957 -0.0540  0.0937
29753W        W45370   0.581  12.172  14.389  0.0185  0.0816 -0.0768
29754W        W45371   7.505  14.482  17.285  0.0925 -0.0385  0.0132
29755W        W45372   8.606  15.785   2.244 -0.0923  0.0121  0.2332
29756W        W45373   9.134  15.523   4.311 -0.2600 -0.2621 -0.3869
29757W        W45374   2.504   4.755  15.982  0.0854 -0.1300 -0.1183
29758W        W45375  11.070  17.470   1.288 -0.2538 -0.0741  0.2318
29759W        W45376  13.529  11.092  15.925 -0.1405 -0.1156 -0.0862
29760W        W45377  12.599   5.546   4.481 -0.1203 -0.0956 -0.0144
29761W        W45378  17.508  12.940  17.216 -0.2248  0.0037  0.0817
29762W        W45379  11.228   5.355  16.906 -0.0930 -0.0789  0.3127
29763W        W45380   6.888  15.042  12.188 -0.3113  0.2432  0.1108
29764W        W45381   9.257   8.541   3.771  0.3551  0.1997  0.1144
29765W        W45382   0.819   0.978   1.780 -0.0603  0.0512  0.2011
29766W        W45383   0.445   3.597   1.334 -0.3549  0.1305 -0.1836
29767W        W45384  17.157   7.447  13.488  0.0090 -0.1928 -0.4069
29768W        W45385   1.041  13.944   1.855 -0.2884  0.0929 -0.1612
29769W        W45386   5.765  11.899   1.205 -0.1995 -0.0775  0.2104
29770W        W45387  14.718   2.888  12.197 -0.1481  0.0739 -0.1372
29771W        W45388  15.375  16.827   5.795  0.1150  0.0361  0.2241
29772W        W45389   9.672  12.198   1.677 -0.0260  0.0784 -0.2455
29773W        W45390   1.965  17.557  13.314 -0.0933  0.2158 -0.0143
29774W        W45391   2.996   1.640  15.478  0.1228 -0.0384 -0.1484
29775W        W45392   5.758  10.290   6.403  0.0687  0.3781  0.0869
29776W        W45393   0.440  15.384   2.089 -0.1124 -0.2017 -0.0306
29777W        W45394   1.022   4.733   3.565 -0.3586  0.1186  0.0540
29778W        W45395   4.815   0.571  12.787 -0.1237 -0.1142 -0.0362
29779W        W45396   2.709   0.532  12.948  0.1166  0.2058 -0.0841
29780W        W45397   9.406  11.202  12.063  0.0518 -0.0180 -0.1870
29781W        W45398   5.039  11.893   0.667 -0.1990 -0.0948 -0.4976
29782W        W45399   6.242  17.307   0.665 -0.0257 -0.2175  0.1273
29783W        W45400   9.528   7.211   4.623  0.1045 -0.1760  0.3111
29784W        W45401  17.513   6.777  16.212  0.3527 -0.1688  0.0213
29785W        W45402   7.230   8.076   5.771 -0.0596 -0.3712 -0.0955
29786W        W45403   9.531   3.262  15.006 -0.1553  0.0884 -0.1906
29787W        W45404   9.278   1.792   2.737  0.2312  0.0975 -0.1499
29788W        W45405  17.577  11.310  15.926 -0.2671 -0.0875  0.1977
29789W        W45406   8.373   3.526  11.235  0.1156  0.2640  0.1358
29790W        W45407   5.225   6.350  11.458  0.2836  0.1243  0.1584
29791W        W45408  16.504  10.009   5.579 -0.0351  0.0646 -0.0184
29792W        W45409  15.781   6.957  14.834  0.0141  0.0414  0.1057
29793W        W45410   3.207   0.678   2.927  0.4482  0.2692 -0.1282
29794W        W45411  10.639   9.774  14.407  0.1727 -0.0569  0.0723
29795W        W45412  13.868   5.986  17.210 -0.0795  0.0274  0.2830
29796W        W45413  16.773  14.963  11.819  0.1016 -0.1470  0.2158
29797W        W45414  16.331   5.362  12.282 -0.0247  0.0607  0.0590
29798W        W45415  11.266   8.291   5.232  0.1363 -0.1059  0.4565
29799W        W45416  13.455  14.510  16.688 -0.1626  0.1459  0.3880
29800W        W45417   8.456   4.414  11.508  0.1436 -0.0092  0.1395
29801W        W45418  13.909   4.947   6.001 -0.0428 -0.2151 -0.3143
29802W        W45419  11.818  12.784   3.562  0.0667  0.1500 -0.0120
29803W        W45420   5.488  10.399   2.458  0.1765 -0.0520 -0.1315
29804W        W45421  14.020  11.635  13.614 -0.0823 -0.1635  0.3217
29805W        W45422  13.419   6.733  13.942  0.0159  0.0834  0.1684
29806W        W45423  16.039  12.543   1.318 -0.3432  0.0960  0.2600
29807W        W45424   2.783   0.964  12.029  0.1199 -0.1748 -0.0898
29808W        W45425  17.006   1.240   2.792  0.0528 -0.2027 -0.1195
29809W        W45426   6.903   7.303   0.849 -0.0294 -0.0880 -0.0441
29810W        W45427  12.046   8.287  14.763 -0.1368  0.0740 -0.1289
29811W        W45428   0.014   6.827  14.042  0.1437 -0.0655  0.0721
29812W        W45429  15.827   9.618   5.067 -0.2556  0.1008 -0.2885
29813W        W45430  11.030   2.314  16.745  0.1710  0.0944 -0.2739
29814W        W45431   9.171   7.503   4.690  0.1722 -0.3191 -0.0950
29815W        W45432  12.452   2.961   3.047 -0.2871 -0.1570 -0.3479
29816W        W45433   5.017  15.629   4.740  0.1898 -0.1691 -0.0012
29817W        W45434  16.442   7.218   4.065 -0.4418 -0.0104  0.2241
29818W        W45435   6.391  11.806  13.915 -0.1414  0.0620  0.0992
29819W        W45436   7.872   0.914  12.343  0.1332  0.2026 -0.1226
29820W        W45437   4.597   3.128  13.317 -0.1513  0.2118  0.1085
29821W        W45438  12.771   9.739  13.370 -0.1417 -0.1736 -0.0639
29822W        W45439  10.748   3.445   4.860  0.1890 -0.1812 -0.0591
29823W        W45440  12.687   4.420   2.603 -0.1003  0.0201 -0.0441
29824W        W45441   5.933   6.187  17.176  0.0173  0.0007  0.2845
29825W        W45442   2.783  10.359   2.720  0.1758 -0.1718 -0.1155
29826W        W45443  15.247   7.449   5.845 -0.0606  0.0610  0.1130
29827W        W45444   5.518  17.310   4.307  0.1370  0.2183  0.1545
29828W        W45445   8.470   2.029  14.200 -0.0136 -0.1364  0.1361
29829W        W45446   6.615   8.952   2.778  0.1417  0.0701  0.0316
29830W        W45447   6.563  14.992  12.630 -0.1330  0.0064  0.0596
29831W        W45448  13.002   9.923  17.065 -0.0953  0.4264 -0.2186
29832W        W45449  15.833  14.785   1.577  0.0427  0.1221  0.0004
29833W        W45450   3.461   6.654  14.295 -0.1931  0.0555 -0.3430
29834W        W45451  15.836   5.723   3.602 -0.0036  0.0922 -0.2204
29835W        W45452   8.848  13.005  14.007 -0.0751 -0.0842 -0.2079
29836W        W45453  13.751   2.619   1.134 -0.2517  0.1472  0.0334
29837W        W45454   9.502   8.626  14.882 -0.0156 -0.1703 -0.0547
29838W        W45455  10.805  17.443  14.268  0.0864  0.0239 -0.1252
29839W        W45456  15.570  16.345   3.821 -0.0176  0.2980 -0.2800
29840W        W45457   4.956   6.949   4.161  0.0976  0.2106  0.2727
29841W        W45458  12.837  10.371   3.115  0.0129  0.1320  0.1238
29842W        W45459  12.510  14.345  12.849 -0.1744  0.0934  0.0690
29843W        W45460  10.889   4.489   1.350 -0.2343  0.1708  0.0743
29844W        W45461  10.901  12.327   3.334 -0.0202 -0.1428  0.3968
29845W        W45462  14.038  13.479   5.022 -0.3714 -0.2339 -0.1522
29846W        W45463   6.250   5.909  15.677  0.1814  0.0652  0.2750
29847W        W45464  13.554  16.848   4.791  0.0350  0.1363  0.3814
29848W        W45465   1.774  12.978  11.725  0.1027  0.1059 -0.2583
29849W        W45466   9.969   8.123  14.371 -0.0732 -0.2397  0.1444
29850W        W45467  14.946   0.748   3.223 -0.1987 -0.0835 -0.0137
29851W        W45468  11.854  16.550   1.836  0.1573 -0.2087 -0.1562
29852W        W45469   1.043   9.201   1.742 -0.1064  0.0240 -0.0265
29853W        W45470  16.841   8.845  14.407 -0.2446  0.1604  0.3539
29854W        W45471   3.902   3.058  14.924 -0.2155 -0.1108  0.2923
29855W        W45472  11.569   2.076   0.841 -0.0588  0.0934 -0.1053
29856W        W45473  14.192  13.566  16.528  0.1044 -0.1942 -0.2935
29857W        W45474   6.220   1.822   0.487 -0.1171  0.1051  0.0783
29858W        W45475   4.495  13.026  12.134 -0.0745  0.0407 -0.1203
29859W        W45476  11.846  14.368  11.804  0.2042  0.0446  0.2724
29860W        W45477  14.162  17.246  16.327  0.4639  0.1906 -0.0912
29861W        W45478   9.355  15.425   2.113 -0.2269  0.0497 -0.1385
29862W        W45479   8.311   5.897  15.521  0.1123  0.1332  0.0769
29863W        W45480  11.804  15.391   4.927  0.1281  0.0597 -0.0855
29864W        W45481   0.495   1.694   3.116  0.1792  0.2053 -0.3417
29865W        W45482  14.069  12.200  16.753  0.1905 -0.2380 -0.2584
29866W        W45483  13.292   2.108   4.491 -0.1003  0.0181 -0.0507
29867W        W45484   4.243   4.219  16.540  0.0314  0.1854 -0.1597
29868W        W45485  13.007   1.259  14.456 -0.0695 -0.1339  0.1389
29869W        W45486  10.344  10.794   3.279 -0.3089 -0.2602  0.0253
29870W        W45487   9.452   8.273   4.463 -0.2214 -0.0748  0.1313
29871W        W45488   8.544  16.301  12.354 -0.1999 -0.0897  0.2691
29872W        W45489   2.561   7.389  12.695  0.0519 -0.1073 -0.1134
29873W        W45490  12.271   6.447  11.927  0.2270 -0.0713  0.0370
29874W        W45491  11.457   4.565  13.254 -0.0742 -0.0101  0.0011
29875W        W45492  13.956   6.622   5.671  0.1574 -0.2711 -0.1181
29876W        W45493   2.041   1.455  11.899  0.5005 -0.2672 -0.1245
29877W        W45494  15.804  16.744  11.472  0.2458 -0.2118  0.1069
29878W        W45495   4.697   4.718  16.032  0.1878 -0.1910  0.0263
29879W        W45496   1.595  14.625   4.491  0.0627  0.2302  0.0865
29880W        W45497  14.166   7.912  14.919  0.1633  0.0496 -0.3719
29881W        W45498   4.386   7.375   4.665 -0.0374  0.2802  0.0221
29882W        W45499   3.830  13.492  14.424  0.2344  0.0862  0.0127
29883W        W45500   3.201  15.605  16.409  0.0340  0.2337 -0.0160
29884W        W45501  14.103  14.206   4.569  0.5390 -0.0706  0.1539
29885W        W45502   7.518   1.058  16.693 -0.1219 -0.2557  0.1280
29886W        W45503  14.939   1.548  14.781  0.0542  0.0566 -0.0870
29887W        W45504  13.614  16.354  15.003  0.0984  0.0179 -0.3258
29888W        W45505   7.732   4.972  11.834  0.1696 -0.1178 -0.3046
29889W        W45506  13.683  15.373   3.156 -0.1040  0.2742  0.1864
29890W        W45507   7.054   9.498   0.897 -0.2123  0.2616  0.0242
29891W        W45508   5.688  14.791  14.217  0.0405 -0.0463  0.0355
29892W        W45509   6.047   9.220   5.676  0.1305  0.0502  0.1919
29893W        W45510   9.944   6.767   1.536  0.1019 -0.2163 -0.0040
29894W        W45511  14.911   6.763   4.695  0.0178 -0.1148 -0.0858
29895W        W45512  17.350   0.926  14.776 -0.0420  0.0357  0.0768
29896W        W45513   2.994  10.968   4.344  0.1166 -0.0056 -0.0712
29897W        W45514   2.079   8.822   1.255 -0.2078  0.1162 -0.0791
29898W        W45515  10.992  10.794   4.150 -0.0892  0.0076  0.0013
29899W        W45516   3.288   7.535  15.936  0.0238 -0.0055  0.0339
29900W        W45517  17.242  12.540  14.532 -0.1267  0.0071 -0.0142
29901W        W45518  17.419  14.558  15.192 -0.0851 -0.1985  0.0756
29902W        W45519   9.027   6.800   3.273  0.0693 -0.0755 -0.0859
29903W        W45520   2.819   9.211   4.175  0.1201  0.0196  0.0197
29904W        W45521  10.710  16.983  12.702 -0.2190  0.0816 -0.0469
29905W        W45522  15.421   7.985  14.464  0.0275 -0.0261  0.3687
29906W        W45523   9.461  13.107   4.194 -0.1705 -0.3499  0.0292
29907W        W45524  17.518   7.956  15.208  0.0299 -0.2302 -0.0035
29908W        W45525   2.366   9.988   6.348  0.1901  0.3351 -0.0874
29909W        W45526  11.588  12.853  12.207 -0.2804  0.0394  0.1370
29910W        W45527   6.936   2.980   2.221  0.1854 -0.0443  0.1110
29911W        W45528  12.817   1.490  16.182  0.0445  0.0031  0.0383
29912W        W45529  14.650   0.748   6.067  0.0366  0.4016  0.1589
29913W        W45530   4.338  13.762  14.397  0.1039 -0.2413 -0.1436
29914W        W45531  10.873   7.493  15.304 -0.0255 -0.0629 -0.1004
29915W        W45532   1.905   2.427  16.098 -0.0811  0.0275  0.1109
29916W        W45533   9.626   2.031   0.884 -0.1747 -0.1819 -0.0874
29917W        W45534   8.519  14.189  12.438  0.0168 -0.0079  0.1203
29918W        W45535  16.656  17.164   3.662 -0.1517  0.2734 -0.0335
29919W        W45536   1.175   8.316  16.078  0.0188  0.2104 -0.3171
29920W        W45537   0.497  17.445  13.684 -0.0948  0.2098 -0.1904
29921W        W45538   7.348  12.760  14.876 -0.0764 -0.1028 -0.2691
29922W        W45539  12.022   5.777   1.826 -0.0366  0.0729 -0.0485
29923W        W45540   6.732   2.588  14.478 -0.2559 -0.2035  0.1276
29924W        W45541  10.185  12.232   1.567  0.2682  0.0713  0.0049
29925W        W45542  14.940  15.210  13.530  0.0708  0.3556  0.0676
29926W        W45543  16.239   5.001  15.964 -0.0460  0.0387  0.4837
29927W        W45544   2.256   4.637  12.302  0.1847  0.3412  0.3578
29928W        W45545  11.553   7.848  16.407 -0.2214 -0.3714  0.1980
29929W        W45546   6.433   8.039   4.532 -0.1831 -0.0102  0.0718
29930W        W45547   6.753   4.872  16.391 -0.3029 -0.2075 -0.1590
29931W        W45548   2.513   0.506   1.842 -0.2459  0.1067 -0.2299
29932W        W45549   3.724   6.195   5.990 -0.1289 -0.0806 -0.0320
29933W        W45550   9.463   3.486   1.101 -0.0681  0.0081  0.1993
29934W        W45551   7.040   0.535   5.241 -0.0676  0.2754 -0.1351
29935W        W45552  11.003   4.554   2.730 -0.2186  0.3033  0.1161
29936W        W45553  10.135   1.798   4.465  0.1165  0.1842  0.0679
29937W        W45554   3.195  15.953  14.612  0.1406  0.1821 -0.2619
29938W        W45555   4.419  11.249   3.952  0.2281 -0.0976  0.1320
29939W        W45556   2.970  14.926  11.488  0.0152  0.1288 -0.0353
29940W        W45557  14.278  17.040  15.346  0.0078  0.1582  0.0238
29941W        W45558  15.318   7.559  14.750 -0.3056  0.1120 -0.0217
29942W        W45559  12.135   7.835   5.115  0.1165  0.1478 -0.2330
29943W        W45560   4.179  12.268   1.252  0.1000  0.2923  0.0176
29944W        W45561   6.861   5.387  16.466 -0.0699 -0.0218 -0.0333
29945W        W45562   9.265  10.357   0.772 -0.0681  0.0318  0.0328
29946W        W45563   5.225  10.670   1.254 -0.1818  0.0445 -0.2048
29947W        W45564   3.137   5.725  14.863  0.2815  0.0347 -0.1880
29948W        W45565   6.768  12.000   0.969 -0.1084 -0.2676 -0.2350
29949W        W45566   1.087   4.721  16.771 -0.0041  0.1912 -0.1178
29950W        W45567   6.488  11.389  15.321 -0.0120 -0.1288  0.3616
29951W        W45568  12.801  14.729  13.118  0.2004 -0.0437  0.2551
29952W        W45569  10.137   1.680   4.001 -0.4300  0.1843  0.1046
29953W        W45570   2.866   1.640   3.406 -0.1873  0.1308  0.0852
29954W        W45571   2.352  11.282   6.602  0.1091 -0.1165 -0.0834
29955W        W45572   3.461   1.901   4.674  0.0759  0.0921  0.1266
29956W        W45573   0.776   5.499  11.359  0.0618 -0.1712 -0.2531
29957W        W45574   2.983   0.499   5.056  0.0965 -0.0158 -0.2717
29958W        W45575  16.605  14.155  11.404  0.2312  0.2541  0.0335
29959W        W45576  15.250  14.695  11.562  0.1970 -0.1792 -0.2202
29960W        W45577   0.225   4.423   4.082  0.1513  0.0150  0.1088
29961W        W45578   0.978   6.382   5.045 -0.0936 -0.0931 -0.1419
29962W        W45579  15.000  14.128   5.437  0.1167 -0.2692 -0.0712
29963W        W45580   9.686  10.764  16.770  0.2080  0.0416  0.0657
29964W        W45581  15.335   5.096   1.288 -0.1317  0.0089 -0.3177
29965W        W45582  16.398   1.514   5.631 -0.3569  0.2300 -0.0061
29966W        W45583   8.855   4.363   2.080  0.0315  0.0555 -0.0665
29967W        W45584   0.108  11.951  12.945  0.3330  0.1606  0.1695
29968W        W45585   0.658  14.543   4.542 -0.1470 -0.1402  0.1600
29969W        W45586  11.659  17.041   1.745  0.1003 -0.1372  0.0543
29970W        W45587   2.275   2.922   1.090 -0.0901  0.2488  0.0682
29971W        W45588  10.009  10.410   3.445  0.0475  0.0285 -0.3132
29972W        W45589  10.423  13.862   3.167  0.1925  0.3665 -0.0762
29973W        W45590   2.187   6.415  15.156  0.0864  0.2346  0.0192
29974W        W45591   7.041   3.526  16.581 -0.0377  0.1163 -0.0533
29975W        W45592   2.146   3.424  12.256  0.0783  0.1483 -0.1468
29976W        W45593   2.697   8.617  14.845 -0.1546  0.1281  0.0271
29977W        W45594   7.003  17.434   2.989 -0.0534  0.2568 -0.2168
29978W        W45595   6.939   1.562  14.417  0.1075 -0.1121 -0.0019
29979W        W45596   0.706  12.848   2.626 -0.2849  0.0175  0.5168
29980W        W45597   2.463   2.763  15.178 -0.1331  0.1269 -0.0299
29981W        W45598   0.891  10.313  12.519 -0.1947  0.1019 -0.0123
29982W        W45599  14.044  17.311   3.414  0.0981 -0.0181 -0.0938
29983W        W45600   1.967   2.084   3.400  0.1163 -0.1125  0.3093
29984W        W45601  10.648  16.312   5.482 -0.2200 -0.1511  0.1708
29985W        W45602   9.588  12.699   2.760 -0.0754 -0.0424 -0.1981
29986W        W45603  16.536  16.292  13.032 -0.1049  0.0183  0.2041
29987W        W45604  16.000  13.583   1.468  0.1912 -0.0662  0.0446
29988W        W45605   6.994  17.109   2.533  0.0134 -0.3001 -0.1326
29989W        W45606   5.454  10.645   4.287 -0.0952  0.0564 -0.0891
29990W        W45607  12.339   1.764  16.263 -0.0554 -0.1496  0.1012
29991W        W45608   3.195   3.085   6.283 -0.0471  0.0906  0.1672
29992W        W45609  10.262   7.609  16.043 -0.1419 -0.0101 -0.2111
29993W        W45610   2.546  11.819   2.273  0.1054  0.0569 -0.0496
29994W        W45611  14.796  16.753  14.676  0.0648 -0.0440 -0.0583
29995W        W45612  12.696  11.141  15.438 -0.0333  0.1415  0.2454
29996W        W45613   8.042  11.685   2.607 -0.1090 -0.0344 -0.2585
29997W        W45614   0.154   6.396   5.850  0.0001  0.0141  0.3342
29998W        W45615   7.755   9.255   2.515 -0.3296  0.0290 -0.1508
29999W        W45616  14.256  13.230   3.457 -0.2276 -0.0037  0.0342
30000W        W45617   2.219  11.591   1.660  0.2454  0.1298 -0.0550
30001W        W45618   9.529  12.552   4.111  0.0919 -0.0747 -0.1347
30002W        W45619   2.256   4.736   4.209 -0.1160  0.2019 -0.2377
30003W        W45620   0.840  15.011   4.001  0.0355  0.0464  0.0307
30004W        W45621   3.362   8.357  15.513  0.2422 -0.0875 -0.0501
30005W        W45622  17.520   3.489   5.671  0.0684  0.0526 -0.1804
30006W        W45623   1.384  12.975  14.128 -0.2798  0.0176  0.0221
30007W        W45624   2.014  11.662   4.721  0.1557  0.0307 -0.0459
30008W        W45625  17.276   6.523   6.225 -0.1591 -0.2808 -0.1327
30009W        W45626   1.032   2.540   1.431 -0.1184 -0.0896 -0.2224
30010W        W45627  10.248  16.177  11.984  0.0943  0.1420 -0.0929
30011W        W45628   5.073  13.784   2.723  0.2448  0.0228 -0.3380
30012W        W45629   8.355  16.766   2.116 -0.2640  0.1428 -0.3693
30013W        W45630  13.741  14.563  12.876  0.0129  0.1449 -0.0073
30014W        W45631   3.689   3.955  12.964  0.0862  0.0335 -0.0983
30015W        W45632  15.764  14.688  13.674 -0.0323  0.0146  0.2807
30016W        W45633  13.150  14.222   2.156  0.0857 -0.1285  0.1608
30017W        W45634   2.201   4.237   4.062 -0.0769 -0.0752 -0.0723
30018W        W45635  11.175   9.937  16.079  0.0006 -0.1740  0.0316
30019W        W45636   6.219  13.007  13.312  0.1780  0.2856  0.0128
30020W        W45637   1.997  10.529   2.926  0.1531 -0.1422 -0.3273
30021W        W45638  17.051   8.336   3.826 -0.0357 -0.0313 -0.0446
30022W        W45639  11.315  13.553   3.785 -0.0800 -0.0436 -0.1347
30023W        W45640   2.617   5.230  15.769  0.2907  0.1535 -0.1340
30024W        W45641  12.138   3.525  14.972  0.2197  0.3647 -0.0054
30025W        W45642  16.316  14.666   1.806 -0.2537 -0.1765 -0.0704
30026W        W45643   0.263  14.497   4.899 -0.2190 -0.2654 -0.1218
30027W        W45644  12.220   6.546   1.355 -0.0394  0.1011  0.1326
30028W        W45645   1.089  16.919  14.323 -0.1841 -0.3114 -0.0275
30029W        W45646   5.707   5.220  13.481  0.2959 -0.1975 -0.0784
30030W        W45647   2.092  15.838  13.674  0.0294  0.2715 -0.4582
30031W        W45648  12.022   2.306   0.689 -0.2919 -0.0254 -0.0177
30032W        W45649   7.119  11.899  13.161  0.0101  0.0791 -0.3087
30033W        W45650   9.018  14.429   0.460  0.0705 -0.2365  0.2437
30034W        W45651   1.273  15.953  13.222  0.0897 -0.1270 -0.0909
30035W        W45652  17.146   8.284  15.067 -0.3784  0.1951 -0.0454
30036W        W45653   2.194  13.250  16.150 -0.1841 -0.1610  0.1764
30037W        W45654  12.120   1.174   3.268 -0.0300 -0.1062 -0.2879
30038W        W45655  14.274  12.383   5.414  0.2941  0.0425  0.2230
30039W        W45656   6.778   0.300  14.683  0.4071 -0.1215 -0.1504
30040W        W45657   3.597  16.351   2.255 -0.1798  0.1280 -0.1281
30041W        W45658  13.253   4.380  16.164  0.1627  0.0411  0.0963
30042W        W45659   5.825   9.988   2.604  0.0556  0.0951  0.0010
30043W        W45660   7.657   0.847   2.563 -0.1775  0.2776  0.2185
30044W        W45661   5.844   3.176  16.441 -0.0345 -0.1326  0.2425
30045W        W45662   9.308  13.781  12.977 -0.0958 -0.4333 -0.2747
30046W        W45663   8.788   8.798  15.998 -0.3403 -0.0344 -0.6502
30047W        W45664   4.028  15.375  12.527  0.2274 -0.2396 -0.1148
30048W        W45665   7.516   6.118  13.109  0.0801 -0.0519 -0.2487
30049W        W45666  17.316  12.435   1.562 -0.3943  0.2080  0.2134
30050W        W45667   0.900   6.044  14.641 -0.1882 -0.0919 -0.0888
30051W        W45668  13.078   5.398   2.645  0.1943  0.0491  0.3054
30052W        W45669   9.588   5.363   5.337 -0.2537  0.1339  0.0831
30053W        W45670  10.722   3.548   1.172 -0.0114  0.0616 -0.0685
30054W        W45671   1.930   9.281   3.710  0.1883  0.1676  0.0711
30055W        W45672  11.991   5.421   5.593 -0.2072 -0.1119 -0.1496
30056W        W45673  14.050   1.082   2.709 -0.0312  0.2518 -0.6433
30057W        W45674   8.671  15.503   4.653 -0.0459  0.1352 -0.3988
30058W        W45675   1.498  10.153   5.948 -0.0097  0.0436  0.1558
30059W        W45676  14.376   6.451   3.668  0.2952 -0.1667  0.1211
30060W        W45677   6.917  15.009   1.954 -0.0581 -0.4036  0.2553
30061W        W45678   1.463   4.332   2.791 -0.0166 -0.0585  0.0189
30062W        W45679  14.328   6.263  16.432 -0.2930 -0.0644 -0.0977
30063W        W45680  16.815   4.967  14.021 -0.0350  0.0104  0.0632
30064W        W45681   8.326   2.947  11.179  0.2172  0.0878 -0.3046
30065W        W45682   1.660  10.157   5.247  0.3781  0.1753 -0.0048
30066W        W45683  13.745  11.424   4.926  0.1585 -0.0207 -0.3102
30067W        W45684  15.165   2.381  12.762 -0.0423  0.0375 -0.2514
30068W        W45685  13.824  15.442  11.764  0.2290  0.0240 -0.0708
30069W        W45686   7.565   8.141  14.900  0.1928 -0.2374  0.2162
30070W        W45687  16.618   0.819   3.509 -0.1906 -0.0736  0.0186
30071W        W45688   4.118  14.911  16.265 -0.3016 -0.0159 -0.0809
30072W        W45689  14.148   0.058   0.415 -0.0704  0.0039 -0.2318
30073W        W45690  13.651   1.309   3.821 -0.1768  0.3192  0.2026
30074W        W45691   2.635   4.185  12.419 -0.3653  0.2543 -0.0600
30075W        W45692   5.904   0.587  12.878  0.3390  0.0155  0.0448
30076W        W45693   8.942   2.110   2.680  0.1362 -0.0818  0.0648
30077W        W45694  12.144   2.686  15.228  0.1829 -0.0389  0.2513
30078W        W45695  15.703  12.933   1.158 -0.0542  0.0905  0.1519
30079W        W45696   2.204  11.977  13.109  0.1310 -0.0890  0.0161
30080W        W45697   6.215  12.011   3.301  0.1382 -0.5444 -0.2442
30081W        W45698  16.695   6.837   0.438 -0.0864  0.2515  0.1073
30082W        W45699   5.204   9.475   4.244  0.0369 -0.1265 -0.0610
30083W        W45700  10.731  16.036   2.525 -0.0573 -0.3575 -0.0346
30084W        W45701   6.624   9.399  12.343  0.1777 -0.0485 -0.4220
30085W        W45702  10.237   7.024   4.483 -0.0519  0.0296  0.2662
30086W        W45703   3.123   8.162  15.885  0.2011 -0.0185  0.0361
30087W        W45704  14.029   2.851   2.424  0.2206  0.0388  0.1904
30088W        W45705   0.964   0.090   0.255 -0.0473  0.0490  0.2441
30089W        W45706   9.472   1.342   1.613 -0.0381  0.0671 -0.1270
30090W        W45707  15.824  11.902   2.682  0.3709 -0.0911  0.0162
30091W        W45708  15.143  10.609   3.512 -0.1117 -0.0593  0.0712
30092W        W45709   7.796  14.091  14.594  0.0625  0.4167 -0.4990
30093W        W45710   6.620   3.034   5.554 -0.5046 -0.1279  0.0229
30094W        W45711  11.016   0.271   0.176  0.0727 -0.0508  0.0620
30095W        W45712   5.482   9.379  14.191  0.1837 -0.0621  0.0249
30096W        W45713   3.299   9.430   4.409 -0.0641  0.0564  0.1033
30097W        W45714   8.829   8.660   3.545  0.1998 -0.0428  0.0111
30098W        W45715  16.628   6.092  15.545 -0.3037  0.0389  0.0388
30099W        W45716   9.457   6.489   0.337  0.3936 -0.2275  0.1304
30100W        W45717   0.224   4.056   1.093 -0.3134  0.2292  0.0565
30101W        W45718   5.596   7.779   3.916 -0.0703  0.2929 -0.0597
30102W        W45719  11.936  12.465  12.264  0.2270 -0.0338 -0.2716
30103W        W45720  11.330  15.775   0.195 -0.2284 -0.0395  0.3398
30104W        W45721   8.089   9.341  17.247 -0.2331  0.0061  0.3694
30105W        W45722  17.591   8.992  12.833 -0.0270 -0.1094 -0.1305
30106W        W45723   8.389  16.819   3.442  0.1452  0.1078  0.0978
30107W        W45724  17.539   7.665  12.554 -0.1076 -0.2310  0.0177
30108W        W45725   3.377   6.132   0.960 -0.1219  0.3141 -0.0772
30109W        W45726   3.487  15.748  16.958  0.3259 -0.1972  0.0096
30110W        W45727   8.445  11.746   3.417  0.0978 -0.0184 -0.1354
30111W        W45728   5.603   7.619  17.039  0.0923 -0.2616 -0.1152
30112W        W45729   9.706  14.763  12.501  0.2051 -0.0231 -0.1468
30113W        W45730   5.818   4.587   1.511  0.3061 -0.3261  0.0805
30114W        W45731   2.529  14.676  12.187  0.2984  0.3394  0.0034
30115W        W45732  10.425  15.941   3.021 -0.0070  0.2818 -0.1245
30116W        W45733  15.660   9.731   4.597  0.2502 -0.3935  0.3389
30117W        W45734  13.880  15.710   4.039  0.2544 -0.1764  0.6210
30118W        W45735   0.319   9.313  13.002 -0.0542 -0.1275 -0.0434
30119W        W45736   5.553   8.576   3.407 -0.2147  0.0434  0.2220
30120W        W45737  13.149   2.937  12.331  0.3637  0.1567  0.0994
30121W        W45738   7.714   4.498   2.660 -0.0461  0.1816  0.0904
30122W        W45739   3.783  16.670  13.891 -0.1131  0.0099 -0.0259
30123W        W45740  15.032   5.744   5.402 -0.0917  0.0470 -0.1807
30124W        W45741   4.779  17.298  16.584 -0.0685  0.2272 -0.0152
30125W        W45742  13.048   2.762   0.694 -0.5111 -0.1083  0.0306
30126W        W45743   3.765  16.698  16.408  0.1115  0.2552 -0.1395
30127W        W45744  11.944  10.435  13.289 -0.1883  0.0990 -0.1041
30128W        W45745   1.113   3.791   6.505  0.3260 -0.0628 -0.3371
30129W        W45746   8.266  16.753   4.476  0.1673  0.0240  0.3661
30130W        W45747   0.370  11.818   5.846 -0.2361  0.0704  0.1955
30131W        W45748  10.923   9.082  15.112  0.3758  0.1122 -0.1018
30132W        W45749  10.464   0.440   1.604  0.2357 -0.4959 -0.0623
30133W        W45750   2.956   9.296  13.583 -0.0746  0.2765 -0.0240
30134W        W45751   0.910  14.096   3.048 -0.1200  0.0291  0.0630
30135W        W45752   4.382   1.988   2.163  0.2242  0.2362 -0.1242
30136W        W45753  12.335   1.510   2.285 -0.1315 -0.0409  0.0442
30137W        W45754   4.286  11.352  16.525 -0.0300  0.2408 -0.0781
30138W        W45755   9.498  10.478  12.859  0.1404  0.0892 -0.0092
30139W        W45756  14.875   8.915   2.032  0.1239 -0.1488  0.1306
30140W        W45757   3.584   4.911  11.710 -0.0092  0.0877 -0.1827
30141W        W45758  17.058  12.501   1.135  0.2403 -0.0151  0.0570
30142W        W45759   6.751  12.018   1.821  0.1758 -0.1940 -0.1622
30143W        W45760   2.973  11.818   1.315 -0.4015  0.1693  0.0903
30144W        W45761  16.872   8.651   1.994 -0.1886  0.1875 -0.2022
30145W        W45762   6.742  10.067   4.076  0.1806 -0.0776 -0.1572
30146W        W45763   7.999  11.678  11.859 -0.0565 -0.1055  0.3451
30147W        W45764   1.719   7.448   4.938  0.0867 -0.2315 -0.0908
30148W        W45765  16.569  11.017  13.944  0.1801  0.2508 -0.1842
30149W        W45766  11.855  10.873   0.629  0.0360  0.2601  0.0205
30150W        W45767   0.960  11.591   3.382  0.0648 -0.3719 -0.2102
30151W        W45768  11.602   6.858   6.269 -0.2217 -0.0537 -0.1163
30152W        W45769   6.755   2.723   5.189 -0.0588 -0.0881  0.0222
30153W        W45770   4.519   6.940   4.517  0.0173 -0.1250  0.0548
30154W        W45771  11.304   7.630  15.046 -0.0302 -0.1434  0.1470
30155W        W45772  16.287  10.686  16.332  0.0590 -0.1089 -0.1290
30156W        W45773   4.695   4.552   5.229  0.1207  0.1408 -0.1466
30157W        W45774  12.481   8.662   0.935  0.1571  0.0369 -0.4223
30158W        W45775  13.329   9.454   5.544 -0.0861  0.1765 -0.2581
30159W        W45776   5.669  11.969  16.006  0.0651 -0.1023 -0.0577
30160W        W45777  16.284  16.907  15.813  0.3808  0.0825 -0.0479
30161W        W45778  12.265   9.126   4.993 -0.2456 -0.1147  0.2400
30162W        W45779   6.081  12.741   0.706  0.2331  0.0123  0.0219
30163W        W45780  14.066  10.340   1.812  0.0062  0.1509 -0.1934
30164W        W45781  15.144  15.204  13.107 -0.5557  0.1683 -0.1889
30165W        W45782   3.799   0.259   3.692  0.1403  0.0344 -0.0334
30166W        W45783   7.391  15.742  15.643  0.0409  0.0250 -0.2368
30167W        W45784   5.952   1.407  15.219 -0.3590  0.0997 -0.0647
30168W        W45785   4.462   5.988   2.093  0.4631  0.2267 -0.0607
30169W        W45786  11.631  16.847   3.828 -0.1304 -0.3572  0.0897
30170W        W45787   7.673  10.768   6.335  0.2479  0.1662 -0.2208
30171W        W45788   1.791   5.361   3.178  0.1875 -0.0674 -0.2387
30172W        W45789   4.405   5.559   1.824  0.3136 -0.1508 -0.3308
30173W        W45790   7.895   0.442  17.231  0.1245  0.1077 -0.2248
30174W        W45791   0.684   2.574  12.559  0.2981 -0.0739  0.1321
30175W        W45792  11.164  15.791  15.997 -0.0598  0.2909 -0.1659
30176W        W45793   1.495   7.079   3.067  0.0571 -0.2403 -0.1137
30177W        W45794   9.175  14.476  16.998  0.0499  0.0083  0.1072
30178W        W45795   7.495  16.279  15.612 -0.2394  0.2077 -0.1983
30179W        W45796  11.427   8.163   0.356  0.1570 -0.3827 -0.0765
30180W        W45797   8.956   1.468  16.251  0.3236  0.4516  0.1136
30181W        W45798   7.351  14.024  14.864  0.0811 -0.0610  0.0667
30182W        W45799   4.699  11.628   1.901  0.4459  0.2429 -0.0056
30183W        W45800   7.839   6.845  17.059 -0.1445 -0.0908  0.1485
30184W        W45801   0.572  12.328  15.477 -0.1018  0.1009 -0.0247
30185W        W45802   7.754  10.905  15.954 -0.2689  0.1954 -0.0267
30186W        W45803   5.893   8.822  12.743 -0.0837 -0.0040  0.5513
30187W        W45804   4.713   3.101   2.850 -0.1882 -0.0423  0.0402
30188W        W45805  14.779  13.218  12.763  0.0339 -0.0895  0.0478
30189W        W45806  11.591  14.251   5.094  0.1647  0.2789 -0.0796
30190W        W45807   4.718   4.779   5.701  0.0956 -0.1308  0.0550
30191W        W45808  13.217   8.857   4.806 -0.0703  0.1029  0.1836
30192W        W45809  10.792  16.762  14.102  0.0483  0.0427  0.0473
30193W        W45810  12.318   6.576  12.432  0.1666 -0.0228 -0.1215
30194W        W45811   9.254   7.316  16.870 -0.1293  0.1155 -0.2004
30195W        W45812   5.515  15.222   2.182  0.1533  0.1326 -0.0314
30196W        W45813  16.949   9.455  13.599  0.0248  0.1385 -0.1704
30197W        W45814  10.606   8.472   3.418  0.3047 -0.0349  0.3615
30198W        W45815   4.023   2.171  16.165 -0.0026  0.2505  0.0788
30199W        W45816   9.573   7.800   4.711 -0.2842  0.0083 -0.1465
30200W        W45817   6.337  15.567  13.367  0.1034 -0.0634 -0.1446
30201W        W45818   2.828  15.505   1.667 -0.1582  0.1356  0.0106
30202W        W45819   5.081  11.621  15.542 -0.2435  0.2650  0.2793
30203W        W45820   5.065   0.237  14.528 -0.0907  0.1293 -0.0344
30204W        W45821  11.893   2.801   0.872 -0.1248  0.1802  0.0153
30205W        W45822   5.397  11.622  12.229 -0.4543 -0.0347 -0.0861
30206W        W45823   4.826  11.023   4.133 -0.0747  0.1591 -0.2376
30207W        W45824  16.402   2.203   4.811  0.0575 -0.2198 -0.5096
30208W        W45825  12.153   9.498  15.385  0.0362  0.2064 -0.0934
30209W        W45826  13.686  12.091  14.803 -0.2470  0.1728 -0.3519
30210W        W45827  16.518   3.348   0.742  0.1379 -0.2991  0.3650
30211W        W45828  11.193  15.538  10.294  0.1101 -0.1053 -0.0622
30212W        W45829   9.088   3.681   0.870  0.1291 -0.0821  0.1150
30213W        W45830  15.646  15.302  15.657  0.0957  0.2886  0.0837
30214W        W45831  13.257  16.183  15.343  0.0278  0.0357  0.1889
30215W        W45832  14.758   7.118  15.564  0.2496  0.0794 -0.2132
30216W        W45833   0.959  11.940  14.649  0.3189 -0.0056 -0.0766
30217W        W45834   5.142   9.601  16.315  0.0487 -0.0990  0.1416
30218W        W45835   8.313   0.935   4.966 -0.0861  0.0896 -0.3218
30219W        W45836   3.439   0.509   0.227  0.3225  0.2909  0.2119
30220W        W45837  15.593   0.377   3.826 -0.2265  0.0866 -0.3030
30221W        W45838  16.422   2.904   5.033 -0.0816 -0.2828 -0.0878
30222W        W45839   6.824   4.044   0.867 -0.2650  0.4451 -0.1272
30223W        W45840   4.247   5.441  15.943 -0.0066  0.2424  0.0815
30224W        W45841  11.178   2.490  14.234  0.5155 -0.2986  0.0764
30225W        W45842   7.319  11.861  16.283  0.0524  0.1338  0.0833
30226W        W45843   3.836   8.271   2.399  0.0914  0.0181 -0.1210
30227W        W45844  11.313  10.650   3.675  0.0317  0.0239  0.1635
30228W        W45845  12.627   3.737  12.612 -0.2571  0.1705 -0.5162
30229W        W45846   5.702  12.815   1.124 -0.1845  0.0840 -0.1046
30230W        W45847   7.639   4.767  12.292  0.3871 -0.0209  0.0510
30231W        W45848  10.522   5.141  13.603 -0.0720 -0.1135  0.1221
30232W        W45849   9.381  10.305  11.893 -0.0595 -0.0622 -0.0800
30233W        W45850  15.017  12.019  16.258 -0.1757  0.0102  0.2713
30234W        W45851   3.720   6.461   0.649  0.0569  0.0142 -0.1728
30235W        W45852  11.659  10.558  17.076  0.0856  0.0773 -0.1358
30236W        W45853  15.612   2.540   2.788 -0.1674  0.0478 -0.0189
30237W        W45854  15.996   8.183   4.523  0.0572 -0.4037 -0.2853
30238W        W45855   3.484  13.088  16.186  0.0226  0.1540 -0.2586
30239W        W45856   8.886  10.636   4.260  0.2082  0.4095  0.1666
30240W        W45857   4.128  14.324   5.338 -0.1121 -0.1289  0.2229
30241W        W45858  14.331   2.159   2.881 -0.0229 -0.0270  0.3015
30242W        W45859  17.615  14.426  15.632  0.0854  0.1466  0.2307
30243W        W45860   4.834   3.652  14.871 -0.1380 -0.1569 -0.0320
30244W        W45861  16.891  15.892  17.291 -0.0568  0.1770  0.2217
30245W        W45862  14.953   4.948   3.306 -0.0033  0.1323  0.0587
30246W        W45863  11.649   8.045   5.001  0.1807  0.2816 -0.3335
30247W        W45864  12.160   9.146   2.601 -0.1919 -0.1659  0.2558
30248W        W45865  11.042  12.841   2.415 -0.1303  0.1893 -0.1140
30249W        W45866   6.512   5.390   0.913  0.0341 -0.2372 -0.1783
30250W        W45867  15.518   3.057   2.940  0.2248  0.0521 -0.3733
30251W        W45868  11.341  15.061   4.411  0.2931 -0.0746  0.1822
30252W        W45869   0.520  14.875   5.244 -0.0650  0.3852 -0.0328
30253W        W45870   7.614   5.381  14.977  0.3829 -0.4207 -0.1746
30254W        W45871  14.724   1.057  15.686  0.0211  0.0062  0.1704
30255W        W45872   2.347   4.712  14.909 -0.0553  0.0081 -0.0044
30256W        W45873   8.303   9.990  14.887  0.0278  0.2134 -0.2139
30257W        W45874   0.698  12.760  15.754  0.1069  0.0702  0.2064
30258W        W45875   5.898   1.721  17.193  0.2924 -0.2017  0.0279
30259W        W45876   3.057  10.378  13.763 -0.1744  0.0117 -0.3037
30260W        W45877   0.650  16.187   2.681  0.0898  0.1374 -0.0673
30261W        W45878   6.364  12.882  14.804 -0.2308  0.2534 -0.0494
30262W        W45879  14.576   4.390   0.493 -0.1359  0.0269  0.1662
30263W        W45880  13.393  11.426   0.559  0.0519 -0.2337  0.0433
30264W        W45881   6.930  10.245   4.958 -0.2000 -0.2772  0.1210
30265W        W45882   1.701   9.004  14.280 -0.3216  0.0686  0.1987
30266W        W45883  16.749   8.822   4.982 -0.2315 -0.2332  0.2333
30267W        W45884   3.286   0.219  15.085  0.0412 -0.0268  0.0026
30268W        W45885   8.529   2.436   1.391  0.2324 -0.0921 -0.2245
30269W        W45886   2.829   0.548   6.063 -0.0645  0.2260  0.0287
30270W        W45887   3.637   9.163  12.329 -0.3200 -0.2056  0.2232
30271W        W45888  10.975   6.070  16.586 -0.0610 -0.2531  0.1018
30272W        W45889  12.511   7.831   1.093 -0.0647  0.1166 -0.1997
30273W        W45890  13.426   8.665  15.940  0.0305 -0.1458 -0.5259
30274W        W45891  10.210   0.845   5.023  0.0682  0.0350 -0.0459
30275W        W45892   0.361  12.900   5.150 -0.2890  0.1333 -0.0256
30276W        W45893  11.331  14.054  17.188  0.3659  0.1833 -0.0110
30277W        W45894   1.581  11.874  16.052  0.1201  0.0364  0.0853
30278W        W45895   9.528   3.584  16.084  0.0333  0.0782 -0.0555
30279W        W45896  16.947   2.694   5.816 -0.0899 -0.1391  0.0821
30280W        W45897  13.431  13.428  15.730  0.3457  0.1385  0.1215
30281W        W45898   6.832   9.487  14.828 -0.0282 -0.2149  0.0461
30282W        W45899   4.697  12.099  15.541  0.0763  0.0947  0.0829
30283W        W45900  10.664   2.329  15.406 -0.1515 -0.3636 -0.1341
30284W        W45901   2.911   9.990  14.028  0.0328 -0.0974  0.1968
30285W        W45902   9.694  10.824  12.500  0.0382  0.1362 -0.1148
30286W        W45903   0.579   3.930  13.772  0.3047  0.1597  0.2902
30287W        W45904   4.497   5.001   2.074 -0.3914 -0.1027  0.1209
30288W        W45905   6.116  15.232  10.370 -0.1610  0.1383 -0.1561
30289W        W45906   6.351   7.160  15.248  0.4147  0.1238  0.0118
30290W        W45907   8.129   1.335   2.322  0.0491  0.0300 -0.0868
30291W        W45908   2.934   2.607  16.270  0.1728 -0.0343 -0.3239
30292W        W45909  10.267  15.755  13.556 -0.1824 -0.0371  0.1667
30293W        W45910  12.759  12.046   1.653 -0.1129  0.1027 -0.0749
30294W        W45911   0.995   2.222  12.724  0.1158  0.0127  0.0134
30295W        W45912   6.402  15.618   2.312 -0.0418  0.1960  0.0271
30296W        W45913   3.315  11.022  15.404 -0.0687  0.0761 -0.0861
30297W        W45914   0.754  16.304   0.761 -0.1753  0.0200 -0.0737
30298W        W45915   7.146  11.267   4.815  0.0000 -0.1218  0.2527
30299W        W45916  14.842   6.036  13.179  0.1346 -0.0915  0.4339
30300W        W45917   4.472   7.079  15.229 -0.1523  0.1619 -0.1348
30301W        W45918   2.754  15.164   2.044  0.0606  0.1281  0.0430
30302W        W45919   1.198   6.604  17.286  0.5591 -0.0225 -0.0162
30303W        W45920   9.919   9.064   3.123  0.3222  0.2137 -0.1581
30304W        W45921   7.234  10.705   3.563  0.0269  0.1874 -0.1107
30305W        W45922   5.227   4.706  12.618  0.3655 -0.0945 -0.2587
30306W        W45923  14.455   5.848  12.912  0.4155  0.3155  0.0914
30307W        W45924  12.012   4.853   0.642 -0.0020 -0.1013 -0.0148
30308W        W45925   7.692  12.437  14.727  0.1246  0.1933  0.2896
30309W        W45926  13.610   4.525   5.914 -0.0505 -0.0717 -0.0038
30310W        W45927  15.236   0.538  11.253 -0.2441 -0.2720 -0.3004
30311W        W45928   1.712   3.880  16.819  0.0981 -0.2473  0.1093
30312W        W45929   4.947  14.023  13.867  0.1541  0.0971 -0.0650
30313W        W45930  12.655   2.938  15.876 -0.0473 -0.1074  0.2626
30314W        W45931  10.738   5.250  16.215 -0.0181  0.3755  0.0125
30315W        W45932  17.098   9.164   0.205 -0.1977  0.1221 -0.1905
30316W        W45933   4.605   3.824  15.765 -0.1893  0.1212 -0.0345
30317W        W45934   8.996   2.859   3.833 -0.0659  0.0194  0.2732
30318W        W45935  10.681  10.651  12.006 -0.0867 -0.2095  0.3802
30319W        W45936   1.355  12.036   5.476 -0.2322  0.0764 -0.1663
30320W        W45937   6.389  12.363   1.886  0.1143 -0.3895 -0.0194
30321W        W45938   3.712  11.739  15.371  0.0990 -0.0283 -0.3909
30322W        W45939   9.131  15.948   2.842 -0.1448  0.1674  0.1521
30323W        W45940   0.577   3.211   6.014 -0.0584 -0.1157 -0.3185
30324W        W45941  11.850   2.257  13.642  0.2749 -0.0783  0.0970
30325W        W45942  17.325  12.968  14.318 -0.0964  0.1374  0.0644
30326W        W45943   0.320  11.552  12.688 -0.1879 -0.2330  0.1385
30327W        W45944  14.145  14.741  12.109 -0.1759  0.2155 -0.1084
30328W        W45945   1.724  13.720  16.175  0.0832 -0.0303 -0.0535
30329W        W45946   8.751  12.224   3.570 -0.1199 -0.1557  0.0398
30330W        W45947  13.855  10.103  12.122  0.4752  0.2677 -0.0012
30331W        W45948   3.074  10.609  13.293 -0.0462  0.2718 -0.0052
30332W        W45949  10.103  15.289   5.048 -0.0234 -0.3150 -0.1831
30333W        W45950   0.629   8.741   5.304  0.0906 -0.0645  0.0550
30334W        W45951  13.820   7.674  16.661  0.0115  0.4928 -0.0700
30335W        W45952   5.042   8.465  15.919 -0.4133  0.2318  0.3165
30336W        W45953   2.006  10.691   1.482 -0.3427  0.1244  0.1048
30337W        W45954   6.648   5.145   5.661  0.1503  0.0747 -0.3303
30338W        W45955  10.943   8.218  16.825  0.1094 -0.0224  0.0596
30339W        W45956  10.656  13.066   2.673 -0.3048 -0.0679 -0.2164
30340W        W45957  10.243  14.721  13.044  0.1240  0.1329  0.3622
30341W        W45958   4.071  15.185   2.092  0.4425 -0.0174 -0.1361
30342W        W45959   3.305  16.167   4.512 -0.0861 -0.3785 -0.2115
30343W        W45960   5.015  15.561  12.767 -0.4437 -0.3919  0.1716
30344W        W45961  10.353  14.618  16.366 -0.1876 -0.2624  0.1220
30345W        W45962  16.535  10.245  12.399  0.1200  0.0936  0.0254
30346W        W45963  15.432   3.246   2.026  0.0820 -0.0405 -0.1315
30347W        W45964   0.156   6.207   3.429 -0.1076 -0.2252  0.3333
30348W        W45965  12.281  17.605  12.769 -0.0643 -0.2013  0.3978
30349W        W45966  14.108   7.604   1.917  0.0236 -0.0345  0.0683
30350W        W45967   9.330  12.685   5.431  0.0739 -0.1044  0.1782
30351W        W45968   2.004  16.070   2.519 -0.1778  0.3977  0.1532
30352W        W45969   6.751  16.525  14.344 -0.0238  0.0988  0.0147
30353W        W45970   9.183  10.570   3.743 -0.1146 -0.0905  0.3192
30354W        W45971   1.142  15.614   1.485 -0.1341  0.0769  0.1418
30355W        W45972   4.261   2.375  12.407 -0.0749 -0.1294 -0.1780
30356W        W45973   7.124  12.286   3.623  0.0577  0.1040 -0.1960
30357W        W45974   3.405  13.609  12.890  0.1706 -0.0720  0.0484
30358W        W45975   9.031   1.225   1.298 -0.2713  0.0376 -0.1230
30359W        W45976  17.055   6.443  16.239 -0.2366  0.0139  0.0751
30360W        W45977   9.135  15.025  17.030 -0.2864  0.1290 -0.0728
30361W        W45978   0.824   9.756   2.568 -0.1563 -0.2901  0.1438
30362W        W45979   1.719   8.059  17.120  0.1741 -0.2862  0.0085
30363W        W45980   8.490  13.729   1.015 -0.1819 -0.2795  0.0077
30364W        W45981   2.846   4.308  13.370 -0.1719 -0.1740  0.0234
30365W        W45982   9.228  14.306  13.020 -0.1245  0.0697  0.0198
30366W        W45983   4.038   2.321   2.562  0.4962  0.0676 -0.0611
30367W        W45984   2.448   5.813  15.020 -0.0757 -0.2460  0.2693
30368W        W45985   4.885   4.200  15.777 -0.1047  0.0989 -0.0297
30369W        W45986   3.270  16.181  15.301 -0.1223 -0.0336 -0.1302
30370W        W45987  13.687  13.759  14.476  0.3205 -0.3073 -0.1158
30371W        W45988  14.142   2.322  15.799  0.1822 -0.0357 -0.1741
30372W        W45989   5.689   2.592   3.305  0.1933 -0.2666 -0.0703
30373W        W45990   2.071   4.656   5.063 -0.0811  0.0354 -0.1471
30374W        W45991  15.682  12.375  14.731  0.0512 -0.0898 -0.0016
30375W        W45992  10.064  16.266  13.746 -0.2188 -0.1438 -0.1960
30376W        W45993   0.993  12.942   2.127 -0.0732  0.0307  0.0742
30377W        W45994   9.243   2.470   4.011 -0.0255 -0.1759  0.1425
30378W        W45995   8.616  15.847  12.407  0.2245  0.0405  0.0841
30379W        W45996  15.372   9.734  14.891 -0.5853 -0.3739  0.0671
30380W        W45997   4.738   3.777  14.037  0.0707 -0.1747 -0.2777
30381W        W45998   1.359  14.773  15.958  0.1163  0.1183  0.2328
30382W        W45999   4.030   1.291   2.765 -0.1059  0.0066 -0.0187
30383W        W46000   1.519  15.432   4.933 -0.1258 -0.2409  0.0208
30384W        W46001  14.778   6.657  12.472 -0.1006  0.2987 -0.5198
30385W        W46002   5.635  14.439  15.504  0.2354 -0.2173 -0.4497
30386W        W46003  12.463   9.608  14.473 -0.1366  0.0241  0.0939
30387W        W46004   0.286   9.312  13.757 -0.0633 -0.0806 -0.0147
30388W        W46005   0.971  14.955  13.456 -0.2154  0.0554  0.0423
30389W        W46006   5.806  15.718  16.352  0.1604  0.2717 -0.0233
30390W        W46007  15.711  13.145  15.782 -0.0796 -0.3997  0.0713
30391W        W46008   2.198  12.463   5.121  0.3658  0.2058  0.0596
30392W        W46009   9.539   5.509  13.819 -0.3273  0.3531 -0.0417
30393W        W46010   6.409  14.332  14.669 -0.2525 -0.0532  0.0379
30394W        W46011  16.473   7.809  17.225  0.1817  0.0409  0.0551
30395W        W46012  16.378   8.124  15.355 -0.0891 -0.0360  0.1633
30396W        W46013   4.504   4.230  14.815  0.0296 -0.2375  0.3615
30397W        W46014  14.487  12.707   5.103 -0.1168 -0.2757  0.2406
30398W        W46015  13.439  17.550  14.970  0.0622 -0.0139 -0.0850
30399W        W46016   4.271   9.944  15.544  0.1190  0.0275  0.0804
30400W        W46017   8.191   7.148   4.921  0.1884 -0.1658 -0.1218
30401W        W46018  16.672   7.336   5.272 -0.0646  0.2935 -0.2025
30402W        W46019   5.923  15.275  13.737 -0.0294  0.0185 -0.3029
30403W        W46020   6.999   0.174  13.330 -0.2022  0.1838  0.2232
30404W        W46021   3.169  10.607  12.380 -0.0614 -0.3020 -0.1082
30405W        W46022  12.155   6.951  15.566 -0.1437 -0.0002  0.2537
30406W        W46023   3.904  13.247  16.597 -0.4459 -0.0531  0.0733
30407W        W46024   7.839   7.805   2.847  0.0874 -0.0678 -0.1176
30408W        W46025   5.799   1.698  15.725 -0.3328 -0.1958 -0.1559
30409W        W46026   4.300  17.553   4.392 -0.1480 -0.1598 -0.0177
30410W        W46027   3.155  12.757   5.205 -0.0238  0.0275 -0.0061
30411W        W46028  14.874   3.379   4.706 -0.1188 -0.1438 -0.0106
30412W        W46029   9.354   5.144  11.116 -0.0026  0.2057 -0.3840
30413W        W46030  14.159  11.984   5.688 -0.0929  0.3728 -0.1609
30414W        W46031  15.979   1.261  13.524 -0.1243  0.0739 -0.3371
30415W        W46032  12.377  12.163   2.310 -0.2316  0.0160 -0.1903
30416W        W46033   6.478  17.517   2.790  0.2170 -0.0836  0.1187
30417W        W46034   9.974  17.145   3.479 -0.0600 -0.0719  0.2358
30418W        W46035   2.358  16.964  14.901 -0.3253  0.0514 -0.2309
30419W        W46036  17.063  14.737   5.126  0.0681  0.0462  0.1566
30420W        W46037  12.110  11.162   1.971 -0.1293 -0.1348 -0.0169
30421W        W46038   5.451   2.285  15.044 -0.0422  0.1343  0.1564
30422W        W46039   9.127   9.342   6.095 -0.2583  0.0766  0.0358
30423W        W46040   8.311   3.358   3.471 -0.1782 -0.3373  0.3722
30424W        W46041  10.616  11.086   2.937 -0.1011  0.1154 -0.0612
30425W        W46042   5.911   8.196   5.363 -0.1647 -0.0356 -0.1538
30426W        W46043   9.239  17.518  15.470 -0.1752 -0.0759 -0.4009
30427W        W46044  16.882  10.052   0.589 -0.2963  0.0389 -0.4214
30428W        W46045   5.250   6.361   3.574  0.0796 -0.2067  0.0514
30429W        W46046  15.958  15.075  12.351 -0.3230  0.1139 -0.0516
30430W        W46047   0.598   2.436   0.045 -0.2936 -0.0025  0.0789
30431W        W46048  13.622  13.713  13.130  0.3065  0.1602  0.0582
30432W        W46049  11.113   2.990  16.064  0.1112 -0.0641 -0.2483
30433W        W46050   2.816  14.811   3.215  0.0822 -0.1914 -0.3881
30434W        W46051  12.945  10.250   5.477 -0.2489  0.0324 -0.0119
30435W        W46052  16.857   0.544  17.182  0.2583  0.0910  0.4411
30436W        W46053  15.624   8.764  14.070  0.0210  0.1761 -0.0582
30437W        W46054   7.030  17.327  16.452 -0.1245 -0.1956  0.0078
30438W        W46055   4.099   5.235   2.569 -0.1524  0.0607 -0.0332
30439W        W46056   1.365   5.266   5.551 -0.0166  0.0958 -0.2431
30440W        W46057  13.373   5.920  16.411 -0.2129  0.0932  0.0741
30441W        W46058  12.592  15.476   0.253  0.0528 -0.0149 -0.0205
30442W        W46059   4.584   6.966   5.106 -0.2069 -0.0805  0.2752
30443W        W46060  10.048   3.121  12.429 -0.2248  0.1864 -0.0444
30444W        W46061   7.342  14.954   1.709  0.1960 -0.1284 -0.2339
30445W        W46062   6.216   9.788   2.160  0.0996  0.0037 -0.0967
30446W        W46063  11.871   2.500  11.998  0.1045 -0.3005  0.1572
30447W        W46064  16.522  16.094   3.895  0.1973 -0.0807 -0.0446
30448W        W46065   2.696  15.832  17.060  0.3023  0.0987  0.1367
30449W        W46066   9.150  17.397  11.436 -0.2229  0.0456  0.0854
30450W        W46067  12.901   5.886  14.231 -0.2071 -0.1279 -0.1621
30451W        W46068   6.583  14.511   3.326  0.1947  0.0322  0.0336
30452W        W46069   4.832  16.584  15.497  0.1064  0.1684 -0.1786
30453W        W46070   7.126  12.833   3.804  0.0287 -0.1212 -0.0490
30454W        W46071   1.166   8.365   0.903 -0.1582  0.1246  0.1329
30455W        W46072  11.058  10.275   2.307  0.2342 -0.1731  0.1788
30456W        W46073  14.684  10.324  15.700 -0.2102 -0.0871 -0.0838
30457W        W46074   2.908  10.251   5.681 -0.0895  0.2768 -0.1113
30458W        W46075  11.674   6.096  15.428 -0.1643 -0.1089  0.0901
30459W        W46076  17.273  12.370  15.510  0.0690 -0.3263  0.0764
30460W        W46077   8.540   1.107   1.021  0.1541  0.1402  0.2884
30461W        W46078   7.706   4.956  16.311  0.1281  0.0242 -0.0343
30462W        W46079   1.391  10.688  15.460  0.0113  0.1566  0.2334
30463W        W46080  13.550  10.441  13.708 -0.2401  0.1076 -0.1293
30464W        W46081  14.491  15.325  13.042 -0.0960 -0.0630  0.0493
30465W        W46082  14.748   6.006  15.577  0.0954 -0.1222 -0.1199
30466W        W46083  13.651   6.942  13.428  0.0632  0.2203  0.3310
30467W        W46084  17.082   4.394   2.065 -0.0458 -0.0162 -0.0050
30468W        W46085   9.138   6.506   5.862  0.3071 -0.1248 -0.1527
30469W        W46086   3.915   2.269  17.188 -0.1323 -0.0942  0.0642
30470W        W46087  13.734   8.184  15.212  0.1717 -0.3536  0.2735
30471W        W46088  10.353   1.378   1.448 -0.3615  0.2194  0.1719
30472W        W46089  14.362   1.144  16.347  0.1800 -0.1534 -0.3410
30473W        W46090  15.386  10.190   4.514 -0.0335 -0.1352 -0.1014
30474W        W46091   0.883   5.809   1.350 -0.0204  0.1485  0.2162
30475W        W46092   6.232   0.541  14.494  0.0526  0.0658 -0.0830
30476W        W46093   2.389  10.809  15.746 -0.0280 -0.0418 -0.0656
30477W        W46094   0.704   4.338   4.374 -0.1294 -0.1639 -0.2098
30478W        W46095  16.832   9.619  15.613 -0.0788  0.2868 -0.2430
30479W        W46096   8.267  12.529  13.636  0.0144  0.1144 -0.0528
30480W        W46097   3.264  13.739  12.390  0.0844  0.4032  0.0230
30481W        W46098  15.364  10.124   1.333 -0.2139 -0.1291 -0.0689
30482W        W46099  14.108  14.016   5.109  0.0184  0.1195 -0.3713
30483W        W46100  16.677  14.911  15.816 -0.0358 -0.1330  0.0076
30484W        W46101   8.189  13.043   4.717  0.1002 -0.0744 -0.0735
30485W        W46102   5.107   2.559   1.416 -0.0302  0.1432  0.0320
30486W        W46103   1.456  16.910  12.764 -0.0558  0.1146 -0.0861
30487W        W46104  16.873   7.367   3.827  0.2887  0.4651 -0.0905
30488W        W46105   1.414   1.828   2.031 -0.2530  0.1280 -0.2650
30489W        W46106  13.990  17.002   2.220 -0.1225 -0.3868  0.3750
30490W        W46107  12.506  17.119   2.830  0.0435 -0.1710  0.1144
30491W        W46108  13.857  13.860   1.276  0.0847  0.2033 -0.2147
30492W        W46109   3.365   6.978  15.514  0.3139 -0.0069 -0.2664
30493W        W46110   4.697   9.446   5.136  0.2231 -0.1728  0.2937
30494W        W46111   9.219  10.730   2.384 -0.0402 -0.0909  0.1581
30495W        W46112  12.836  14.363  13.685 -0.2109  0.0929  0.0630
30496W        W46113  11.657   4.103  11.798 -0.0734  0.0367 -0.1221
30497W        W46114  11.033   9.321  12.643 -0.0292  0.0896 -0.0545
30498W        W46115   4.531  15.976   5.477 -0.1106  0.1918  0.2717
30499W        W46116   8.990  16.367  15.307 -0.1191 -0.0312 -0.1584
30500W        W46117   5.243   8.991   2.069 -0.1385  0.0734 -0.4805
30501W        W46118   1.420  16.222  16.890 -0.0833 -0.0661  0.0044
30502W        W46119  12.198   7.651   3.689  0.0235  0.3698  0.2889
30503W        W46120  13.297   5.208  14.659  0.0942  0.0756  0.0703
30504W        W46121   0.953   0.949  11.794  0.2515  0.1363 -0.0368
30505W        W46122  11.619   4.073  13.533  0.2914 -0.0356  0.3885
30506W        W46123   1.432   9.161   3.682  0.0235  0.1622  0.2257
30507W        W46124  12.233  11.388   0.677  0.0844  0.2040 -0.5146
30508W        W46125   1.718   6.982  12.855 -0.1695 -0.4037 -0.1941
30509W        W46126   1.359  11.002  16.306 -0.0870 -0.0976  0.0687
30510W        W46127   1.151  17.470  14.291  0.4093 -0.0685 -0.3435
30511W        W46128  10.205  17.142  16.778 -0.1729  0.1774 -0.0033
30512W        W46129  10.213  10.871   4.508 -0.2283  0.1990  0.1041
30513W        W46130  11.038  16.124   3.765 -0.1159 -0.0873 -0.2050
30514W        W46131   0.630  12.788   3.978  0.1124 -0.1575 -0.2996
30515W        W46132   2.748  14.994   3.729 -0.0464 -0.0897  0.2534
30516W        W46133   0.520  12.285  13.040 -0.1173 -0.1936 -0.3074
30517W        W46134  16.434   6.353   2.459 -0.0618  0.0790  0.3347
30518W        W46135   8.615  10.358  16.120 -0.2517 -0.1066  0.1553
30519W        W46136  14.246   5.310  14.604 -0.3169 -0.1326 -0.2502
30520W        W46137   4.972   7.987  16.433 -0.0419  0.0344  0.0514
30521W        W46138   3.322   1.423   3.379 -0.1084  0.1285  0.1348
30522W        W46139  10.649   5.777   2.982 -0.0459  0.0595  0.0451
30523W        W46140   9.468   9.151  14.129  0.1877 -0.1779  0.0399
30524W        W46141   0.140   8.775   0.542 -0.2390  0.0662  0.1598
30525W        W46142  15.682  11.520   4.616  0.1035  0.1962 -0.0204
30526W        W46143  11.372   2.205  14.554  0.0029  0.2669 -0.0410
30527W        W46144  11.928  12.235  13.940  0.1545  0.1351  0.2756
30528W        W46145  11.056   5.389   4.521  0.1706 -0.1710 -0.1073
30529W        W46146  10.681   7.238  13.429 -0.1902  0.0119 -0.1646
30530W        W46147   5.287  13.886  11.698 -0.3645 -0.1248  0.0148
30531W        W46148   9.865  10.798  13.000  0.2548  0.0875 -0.0744
30532W        W46149  15.691  12.919  12.274  0.0256  0.2721 -0.0069
30533W        W46150   1.875   2.709  15.236 -0.1270 -0.0679  0.0902
30534W        W46151  13.657  13.766  16.516 -0.2087  0.3938  0.1613
30535W        W46152   6.667  11.426  13.713 -0.0108 -0.0145 -0.2406
30536W        W46153  17.029  13.042   2.758  0.0039 -0.0917  0.3436
30537W        W46154  17.242  11.698   0.307  0.0066  0.0075  0.1704
30538W        W46155   1.934  12.333   4.137  0.1011  0.2598 -0.3500
30539W        W46156   5.019   8.903  16.268  0.0459 -0.1679  0.1885
30540W        W46157  11.707  12.593   0.190 -0.1717  0.0839  0.0597
30541W        W46158   0.384   8.594  13.479  0.2192  0.1379 -0.2424
30542W        W46159  12.005   6.671  16.958 -0.0208 -0.0354 -0.1032
30543W        W46160  10.069   2.244  16.026  0.0573 -0.2862 -0.0029
30544W        W46161  10.822  11.984  15.565  0.4088 -0.3067 -0.0642
30545W        W46162   0.354   3.425  15.059 -0.1588  0.1526 -0.3648
30546W        W46163  13.658   7.885   0.393  0.0724 -0.2512  0.0326
30547W        W46164   9.263   0.711   2.264  0.1970 -0.0309  0.0544
30548W        W46165  13.081   5.189  13.170 -0.1512 -0.0338  0.1019
30549W        W46166  12.987  16.115  11.486 -0.1665  0.2205  0.2542
30550W        W46167  16.490   8.761   2.352  0.2435 -0.1231 -0.0303
30551W        W46168  13.986  11.493   5.477  0.2873 -0.2329 -0.2261
30552W        W46169  13.259  13.556  16.925  0.1083  0.0996  0.1412
30553W        W46170   8.772   7.604  12.776  0.1954 -0.1163 -0.2311
30554W        W46171   9.072   3.849   4.485  0.2187  0.4032 -0.0549
30555W        W46172   6.667   4.212  15.075  0.1259 -0.0062  0.1715
30556W        W46173  16.829   6.546  16.747 -0.0871  0.3172  0.0274
30557W        W46174  12.705   6.735   3.560 -0.0586  0.0470 -0.1011
30558W        W46175  11.696  10.005  13.643  0.0606  0.0755  0.3160
30559W        W46176   5.183  12.640  14.834  0.2791  0.0441 -0.2078
30560W        W46177  12.138   7.935   3.265 -0.0981  0.1445  0.1320
30561W        W46178   7.705   3.779   5.844 -0.1200 -0.1374 -0.1187
30562W        W46179   9.315  11.457  16.010 -0.0064  0.0644 -0.1126
30563W        W46180  16.394   5.023   0.764  0.2278 -0.0383 -0.1459
30564W        W46181  14.713  11.904  13.744  0.0936 -0.0710  0.0346
30565W        W46182  16.566   4.786   5.354 -0.2137 -0.2329 -0.3218
30566W        W46183   7.346  16.278   1.463  0.0415  0.2646  0.2168
30567W        W46184  13.190  11.392  16.187 -0.1528 -0.0046 -0.1249
30568W        W46185  15.121   4.061  14.066 -0.4487 -0.0048  0.0946
30569W        W46186   7.656   2.901   4.845 -0.0214 -0.1843  0.0060
30570W        W46187   0.189  17.015   1.105  0.1578 -0.0713 -0.0372
30571W        W46188   2.300  17.122  13.429  0.3027  0.0679  0.1309
30572W        W46189   8.358   5.547   1.165 -0.0428  0.0042  0.1864
30573W        W46190   7.316   0.929   4.908  0.0308  0.3535 -0.3441
30574W        W46191  12.353   7.178   3.823  0.0883  0.0771  0.1230
30575W        W46192   8.433  13.665   4.042 -0.1164  0.2129 -0.0150
30576W        W46193   9.466  10.005   1.726 -0.1884  0.0617  0.1793
30577W        W46194  11.229   1.377  16.054  0.0731  0.0483 -0.1525
30578W        W46195   7.777  11.719  11.389 -0.1685 -0.0585 -0.0682
30579W        W46196   1.648  15.756  14.216 -0.1899 -0.0133 -0.2471
30580W        W46197   7.799   1.077  14.657 -0.0427 -0.0664  0.0489
30581W        W46198   8.772   9.147   4.596 -0.0980 -0.1244  0.0167
30582W        W46199  16.020   1.725  12.606 -0.0670 -0.0663 -0.1580
30583W        W46200   4.439  11.427  15.064 -0.1064 -0.1217 -0.0435
30584W        W46201   0.130  13.655   1.798 -0.0612  0.0258 -0.0338
30585W        W46202   2.468   1.513   1.887 -0.2675  0.1579  0.1848
30586W        W46203   8.408   5.479  15.248  0.0748 -0.0299  0.0013
30587W        W46204  11.560   5.210   3.078  0.0453  0.0289 -0.2285
30588W        W46205  14.038   4.071   3.902 -0.1610 -0.0614 -0.0427
30589W        W46206   0.567   1.258   0.990  0.0162 -0.1948 -0.1097
30590W        W46207   4.971  17.375  14.335 -0.1591  0.2167  0.3730
30591W        W46208   1.204   0.863   4.211  0.0582  0.0448  0.0723
30592W        W46209   6.139  11.664   1.376  0.0118  0.0972 -0.1142
30593W        W46210   5.578   5.896  12.606 -0.3897 -0.2289  0.3258
30594W        W46211   2.106   9.257  13.108 -0.0248 -0.0342 -0.1512
30595W        W46212   1.133   4.498   4.750  0.0002  0.0952 -0.0962
30596W        W46213  12.408  12.763  15.644 -0.1002 -0.3098  0.1532
30597W        W46214   0.435  17.388  15.031  0.0126  0.1514 -0.1732
30598W        W46215  17.016   9.222   5.765  0.2328  0.0433 -0.1625
30599W        W46216  14.836   7.856  16.095 -0.1579 -0.1465 -0.3152
30600W        W46217   6.503  17.215   4.871 -0.4368  0.1293  0.1847
30601W        W46218  12.596  10.894   0.012  0.0268 -0.1461 -0.2232
30602W        W46219   0.415  11.569  14.748  0.2903  0.2537 -0.1498
30603W        W46220   0.236   0.285  12.010 -0.0611  0.1758 -0.1108
30604W        W46221  15.939  13.592   4.334  0.5438  0.2692  0.0355
30605W        W46222  11.787   4.610   4.587  0.1114  0.0307 -0.1520
30606W        W46223   3.966   5.428   1.611  0.2893 -0.1824 -0.0153
30607W        W46224   5.857   9.622  11.778 -0.1440 -0.0399  0.2190
30608W        W46225   3.102   3.532  13.496 -0.3583 -0.1580 -0.1536
30609W        W46226   9.621   8.889   2.434 -0.2059 -0.0562 -0.3665
30610W        W46227  16.739   0.886   1.803 -0.1526 -0.2209 -0.0220
30611W        W46228  12.091   8.759   0.551 -0.4913  0.1277 -0.0371
30612W        W46229  16.377  13.797  14.095 -0.2570  0.1907 -0.0079
30613W        W46230  10.750  13.257   2.252 -0.0293  0.0706  0.4300
30614W        W46231  10.552  10.509   1.690  0.1674 -0.1862  0.0016
30615W        W46232  13.044   9.601  12.247  0.0592 -0.0286  0.0018
30616W        W46233  16.539   3.477  12.003 -0.0334  0.0199  0.1538
30617W        W46234   0.514  12.185   1.817  0.4331  0.1058 -0.0236
30618W        W46235  14.649  12.897   2.234 -0.1177 -0.4430  0.0585
30619W        W46236  15.319  17.207  13.397 -0.0360  0.0702  0.1220
30620W        W46237   1.000  11.996  12.207 -0.3252 -0.0433 -0.0223
30621W        W46238  15.437  17.327  16.171  0.3064 -0.0450  0.1663
30622W        W46239  13.295   2.902   2.440  0.0281 -0.0466  0.0914
30623W        W46240   4.516   5.890   6.681 -0.0602 -0.0205  0.0067
30624W        W46241   3.848  17.267   3.149 -0.1763  0.1205  0.2421
30625W        W46242  13.412  15.865  11.721  0.0548 -0.1656  0.2208
30626W        W46243   3.511   0.876  17.180 -0.1278  0.0806 -0.0487
30627W        W46244   8.163  15.910  16.993 -0.2210  0.0259 -0.3039
30628W        W46245  16.662  17.244  15.931  0.0212  0.2112 -0.1466
30629W        W46246   2.022   3.817   3.730 -0.2944 -0.1323  0.2470
30630W        W46247   2.886  11.000   3.879  0.0865  0.0175  0.0626
30631W        W46248  12.233  17.437   0.156  0.2643  0.0656  0.0448
30632W        W46249  13.800  16.866  12.856  0.1011 -0.2223 -0.2968
30633W        W46250   2.326   1.845  12.669 -0.0498 -0.0639 -0.0949
30634W        W46251   6.976  17.070   0.021  0.0095  0.0061  0.1660
30635W        W46252   1.287  17.231  13.797 -0.3064 -0.0618 -0.0148
30636W        W46253  11.082  14.903   0.087 -0.0358  0.0904 -0.0454
30637W        W46254   8.775   3.316   2.127 -0.1384  0.0483  0.1488
30638W        W46255  13.641  10.936   2.608  0.0153  0.1593 -0.3473
30639W        W46256  16.838  12.498   3.286  0.0016 -0.0247  0.2077
30640W        W46257  13.826   8.687   6.932  0.0427  0.2238 -0.0891
30641W        W46258   9.434  12.215  14.139 -0.1695 -0.0527  0.1666
30642W        W46259   8.506   0.241  12.545  0.2053 -0.2323  0.0084
30643W        W46260  10.288   3.647   4.590  0.0496  0.3707  0.0317
30644W        W46261  12.331   8.471  12.947 -0.3034  0.2066  0.0386
30645W        W46262   5.514   1.297   0.126 -0.0687 -0.1502  0.0806
30646W        W46263   9.000  10.750  12.004  0.0871 -0.3845  0.1161
30647W        W46264  10.646  14.199  16.390  0.3864 -0.2909 -0.0352
30648W        W46265   6.524   3.496  16.661  0.1603  0.0675  0.0361
30649W        W46266   2.421  12.073  15.893  0.1163 -0.2531  0.0806
30650W        W46267  14.122   8.160  13.243  0.0043 -0.2502  0.0475
30651W        W46268  12.207  14.824   0.415  0.1575  0.2757 -0.1260
30652W        W46269  17.615  17.474   0.161  0.3311 -0.0748 -0.2307
30653W        W46270  15.086   2.471  14.674 -0.1616  0.1613 -0.0967
30654W        W46271  16.898   2.661  15.639 -0.2546 -0.0714  0.0190
30655W        W46272  10.064  16.462   1.477  0.0534 -0.1589 -0.1122
30656W        W46273  11.530   4.552   3.415  0.3686  0.2068 -0.2365
30657W        W46274  16.894   6.844   1.326 -0.1416  0.1090  0.3659
30658W        W46275   1.785   1.375  16.555  0.2584  0.1866 -0.2134
30659W        W46276   5.052  10.668   5.606 -0.1083  0.4223 -0.0558
30660W        W46277  15.897   5.870  13.401  0.4192  0.1151 -0.0317
30661W        W46278  17.012   5.254   2.098  0.1379  0.0995  0.1161
30662W        W46279   0.350  13.309   0.354  0.0916  0.0438  0.2482
30663W        W46280  15.961   5.835   0.906  0.1856 -0.0927  0.2983
30664W        W46281  15.214  13.455   3.190 -0.0571  0.0593 -0.1525
30665W        W46282   5.075   8.985   5.190 -0.2647  0.0022  0.0419
30666W        W46283   3.327   4.851   0.751  0.0009  0.1791  0.0931
30667W        W46284   1.405  13.351  14.558 -0.0838  0.0076 -0.0344
30668W        W46285   2.613   0.487   3.504  0.0481  0.1605  0.2680
30669W        W46286  15.091  16.788   1.585 -0.0226 -0.1636  0.0241
30670W        W46287   8.119   1.590   2.723 -0.1347  0.2451  0.3139
30671W        W46288   6.309   9.433  11.864  0.0896 -0.1908  0.0344
30672W        W46289  15.758   7.440  11.871 -0.1019 -0.2359 -0.0663
30673W        W46290  16.157  16.202   1.806 -0.0414 -0.0203 -0.1499
30674W        W46291   8.809   4.265  12.813 -0.2198  0.0010 -0.1060
30675W        W46292   7.926  14.050  17.028  0.1266  0.2734 -0.2212
30676W        W46293   7.581  14.442   0.509 -0.3616  0.0997 -0.1718
30677W        W46294  14.983   0.262  13.742  0.1875 -0.2841 -0.0569
30678W        W46295   6.197   3.891  12.750 -0.1155 -0.1147  0.1296
30679W        W46296  14.406   9.386  13.340  0.0663  0.2042 -0.1981
30680W        W46297  15.232  16.728  10.717 -0.0080  0.1747 -0.0098
30681W        W46298  10.425   7.152   5.002  0.0764  0.0404  0.0422
30682W        W46299  13.652   6.890   5.445 -0.0470 -0.1413 -0.1156
30683W        W46300   6.958   4.000   3.243 -0.0486  0.0432  0.0771
30684W        W46301   0.775   0.004  14.723 -0.0209  0.3189 -0.0088
30685W        W46302  13.962   5.605   4.967  0.0713 -0.1495 -0.0175
30686W        W46303  16.384   2.122  12.609  0.0474 -0.1279  0.0543
30687W        W46304  11.645  15.897  16.308 -0.2743 -0.0737 -0.0089
30688W        W46305  16.887  10.988   3.511 -0.1222 -0.2679 -0.2287
30689W        W46306   1.723  14.038   5.218 -0.1578  0.0261  0.2259
30690W        W46307  13.542   7.323   0.516 -0.1430 -0.0424 -0.1091
30691W        W46308  13.998   2.458   4.102 -0.2695 -0.1769 -0.1043
30692W        W46309  11.478  14.928   3.959  0.1419 -0.2833  0.5078
30693W        W46310   7.223   1.175   0.426  0.0427 -0.2335  0.0312
30694W        W46311  10.017  16.920  14.679 -0.1182  0.0072  0.3278
30695W        W46312   8.220  15.207  11.829  0.3369  0.3433  0.2688
30696W        W46313   2.941  13.764  11.935 -0.0127 -0.3382 -0.1098
30697W        W46314  12.797   3.612   5.658  0.0364  0.4474 -0.2935
30698W        W46315   8.875   2.113   4.203  0.0890 -0.2755 -0.1978
30699W        W46316  13.408  16.543   5.829  0.2103  0.0295  0.0969
30700W        W46317   9.214   4.631   1.728  0.2706  0.1491 -0.2228
30701W        W46318   2.103   7.711   4.509  0.4306 -0.2457 -0.0818
30702W        W46319   6.858   2.431   6.368  0.1059 -0.1745 -0.1563
30703W        W46320   1.569   9.972   0.094 -0.0273 -0.0877 -0.1891
30704W        W46321   8.360   1.622  17.028  0.1059 -0.4635  0.1997
30705W        W46322  17.384   6.911   5.414 -0.0748  0.0838 -0.2354
30706W        W46323  14.339   2.918   0.000  0.3277  0.1024  0.1569
30707W        W46324  11.034  10.083   1.110 -0.0744 -0.1520  0.1050
30708W        W46325  10.877   6.519   1.360  0.0213 -0.0930 -0.1701
30709W        W46326  17.505   4.610  12.054  0.2183  0.0508  0.0471
30710W        W46327  14.604  15.892   1.563  0.1220  0.2092 -0.1553
30711W        W46328  15.034  16.545   3.533 -0.0726  0.1762  0.1853
30712W        W46329   1.099   5.042  13.074  0.2306 -0.1894 -0.2710
30713W        W46330   5.173  14.738   4.613  0.0547 -0.0394  0.1547
30714W        W46331  15.585  15.793  15.597 -0.0595 -0.0398  0.2050
30715W        W46332  13.986  15.980  14.451  0.1042  0.0956  0.3131
30716W        W46333   9.268   6.489  14.487 -0.1632  0.0076 -0.0397
30717W        W46334  12.899   2.541   4.383  0.0275  0.1085  0.3259
30718W        W46335  15.699   9.010   2.641  0.0607  0.2913  0.1341
30719W        W46336  12.291   5.927   0.816 -0.2993 -0.0373  0.1687
30720W        W46337  13.493  10.612   4.028 -0.1366 -0.0597 -0.0970
30721W        W46338  11.998   7.428   3.043 -0.0241  0.0032  0.0991
30722W        W46339   3.144  11.240   3.084  0.3123 -0.0824 -0.0290
30723W        W46340   5.470  13.524   3.677 -0.2160  0.0179 -0.0129
30724W        W46341  13.272  14.568   5.334  0.0897  0.1566  0.1211
30725W        W46342   4.521  11.062  13.772 -0.0855 -0.1617  0.0975
30726W        W46343   1.716  14.333   4.010 -0.1299 -0.1057  0.3137
30727W        W46344  10.419  13.729  12.903  0.1886 -0.2065  0.0836
30728W        W46345   3.683   1.948  13.963 -0.2320  0.0213 -0.0074
30729W        W46346   2.497  15.203   2.531  0.0375  0.2111  0.0873
30730W        W46347   1.617   8.534  15.851  0.0476 -0.0235 -0.3324
30731W        W46348  10.907   4.926   4.296  0.5097 -0.1168  0.0207
30732W        W46349  11.264   5.082   0.940  0.1928  0.2679  0.2333
30733W        W46350   7.978   7.468  13.845  0.0957 -0.0609 -0.1671
30734W        W46351  14.149   2.832   3.633  0.0710 -0.0426 -0.1867
30735W        W46352  14.565   5.150   3.061 -0.0247 -0.0676  0.1771
30736W        W46353  14.485   8.323  13.958 -0.3043  0.1693 -0.0894
30737W        W46354  15.786  17.339  16.905  0.1589 -0.1973  0.1541
30738W        W46355   8.725   1.949  13.732 -0.0314  0.4496 -0.0739
30739W        W46356  15.919  16.558  16.733  0.3043 -0.0077 -0.0690
30740W        W46357   9.920  14.028  13.689  0.0639 -0.3581  0.1385
30741W        W46358   8.116   0.367  15.006  0.0181  0.1850 -0.2729
30742W        W46359   2.928  11.537  12.343 -0.2870 -0.3188 -0.4007
30743W        W46360   1.972   0.743   0.746  0.2095  0.1048  0.0406
30744W        W46361   6.318   1.062   0.879  0.0043  0.0022  0.0447
30745W        W46362   7.020  10.622  14.671  0.1314  0.1661 -0.0369
30746W        W46363   1.831  15.939  16.813 -0.0416 -0.0913  0.0252
30747W        W46364   6.174   0.654   0.526 -0.1715  0.0011  0.2112
30748W        W46365  10.610  13.204   3.148  0.0878 -0.0380  0.1232
30749W        W46366  11.526  13.389   0.172  0.0747  0.0822  0.1308
30750W        W46367  16.859  12.065   1.484 -0.2113  0.1993 -0.0341
30751W        W46368   3.384  17.099  11.625 -0.0382  0.2677  0.2027
30752W        W46369  17.118   4.971   2.580 -0.2184  0.1245  0.0200
30753W        W46370   4.235   8.674  14.148  0.1151  0.0860 -0.2778
30754W        W46371   7.085   4.740  15.237 -0.1187  0.1749  0.2063
30755W        W46372   9.602   9.272   6.046 -0.2173 -0.0869 -0.2503
30756W        W46373  13.589  17.391   4.784 -0.2076  0.1742  0.2447
30757W        W46374  10.929  11.318   1.107 -0.2069 -0.0579  0.3603
30758W        W46375   5.433   0.105  15.104  0.3246 -0.0797 -0.1533
30759W        W46376  12.686  14.783  13.971 -0.1526  0.0805 -0.0939
30760W        W46377   5.482   4.102   6.542 -0.1440 -0.2470 -0.0594
30761W        W46378  12.394  12.354  14.769 -0.2286 -0.1569 -0.0703
30762W        W46379   2.328   3.661  15.266 -0.2992 -0.0382 -0.0691
30763W        W46380   3.689   0.899  16.272 -0.1166  0.1139  0.0057
30764W        W46381  16.356   0.393   4.290  0.1026 -0.1217 -0.0958
30765W        W46382  14.746  10.683  14.494  0.2518  0.0863  0.0137
30766W        W46383  15.304   2.286  15.190 -0.0028  0.2392  0.0493
30767W        W46384   0.068   5.319   3.482 -0.0624 -0.0528 -0.1725
30768W        W46385   1.478  12.124   1.143  0.1559  0.2307 -0.5316
30769W        W46386  15.554   5.929   2.257 -0.2056  0.1508  0.1095
30770W        W46387   4.346  16.997  12.787 -0.1945  0.1245  0.0779
30771W        W46388   7.328  11.525   2.195 -0.0877  0.0975 -0.1754
30772W        W46389  11.594   2.860  16.044 -0.1845 -0.2905 -0.1576
30773W        W46390   5.953   5.339   0.882 -0.0536 -0.0483 -0.1367
30774W        W46391   4.840  16.190   1.216  0.2003  0.0270 -0.1693
30775W        W46392   9.906   2.595  14.400  0.2396 -0.1242  0.1275
30776W        W46393  11.500   4.913   0.529  0.3594 -0.1181  0.3465
30777W        W46394   9.417  10.326   5.057  0.0314 -0.1464  0.2058
30778W        W46395   0.915  11.108   3.979 -0.1366 -0.3962 -0.0085
30779W        W46396  10.030   2.574   3.478  0.0648  0.0524 -0.0350
30780W        W46397   5.599  16.650  14.131  0.2868 -0.0178  0.4431
30781W        W46398   4.201  14.499  12.275 -0.2154  0.0715  0.1779
30782W        W46399  12.932   6.678  16.995  0.1640 -0.3846 -0.0768
30783W        W46400   7.752  12.182  12.029  0.2636  0.2126 -0.1581
30784W        W46401   3.166   6.088   0.058 -0.6047 -0.2234  0.0500
30785W        W46402  10.374  10.619  13.313 -0.1938  0.1957 -0.1949
30786W        W46403  15.303  13.758   1.393 -0.1968 -0.0450  0.0167
30787W        W46404  12.653   3.489  15.053  0.0075 -0.2697  0.2724
30788W        W46405  10.283   4.794   4.903  0.1311 -0.0945  0.3460
30789W        W46406  15.652  16.970  13.117  0.1254 -0.2817  0.3031
30790W        W46407  16.014  10.481   5.601 -0.1678  0.3006 -0.0858
30791W        W46408  12.858   7.314  15.517  0.0706 -0.2590  0.2550
30792W        W46409   7.534   0.738   1.621  0.0058 -0.1320  0.1836
30793W        W46410  11.248  10.914   4.771  0.1080 -0.0542 -0.0946
30794W        W46411   3.218  16.953   5.458 -0.2578  0.2925 -0.2972
30795W        W46412  13.183   1.751  14.706 -0.0059  0.2153 -0.1784
30796W        W46413  11.218  15.506  12.480 -0.2109 -0.0418 -0.2688
30797W        W46414  12.586   8.694   2.804 -0.0091 -0.2510  0.0863
30798W        W46415  11.103   6.907   5.726 -0.2304  0.0862 -0.0502
30799W        W46416   5.028  14.261  14.850  0.1222 -0.1006  0.0634
30800W        W46417  10.365  17.384   2.383  0.2046 -0.1228  0.1897
30801W        W46418  14.300  15.584   1.222 -0.0461  0.3638  0.2817
30802W        W46419   1.118   2.555   5.626  0.2561 -0.3721  0.2361
30803W        W46420  14.119  14.763  15.661 -0.1392 -0.2359  0.1723
30804W        W46421  13.382   0.239   2.034  0.0479 -0.1856 -0.0833
30805W        W46422   3.939   8.947  12.678 -0.0175  0.0004  0.2215
30806W        W46423   7.483  17.357   0.370 -0.0993  0.0253 -0.1476
30807W        W46424  13.414  17.225   0.358 -0.1228 -0.1208 -0.1191
30808W        W46425   3.613   2.248   2.298  0.0374  0.2403  0.1367
30809W        W46426   0.187  10.312  15.638  0.0319  0.0285 -0.1304
30810W        W46427   6.029  13.078  11.716 -0.4352 -0.0128  0.0152
30811W        W46428   1.715  16.567  11.772 -0.2372  0.1515  0.3168
30812W        W46429   9.632   8.267   6.291 -0.0585 -0.0284 -0.1803
30813W        W46430   7.271   8.926   3.630  0.2024  0.2258 -0.0417
30814W        W46431   1.098  17.538  11.768 -0.2951  0.2325  0.2186
30815W        W46432   2.810  14.270  16.651  0.0839  0.0001  0.3133
30816W        W46433   9.433  16.875   0.042 -0.1200  0.0703  0.2933
30817W        W46434  11.262   3.488   0.178 -0.2921  0.0134  0.2040
30818W        W46435   4.643  16.377   5.133  0.3435  0.1155 -0.1449
30819W        W46436   0.158  10.126   1.113  0.1390  0.0159  0.1194
30820W        W46437   0.010  13.199   2.065  0.0806  0.0079 -0.3915
30821W        W46438   1.358   4.627   6.222 -0.0875 -0.0896  0.0813
30822W        W46439  12.521   9.704  15.012 -0.1142 -0.0027 -0.1069
30823W        W46440  16.696   1.988   6.019  0.1743  0.0070  0.0702
30824W        W46441  14.380  11.296   0.086  0.1199 -0.1008 -0.3672
30825W        W46442   6.764   8.049  13.211  0.1619  0.1054  0.2224
30826W        W46443  11.966   8.282  12.420  0.4795  0.2892 -0.0726
30827W        W46444   7.752  15.944  15.972  0.0963  0.0366 -0.2383
30828W        W46445  11.103   0.245   4.870  0.1092 -0.0274  0.0945
30829W        W46446  15.871   5.394  16.008  0.0652  0.1464 -0.0742
30830W        W46447   1.217  10.590  13.822 -0.2175 -0.0949  0.0463
30831W        W46448   6.825  10.894  12.425 -0.1114 -0.2350  0.1273
30832W        W46449  16.290  13.867   5.644 -0.2335 -0.3274 -0.1283
30833W        W46450   5.828  10.177   2.083  0.1678 -0.0622  0.0729
30834W        W46451  17.427  14.329   4.882  0.0672 -0.0098 -0.0298
30835W        W46452  15.246  13.925   2.366 -0.1066 -0.2553  0.4447
30836W        W46453  14.362  15.617  15.284  0.1879 -0.1051 -0.2096
30837W        W46454   0.548   5.244   4.619  0.1155 -0.1727  0.1768
30838W        W46455   2.237   6.347   1.648 -0.3271 -0.0286  0.0238
30839W        W46456   9.559   7.061   2.798 -0.0985 -0.1973 -0.1980
30840W        W46457   8.127   3.916   5.061 -0.0494  0.0926 -0.1338
30841W        W46458  15.983   0.717  13.383  0.0404  0.0692  0.0507
30842W        W46459   2.586   8.538   4.345  0.2659 -0.1871  0.1448
30843W        W46460  13.485   6.211   1.067 -0.4133 -0.0184 -0.1203
30844W        W46461  12.759   9.065  17.115  0.1296 -0.1371  0.0239
30845W        W46462   5.123   4.169  13.919  0.4339  0.3649 -0.1818
30846W        W46463  13.295  12.205   4.283  0.0944 -0.1081 -0.2124
30847W        W46464   5.787   2.923   1.363  0.0570  0.3670 -0.2543
30848W        W46465  12.636   1.929   3.043 -0.3280 -0.0830 -0.1762
30849W        W46466   7.042  17.102   0.516  0.1739  0.1028 -0.0665
30850W        W46467   8.076   1.621  12.060 -0.1434 -0.1682 -0.3056
30851W        W46468   2.856   6.326  13.998  0.3772 -0.0553  0.0297
30852W        W46469  14.283   6.611  12.451  0.1272  0.0319  0.1141
30853W        W46470   1.682   4.084  12.504 -0.0280 -0.0892  0.1010
30854W        W46471   4.861   4.818   4.843  0.0354  0.0383 -0.0358
30855W        W46472   7.304  14.561  11.390 -0.3305  0.1126 -0.0501
30856W        W46473   0.496  10.654  15.875 -0.1536 -0.2420 -0.1749
30857W        W46474  11.917   5.510   1.330 -0.2222  0.3711 -0.2057
30858W        W46475   0.411   8.320   3.307 -0.0974 -0.0819  0.0397
30859W        W46476   7.035  11.319  16.371  0.1119  0.0703 -0.0899
30860W        W46477   3.167   5.401   5.291  0.2994  0.0408 -0.0251
30861W        W46478   4.078   3.979  15.581  0.3413  0.1442  0.0652
30862W        W46479   6.643  14.843  13.766  0.0722  0.3907 -0.0676
30863W        W46480   7.513  10.371  14.571 -0.0570  0.2149 -0.1561
30864W        W46481  11.145  17.020  15.336  0.2302  0.0969  0.0646
30865W        W46482   1.684  14.995   0.724 -0.1479 -0.1614 -0.0342
30866W        W46483   5.957   8.096   4.745 -0.1062 -0.1783  0.2628
30867W        W46484   5.986   5.054  12.400  0.1289  0.0140 -0.0372
30868W        W46485  11.615  16.294   5.992 -0.0837 -0.3881 -0.0832
30869W        W46486   5.643   8.492   3.888 -0.3477 -0.0668 -0.1736
30870W        W46487  15.234   5.721  16.526 -0.0051 -0.1194  0.1562
30871W        W46488   0.598  12.723   1.159  0.0591 -0.1017 -0.0230
30872W        W46489  17.342  14.233   0.156 -0.0621 -0.2782 -0.3089
30873W        W46490  14.817   3.399  12.778  0.0637  0.2011 -0.3942
30874W        W46491  12.217   0.903   2.052 -0.2857  0.1976  0.0959
30875W        W46492   3.496   4.405  12.930  0.1443  0.0962 -0.1797
30876W        W46493   9.878   7.482  16.570 -0.0304  0.0036  0.2269
30877W        W46494   6.396  11.945   0.426  0.2273 -0.1850 -0.4503
30878W        W46495   7.286   7.826   2.882 -0.2489 -0.1488 -0.1327
30879W        W46496   1.406   2.342  17.013 -0.1884  0.2459 -0.0823
30880W        W46497   0.547  10.150   2.455  0.0367 -0.3368 -0.2198
30881W        W46498   9.385  15.039  11.425 -0.0901 -0.2544 -0.1988
30882W        W46499   3.194   9.248   5.810 -0.3207 -0.1440 -0.0688
30883W        W46500   2.010  14.543   1.398 -0.0254  0.0213 -0.1991
30884W        W46501   9.146   3.992   5.529  0.0077  0.1316 -0.0499
30885W        W46502  16.844   1.492   5.956  0.0655  0.1367 -0.1095
30886W        W46503  12.752   4.165   6.209  0.2002 -0.3691 -0.2306
30887W        W46504  13.818  11.846  13.126  0.2590 -0.1707 -0.0555
30888W        W46505  16.453   3.116   1.458  0.0724  0.0850 -0.1953
30889W        W46506   4.791  13.577   2.040  0.1447  0.1749  0.0774
30890W        W46507  13.414   9.581  13.569 -0.3422 -0.1478  0.2090
30891W        W46508   0.773   1.003   4.025  0.0521  0.2135 -0.1683
30892W        W46509   5.092  13.136  17.136  0.2549  0.0897 -0.0636
30893W        W46510   9.472   3.592  11.356 -0.1513  0.1815 -0.0098
30894W        W46511  16.428  10.779  13.510 -0.0648 -0.1593 -0.1019
30895W        W46512  10.793   9.738   0.736 -0.2952 -0.2386 -0.0824
30896W        W46513  10.669   0.897   2.818 -0.1148  0.0402 -0.0947
30897W        W46514   9.119  15.150  11.826  0.0427  0.1983 -0.0070
30898W        W46515  11.672  17.284   0.112 -0.2615  0.0866 -0.0221
30899W        W46516  13.753  13.760   2.941 -0.0196 -0.1429 -0.0116
30900W        W46517   8.572   0.812  12.605 -0.2340 -0.0846  0.1862
30901W        W46518   9.090   2.544  15.102 -0.0542  0.3408 -0.5431
30902W        W46519   1.117  16.697   4.488 -0.1758  0.2978  0.2187
30903W        W46520   5.034   0.193  14.007  0.1062 -0.3293 -0.0332
30904W        W46521   7.369   6.949  11.642  0.1780 -0.0950  0.0560
30905W        W46522  17.245  11.756   2.876 -0.1450 -0.1471  0.0248
30906W        W46523   7.844   1.715  14.254 -0.1764  0.1567  0.1124
30907W        W46524   1.250   9.625   3.338 -0.2033  0.0216 -0.0776
30908W        W46525   6.254   1.401  13.879  0.2516 -0.6559 -0.1699
30909W        W46526  13.730  14.086  11.101 -0.1787  0.0262  0.1240
30910W        W46527   4.519   3.703  16.347  0.2026 -0.3281  0.0286
30911W        W46528   4.334  10.119  16.030  0.0314 -0.2115 -0.3559
30912W        W46529   8.501   5.025  16.144  0.0705  0.1225  0.1176
30913W        W46530  10.880   4.720  14.521 -0.0231  0.0330 -0.2869
30914W        W46531  15.260   8.529  12.810 -0.0925 -0.0857  0.1182
30915W        W46532  11.730  11.523   0.014  0.0529  0.0494  0.1972
30916W        W46533   0.420   7.191  16.840 -0.0138  0.1214 -0.0359
30917W        W46534   5.022   5.539   3.982 -0.0362 -0.0249 -0.2575
30918W        W46535  15.045   7.137  14.705 -0.0773 -0.0937 -0.0248
30919W        W46536   3.868   8.376  15.861 -0.1866 -0.0976 -0.1114
30920W        W46537   2.126  14.092  14.775 -0.0604  0.1938 -0.0765
30921W        W46538  16.988   2.075   4.649 -0.0944 -0.1979  0.0114
30922W        W46539  12.169  10.348   5.727  0.0809 -0.3300 -0.1488
30923W        W46540   0.784  14.766   1.699  0.1947  0.0898  0.0928
30924W        W46541   7.235   3.752   4.502 -0.0546  0.5179  0.1935
30925W        W46542   6.161   6.247   4.334 -0.0081  0.1677  0.1681
30926W        W46543  14.417   0.324  15.042  0.1720  0.0271 -0.1444
30927W        W46544   2.184   9.262   1.571  0.1267  0.1365 -0.2035
30928W        W46545   4.400   8.795   1.547  0.2458 -0.0282 -0.1545
30929W        W46546   2.826  16.183   3.108  0.2584 -0.0755  0.1015
30930W        W46547  17.328   5.557  13.333  0.2363  0.0011 -0.0477
30931W        W46548   3.794   2.259   1.514 -0.2575 -0.4835  0.3535
30932W        W46549  17.094   2.471   1.606  0.1708 -0.0798 -0.1149
30933W        W46550  13.199   2.445   5.288 -0.1230  0.1347 -0.0675
30934W        W46551  15.173  11.361   6.271  0.0985  0.3433  0.2918
30935W        W46552   6.856  13.666  13.326  0.3503  0.0471 -0.4908
30936W        W46553   6.684   2.494  17.008  0.3166 -0.0774  0.0325
30937W        W46554   2.317   8.176   4.161 -0.1144  0.0379  0.1354
30938W        W46555   4.299  15.415  14.835 -0.2618 -0.2016 -0.1308
30939W        W46556   4.225  15.568  12.967  0.1118 -0.0508 -0.0383
30940W        W46557   5.350   4.182   3.430 -0.0553 -0.1353 -0.1482
30941W        W46558   2.825  16.966  12.694  0.0179  0.0643  0.2101
30942W        W46559   6.510   0.239  14.241 -0.1364 -0.0950  0.0715
30943W        W46560   0.750  17.124   4.456 -0.1436  0.0053  0.2018
30944W        W46561   2.529  16.792  14.383  0.0636  0.1846  0.1090
30945W        W46562   0.581  15.681  12.791 -0.3263 -0.1440 -0.1853
30946W        W46563  11.086   2.816   5.334  0.1324  0.1034 -0.1101
30947W        W46564  11.649  12.715   2.334 -0.0852 -0.0839 -0.0143
30948W        W46565   0.283  10.491   3.926  0.0290  0.2346 -0.0544
30949W        W46566  10.728   0.606   2.382 -0.5261 -0.0704 -0.1090
30950W        W46567   3.308   3.279   5.453 -0.0072 -0.1421 -0.1164
30951W        W46568   1.687   4.522   5.356  0.2329  0.3499  0.2424
30952W        W46569  10.879   8.902   5.877  0.0459  0.0739 -0.1699
30953W        W46570   4.800   3.754   3.983 -0.2612 -0.0652  0.0261
30954W        W46571  12.930   5.806   3.741 -0.0629 -0.1860  0.0701
30955W        W46572  12.137   9.622  17.021 -0.0504  0.2476 -0.1485
30956W        W46573   0.945   4.066  13.464  0.3374  0.0459  0.2894
30957W        W46574   0.046   5.415  12.892  0.1898 -0.0575 -0.3088
30958W        W46575   4.076   7.922   5.204  0.1375  0.1379  0.1820
30959W        W46576   4.214  13.548  16.983 -0.2093  0.0158 -0.0016
30960W        W46577   7.878  17.027   1.228 -0.1695  0.3546 -0.0014
30961W        W46578   0.948   7.945   5.402 -0.0435  0.2820  0.0939
30962W        W46579  16.771  16.150  14.314  0.0573 -0.1291  0.0964
30963W        W46580  13.628   3.500  17.231  0.4565 -0.1546  0.0376
30964W        W46581  16.040  11.406   0.080  0.0221 -0.2821  0.1210
30965W        W46582   3.321   2.183   3.988 -0.0118  0.2609  0.1064
30966W        W46583  13.706   8.231  12.349  0.2361 -0.2132  0.3618
30967W        W46584   3.917  11.660   5.349  0.1781  0.1873 -0.1061
30968W        W46585   2.445  16.410  13.970 -0.1732 -0.2924 -0.1923
30969W        W46586   0.946   5.266   4.173  0.0982  0.2896  0.3367
30970W        W46587   7.663  15.752   3.000  0.1626 -0.3090 -0.3319
30971W        W46588  10.187   2.042   0.765  0.0439 -0.0645  0.3273
30972W        W46589   8.731   8.367  12.463 -0.0196  0.2566 -0.1660
30973W        W46590   8.706  16.072   5.124  0.0511 -0.1259 -0.0203
30974W        W46591  10.901  16.379  13.684 -0.1809 -0.1166 -0.0991
30975W        W46592  13.616   0.044  15.644 -0.1439  0.1495 -0.0481
30976W        W46593   5.664   7.257   3.118 -0.3062  0.4434 -0.0374
30977W        W46594   9.647   2.540  10.408  0.3121  0.0502 -0.0977
30978W        W46595   8.546  14.590   4.265 -0.0806  0.1369 -0.1591
30979W        W46596  10.377  13.630   5.623 -0.4556  0.1069 -0.0424
30980W        W46597  17.032   8.323   3.262  0.0389 -0.0570 -0.5153
30981W        W46598  11.291  12.999  12.792 -0.2498  0.0573  0.0543
30982W        W46599  10.926  12.102  12.700 -0.0466 -0.0388 -0.0945
30983W        W46600   0.715   3.798  12.465  0.1825 -0.1757 -0.1498
30984W        W46601   4.523  12.652   5.025 -0.2364  0.1716  0.0165
30985W        W46602  17.129   6.006   4.806  0.2643  0.2616 -0.2195
30986W        W46603   8.452   4.351   5.113 -0.0201 -0.0502 -0.0104
30987W        W46604   5.535   0.340  14.283 -0.5169  0.0793 -0.2901
30988W        W46605  10.933  17.178   2.765  0.0114 -0.2951 -0.0679
30989W        W46606  16.218   0.360  14.496 -0.0897  0.2487  0.0564
30990W        W46607  17.535   5.341   6.684 -0.0381  0.0337  0.1634
30991W        W46608  16.317  16.154  15.445  0.0735  0.1172  0.1428
30992W        W46609   4.518   2.078   5.013  0.2788  0.1498  0.0067
30993W        W46610  12.598  17.485   2.474 -0.0300 -0.1753 -0.2089
30994W        W46611  12.028   3.306  11.526 -0.0198  0.1011 -0.0887
30995W        W46612   8.138  12.065  16.454 -0.0949  0.1393  0.0429
30996W        W46613   5.685   1.144  14.218 -0.0637 -0.0767 -0.0097
30997W        W46614  17.228   3.766   5.335 -0.1305 -0.1367  0.1547
30998W        W46615  12.855   1.231  13.477  0.0620 -0.0301 -0.1508
30999W        W46616   9.265   7.819   4.320  0.2688 -0.1182 -0.2642
31000W        W46617  12.085   6.965   0.125 -0.1437  0.3006 -0.6197
31001W        W46618  10.530   1.749   3.502 -0.0401 -0.2666  0.0044
31002W        W46619   8.200   4.829  14.152  0.1782  0.1550  0.0830
31003W        W46620   4.442  14.033   4.474 -0.0264  0.4736 -0.0611
31004W        W46621  13.549   5.452  13.092 -0.1627  0.0314 -0.0048
31005W        W46622   7.837  16.847   2.637 -0.3127 -0.0593 -0.0080
31006W        W46623   0.589  16.534  14.760 -0.2268 -0.1483  0.0320
31007W        W46624   0.769   9.673   3.444 -0.1239 -0.1269  0.0533
31008W        W46625  12.481   5.879   6.008 -0.0462  0.0564  0.0090
31009W        W46626  16.903   7.098   5.626 -0.0764  0.2152  0.0249
31010W        W46627   6.397  12.447  15.868  0.0417  0.3738 -0.1330
31011W        W46628  15.633  11.058   2.990  0.2423  0.1730 -0.2047
31012W        W46629   5.293   0.832  17.299  0.2147 -0.1515  0.0142
31013W        W46630   6.605   1.010  11.706  0.1625  0.0756 -0.0804
31014W        W46631   4.689   5.507  14.127  0.4621  0.2415  0.3941
31015W        W46632   1.266  14.301  12.553 -0.1139  0.2612  0.1316
31016W        W46633  12.886  15.898   3.030 -0.2464 -0.0485  0.1479
31017W        W46634  15.157   3.872  14.964  0.2581 -0.0495 -0.2757
31018W        W46635   4.896  10.886  13.434 -0.1429 -0.1775  0.2241
31019W        W46636   9.027  16.147  16.989  0.1088 -0.0140  0.2884
31020W        W46637   6.246   3.579  11.150 -0.1456  0.0970 -0.0011
31021W        W46638   9.191  17.134   2.001  0.0657  0.1678 -0.1597
31022W        W46639   5.995   0.189  14.294  0.1123  0.0175 -0.0502
31023W        W46640   1.505   8.539  14.561 -0.0436 -0.3113 -0.1873
31024W        W46641   5.566   0.013   6.013 -0.4145 -0.1439  0.0400
31025W        W46642   4.517  12.016  12.273 -0.0505  0.0437 -0.2246
31026W        W46643   8.582   4.985  13.306  0.1686 -0.0665 -0.2326
31027W        W46644  11.644   8.670   5.319 -0.2305  0.0178  0.0128
31028W        W46645   0.383   4.553  13.959  0.0625  0.1613  0.0600
31029W        W46646   6.103   1.923  12.703 -0.1670 -0.2199  0.1827
31030W        W46647   9.174  14.596  12.549 -0.0773 -0.2148  0.0321
31031W        W46648  12.727  12.294   3.139  0.2557  0.2701 -0.1171
31032W        W46649   2.451  15.689   2.853 -0.0152  0.2053 -0.1813
31033W        W46650  12.851  12.952   0.189  0.0225 -0.1131  0.1910
31034W        W46651   6.439   2.520   5.670 -0.0706  0.1443  0.2414
31035W        W46652   1.236   2.533  14.522  0.0146  0.1450  0.0800
31036W        W46653  11.505   9.076   3.052 -0.1244 -0.2254 -0.0707
31037W        W46654  10.861  17.145  15.754  0.0377  0.2606 -0.2573
31038W        W46655  15.676   3.822   1.181  0.0017  0.3334  0.1516
31039W        W46656   3.186   9.323   5.232 -0.1427 -0.1108 -0.0046
31040W        W46657   0.298   3.445   0.247  0.0857  0.1485 -0.1530
31041W        W46658   4.415   1.330  16.308  0.2063 -0.0086 -0.2041
31042W        W46659  12.776  15.561  17.048  0.1555  0.1782  0.0093
31043W        W46660  11.662   6.009   6.201  0.0029 -0.0667  0.0760
31044W        W46661   3.749  10.211   5.727  0.0726 -0.1786 -0.2983
31045W        W46662   0.886  12.658  13.136 -0.0181 -0.1017 -0.1158
31046W        W46663  16.443  13.116  16.511 -0.1671 -0.0973  0.0986
31047W        W46664  11.796   8.737   4.443 -0.1278  0.0688 -0.1237
31048W        W46665   6.152  13.979   2.824 -0.0388 -0.3742  0.1327
31049W        W46666  10.667   3.513   5.635 -0.2176  0.1930  0.1718
31050W        W46667  13.069   6.649   6.139  0.0973  0.3073  0.1938
31051W        W46668  14.284  14.272   0.210  0.1329  0.1637  0.1284
31052W        W46669   6.728  10.553   0.982 -0.0846  0.0982  0.0190
31053W        W46670   8.044   6.959  16.573 -0.3037 -0.1929  0.1594
31054W        W46671  10.727   9.755   3.982 -0.1485 -0.1535  0.0294
31055W        W46672   8.333   5.063  15.619 -0.0918 -0.0788  0.1013
31056W        W46673  16.314   7.520   4.865 -0.3825 -0.2404  0.1704
31057W        W46674   6.872   0.315   3.601  0.0079 -0.1517 -0.2612
31058W        W46675  17.422   7.523   3.356  0.0255  0.0403 -0.2392
31059W        W46676   4.047   3.173  12.641 -0.0917 -0.3060  0.1074
31060W        W46677  10.474   0.404  14.749 -0.0784  0.1702 -0.2023
31061W        W46678   1.592  15.137  16.279  0.2744 -0.0460 -0.1678
31062W        W46679   0.239   4.458   3.531  0.2086  0.0270  0.2774
31063W        W46680  16.584  12.100  12.924  0.1327 -0.0219  0.0479
31064W        W46681  10.147  13.777  11.852 -0.0402 -0.3949  0.2882
31065W        W46682   8.224   1.853  16.429  0.0733 -0.0057  0.0716
31066W        W46683   2.810  17.313  13.094  0.2011 -0.3098 -0.2298
31067W        W46684   6.249   1.934  16.903  0.2547  0.1052  0.0805
31068W        W46685   2.152  17.409  14.861 -0.0640  0.0492 -0.0729
31069W        W46686   9.791   2.967  15.298  0.0312  0.2597  0.0233
31070W        W46687  15.663  12.312   2.741 -0.0367 -0.1341  0.3786
31071W        W46688   9.807  13.466   3.969 -0.2586 -0.0088  0.0025
31072W        W46689  12.366  16.628   2.701  0.1822  0.0530  0.0260
31073W        W46690   5.003   5.923  16.297 -0.1667 -0.1714  0.1816
31074W        W46691   8.394   4.254  17.240 -0.3348  0.1912  0.2160
31075W        W46692   6.608   6.904  16.428  0.0753  0.3357  0.3225
31076W        W46693  11.404   7.640  13.110 -0.0783  0.0276  0.3954
31077W        W46694   5.825   2.694  13.389  0.0674 -0.0692  0.2680
31078W        W46695   5.116  10.001  17.264  0.0321  0.2064 -0.2304
31079W        W46696  10.324   0.900  11.687 -0.0032  0.3849  0.1275
31080W        W46697   0.499   6.919  13.798  0.0367  0.5386 -0.1720
31081W        W46698  10.336   4.837  14.470  0.0168  0.0678 -0.1860
31082W        W46699   5.957   3.649  15.253 -0.0532  0.2156 -0.0429
31083W        W46700  16.044   0.896  17.110  0.0047  0.1419  0.0832
31084W        W46701   6.389  16.421  13.631  0.0329 -0.2625  0.0990
31085W        W46702   3.364   7.863  15.540  0.0452  0.0516 -0.1027
31086W        W46703   4.064   2.743   5.610  0.4048  0.1044 -0.0890
31087W        W46704  14.263  12.752   4.614  0.2051  0.0213 -0.2805
31088W        W46705   3.953   4.759   6.472 -0.1964 -0.1277 -0.0266
31089W        W46706   0.663  14.829  13.004 -0.1053  0.0774  0.1749
31090W        W46707   3.411   5.630   1.055 -0.0093  0.1333 -0.0113
31091W        W46708  13.487  12.077  16.093  0.1253 -0.2513 -0.2586
31092W        W46709   3.781  17.034   4.851 -0.0219  0.2946  0.0211
31093W        W46710   1.719  10.527   5.632  0.1043 -0.1321  0.3369
31094W        W46711  13.543   7.757  15.419 -0.0775  0.1348 -0.4529
31095W        W46712  16.136  14.588   2.868  0.0951  0.1240 -0.1511
31096W        W46713   8.618   0.983   1.570  0.3008  0.0551  0.1110
31097W        W46714   7.550   7.989  16.565  0.3595  0.0084  0.0919
31098W        W46715  11.644   5.509  12.295  0.1534  0.3107 -0.0809
31099W        W46716  16.319  15.616   3.777  0.2494  0.0758  0.0353
31100W        W46717  15.505   4.275   6.238  0.0597  0.1040  0.0022
31101W        W46718   0.576  16.748   4.103  0.0002  0.3022 -0.1803
31102W        W46719   7.267  10.636  13.400  0.1738 -0.1834 -0.2109
31103W        W46720   2.618  12.904   0.702 -0.1478 -0.1492 -0.1587
31104W        W46721   9.225   6.823  13.978  0.2801  0.2131 -0.1871
31105W        W46722   0.536   2.596  12.121  0.0240  0.0079 -0.0125
31106W        W46723   0.687   5.415   0.952  0.0204  0.4434 -0.1431
31107W        W46724  16.080   2.110   3.338  0.1531  0.0004 -0.0839
31108W        W46725   0.122  14.072  14.059 -0.3960  0.2211  0.1981
31109W        W46726  13.700  16.255   1.354 -0.0580  0.2332 -0.3182
31110W        W46727   8.062  16.531  14.013 -0.2560  0.2257  0.2277
31111W        W46728   9.427  11.255   4.793 -0.2187 -0.2875 -0.4886
31112W        W46729   7.677   9.009   6.100  0.2409 -0.0293  0.0404
31113W        W46730   2.808  14.711   5.475 -0.0388  0.2643 -0.0545
31114W        W46731   0.984  16.345   5.401  0.0710 -0.0145 -0.0549
31115W        W46732   6.290   0.184   0.709 -0.0912 -0.1301 -0.3577
31116W        W46733   8.296   7.486   1.746  0.3981  0.2430  0.2997
31117W        W46734  12.488   3.408   6.659  0.1168  0.0610 -0.1086
31118W        W46735   1.048   9.752  16.543 -0.0007  0.0664  0.0554
31119W        W46736   3.293   4.489  15.802 -0.0700 -0.3061  0.0421
31120W        W46737   8.000   0.615   0.369 -0.1166 -0.1011  0.0684
31121W        W46738   1.483  10.326  15.812 -0.1372 -0.0236  0.1759
31122W        W46739  13.306  16.712  16.917  0.5463 -0.0188  0.1132
31123W        W46740   0.822  11.867  15.449 -0.1828  0.0074  0.1106
31124W        W46741   5.855   5.522  16.477  0.1189  0.0882  0.1504
31125W        W46742  11.273  13.164   2.053  0.4106  0.0229 -0.2163
31126W        W46743   1.760  13.091   6.461  0.0694 -0.2506 -0.1543
31127W        W46744   5.542   9.819  13.659  0.0850 -0.0169  0.1998
31128W        W46745  14.048   2.175  10.613  0.0460 -0.0716 -0.3751
31129W        W46746  12.812  12.476   2.332  0.0512 -0.0936 -0.1243
31130W        W46747   3.112   0.108   6.125  0.0720  0.3759 -0.2278
31131W        W46748   6.949   6.370   6.021 -0.0914 -0.0579 -0.1020
31132W        W46749  14.211   2.832   1.100  0.0616  0.3581 -0.2519
31133W        W46750   0.426   9.451  12.048 -0.0091 -0.1883  0.0856
31134W        W46751   8.319   8.930   5.418 -0.4389 -0.1736  0.1499
31135W        W46752  10.028  14.240  16.480  0.2005  0.1756  0.3337
31136W        W46753   8.101  10.119  16.112 -0.2250 -0.1391 -0.2046
31137W        W46754  12.543  12.117   3.618 -0.0359 -0.1423  0.2423
31138W        W46755  14.149  13.354  14.368  0.0716 -0.1527 -0.1403
31139W        W46756   0.738  11.178   1.592 -0.0361 -0.2289  0.0101
31140W        W46757   7.752  10.288  17.261  0.0152 -0.1085  0.0755
31141W        W46758  15.218  13.206  14.974 -0.0239  0.0219  0.1703
31142W        W46759  13.953  16.430   4.994 -0.4126 -0.0654  0.0884
31143W        W46760  17.108  15.196   4.620 -0.2980  0.0138  0.0666
31144W        W46761   6.134  13.178  13.883  0.3298 -0.1228 -0.0069
31145W        W46762   8.830   0.557  14.170  0.1562  0.2043 -0.1498
31146W        W46763   4.402   7.250   2.179 -0.0425 -0.1402  0.0354
31147W        W46764  10.791  12.397  14.826 -0.1038  0.0462 -0.1231
31148W        W46765   1.320   2.284   1.837  0.3019 -0.2357  0.3623
31149W        W46766  13.096   4.620   6.752  0.1685 -0.4109  0.1446
31150W        W46767   8.524  10.924  12.888 -0.2675 -0.0527  0.0586
31151W        W46768   2.686  16.174  12.653 -0.1241 -0.0765 -0.0707
31152W        W46769   9.418   8.089  14.938  0.1186  0.0596  0.1362
31153W        W46770  14.713  12.783  12.532  0.1320  0.1818 -0.1034
31154W        W46771  15.369   3.100   4.642  0.1273 -0.2736  0.3225
31155W        W46772  12.340   3.334  16.576 -0.0449 -0.1604  0.2033
31156W        W46773   9.814   2.664   5.486  0.2050 -0.0892 -0.2512
31157W        W46774   5.406  15.477  16.442  0.2949 -0.0289 -0.3270
31158W        W46775   8.938   1.457  12.141 -0.2617 -0.0008 -0.2753
31159W        W46776  12.386   9.062   3.082 -0.2070  0.0259  0.0947
31160W        W46777   4.070   3.058   3.206 -0.1884 -0.1221 -0.1111
31161W        W46778  13.520  12.761   2.669  0.2898  0.0754 -0.1618
31162W        W46779   7.618   8.286  14.442  0.1149  0.3400  0.2235
31163W        W46780  16.578   1.222   2.436 -0.0940 -0.0438 -0.0974
31164W        W46781  13.862  11.273  17.230  0.0070 -0.1740 -0.2087
31165W        W46782   8.434  10.127   2.565 -0.4414 -0.0670 -0.1726
31166W        W46783   8.072  13.647  11.658 -0.3476 -0.4635 -0.0044
31167W        W46784  17.375   8.004   4.987 -0.2823 -0.1762 -0.2675
31168W        W46785  12.651   9.091  16.038  0.2886 -0.2195  0.0544
31169W        W46786   4.015  11.332  17.015 -0.2219 -0.1410  0.0723
31170W        W46787  14.608  11.579   1.542 -0.0442  0.0526 -0.0164
31171W        W46788   6.545   7.056   4.246 -0.2052  0.1204  0.3058
31172W        W46789   9.488   4.120   3.694  0.3117  0.1483 -0.3179
31173W        W46790   1.341  13.778   3.240  0.1882  0.0307 -0.0423
31174W        W46791   5.395  11.563  16.055 -0.1269  0.3431 -0.1263
31175W        W46792   4.605  17.455  15.255 -0.0134  0.2281  0.1427
31176W        W46793   6.583   0.535  13.361 -0.0353 -0.1558  0.0576
31177W        W46794   7.420  10.796   0.524  0.3635  0.1849 -0.2552
31178W        W46795  16.185   3.655   4.393  0.0664 -0.1529  0.1867
31179W        W46796   3.387   1.346  12.428  0.0935 -0.2290 -0.0328
31180W        W46797   6.766   8.231   5.616 -0.2171  0.2047 -0.0937
31181W        W46798   5.437  14.278   1.064  0.1570  0.2842  0.4359
31182W        W46799  13.171  15.941   5.532  0.0526 -0.0427 -0.1154
31183W        W46800   5.753   7.324   0.651 -0.1917 -0.0754 -0.0946
31184W        W46801   0.482  15.122   1.250 -0.0938  0.0522  0.2195
31185W        W46802  11.769   2.459   2.234  0.0959 -0.0023  0.0420
31186W        W46803  17.589   3.514   4.387 -0.1099 -0.0787 -0.0866
31187W        W46804  12.873   3.702   0.528 -0.0916  0.1084  0.1307
31188W        W46805  15.254   6.175   2.670 -0.0395 -0.0329  0.0290
31189W        W46806   8.149   2.051  14.585 -0.0126 -0.0526 -0.1441
31190W        W46807   4.316  17.040   3.047 -0.0440 -0.2442  0.0505
31191W        W46808   8.134   0.791   2.354 -0.2253 -0.2253  0.2296
31192W        W46809   3.871  16.263   3.287  0.2287 -0.3393  0.2680
31193W        W46810  15.617   9.315   4.275 -0.0178  0.0878 -0.2659
31194W        W46811  15.361   3.543   0.885  0.1645  0.3658  0.2902
31195W        W46812  16.337  12.083  15.446 -0.2721 -0.1261  0.0676
31196W        W46813   1.826  10.024   2.692 -0.3278 -0.1257 -0.0814
31197W        W46814   8.731   6.992   2.325 -0.0326 -0.2537 -0.1018
31198W        W46815   4.267  10.019  13.168 -0.0736 -0.1510  0.2854
31199W        W46816   6.962   7.727   3.209  0.2416 -0.1649  0.0966
31200W        W46817  12.159   8.758  13.935  0.1242  0.2179 -0.0672
31201W        W46818   4.362   1.197   2.014  0.1584 -0.0714 -0.0367
31202W        W46819   4.307   7.422  13.704  0.1793  0.1869  0.0990
31203W        W46820  10.662  11.003   0.545  0.1235  0.0380 -0.0007
31204W        W46821   4.414  17.588   5.649  0.0991  0.0924  0.1913
31205W        W46822   7.200   5.716   3.223 -0.1517 -0.0683  0.1423
31206W        W46823  10.441  16.445   2.831  0.2091  0.1133  0.0701
31207W        W46824   1.593  15.986  12.858  0.0691 -0.0811 -0.0688
31208W        W46825   8.077  14.741   3.315 -0.0654  0.1035  0.0541
31209W        W46826   8.857  11.052   5.609  0.1479 -0.1482  0.1521
31210W        W46827   6.144   2.490   0.925 -0.1901  0.3685  0.2747
31211W        W46828  12.739   2.571  12.972 -0.2504 -0.0410  0.0243
31212W        W46829  15.761   4.086   2.011  0.2383 -0.1806  0.0894
31213W        W46830   3.257  16.026  13.664  0.2937 -0.0165  0.0366
31214W        W46831  12.422  14.949   5.749  0.1493 -0.0765  0.0078
31215W        W46832   1.227   9.155   0.094 -0.2131  0.1791 -0.2086
31216W        W46833   7.164   3.841   5.118 -0.2988  0.1669 -0.1385
31217W        W46834   7.588   6.552   0.337 -0.3348  0.2023  0.2497
31218W        W46835  13.949   4.368   4.665  0.0322 -0.2066 -0.0813
31219W        W46836   6.111  14.450  14.256 -0.1319 -0.0650  0.0635
31220W        W46837   5.572  16.660   1.895 -0.1784  0.1400 -0.1921
31221W        W46838  16.385  10.357  13.939  0.0845  0.0543  0.0670
31222W        W46839   9.798  15.857  15.547 -0.0526  0.1391  0.0411
31223W        W46840   0.779  14.106   5.837  0.0188  0.2530 -0.1159
31224W        W46841  11.366   2.622  16.444 -0.2130  0.1021  0.2118
31225W        W46842   4.158  10.561  14.072 -0.1759 -0.0904 -0.1984
31226W        W46843   5.655  16.773   5.376 -0.0214  0.1594 -0.0441
31227W        W46844   9.417  15.547   4.884  0.2145  0.0464  0.1418
31228W        W46845   6.325   8.090  16.830  0.2382  0.2362  0.0154
31229W        W46846  12.982   7.905  16.386  0.2088 -0.1406  0.1762
31230W        W46847  12.589  16.039  12.741 -0.3257 -0.2422 -0.0434
31231W        W46848   1.142   5.079  17.167  0.1449 -0.1391  0.2558
31232W        W46849   3.457   7.480   0.712 -0.1208 -0.0166  0.1817
31233W        W46850  13.580  11.783  15.303  0.1385 -0.0729 -0.1651
31234W        W46851  11.134  10.646  13.902 -0.0019  0.1046  0.0603
31235W        W46852  14.563   3.278   0.312 -0.4900 -0.2628  0.1151
31236W        W46853   1.770   1.590  15.412  0.0699  0.1318 -0.0233
31237W        W46854   0.349  13.166   1.631  0.4021 -0.2596  0.1804
31238W        W46855   1.635   4.935   0.784  0.3146 -0.0625 -0.2083
31239W        W46856   5.596   4.622   5.185  0.0981 -0.0754 -0.0506
31240W        W46857  16.290   6.467   4.684  0.0310  0.2855  0.1648
31241W        W46858   9.496  12.212  13.643 -0.1734 -0.0222  0.0094
31242W        W46859   2.610   4.705   1.345  0.2140  0.1797  0.0813
31243W        W46860   4.834   3.895  13.576 -0.3481  0.0180 -0.3012
31244W        W46861   6.834   2.152   5.926  0.1763  0.1914 -0.0348
31245W        W46862   2.442  13.770  12.790  0.1177 -0.0975 -0.0356
31246W        W46863  12.252  12.938   5.896  0.0089  0.0065 -0.2117
31247W        W46864  13.323   1.152   1.967 -0.0387  0.0117 -0.0454
31248W        W46865  12.773  10.358  15.711  0.2412  0.0517  0.1383
31249W        W46866   1.867  16.208  17.292 -0.1295 -0.0894  0.0339
31250W        W46867   8.106   4.721  14.855 -0.1460  0.1087 -0.5709
31251W        W46868  12.413   0.143  16.978 -0.0108 -0.1814  0.2130
31252W        W46869   7.040   1.684   1.883 -0.2337  0.3747  0.0938
31253W        W46870   3.974   1.218   0.754 -0.2335 -0.0219  0.0644
31254W        W46871   3.162   6.928  14.666  0.1108 -0.2900 -0.1172
31255W        W46872  12.108  11.486  14.607  0.1769  0.2508  0.0874
31256W        W46873  11.958   7.589  13.193  0.2079 -0.0325  0.0014
31257W        W46874   8.852  10.469   3.395 -0.0744 -0.0585  0.0250
31258W        W46875   2.895  14.439  12.491 -0.1768  0.2458 -0.0833
31259W        W46876   1.077   7.687   6.133 -0.4028 -0.0383 -0.0510
31260W        W46877   5.384   8.119   6.151  0.0351 -0.1483 -0.1800
31261W        W46878  11.654  15.343  12.667  0.0756  0.1760 -0.0117
31262W        W46879   8.036   7.642  16.581  0.0346  0.1374  0.0229
31263W        W46880  16.245   6.827  16.867 -0.0887  0.2943 -0.0904
31264W        W46881  14.298   2.471  14.183  0.2242  0.0775  0.2117
31265W        W46882  12.230   3.103   1.726  0.1095 -0.1479  0.0651
31266W        W46883  16.510   3.316  17.091  0.0525 -0.1489  0.3184
31267W        W46884  10.287   9.930  16.764 -0.2966  0.0910 -0.0496
31268W        W46885  17.347  16.384   2.738  0.2045  0.1778 -0.0780
31269W        W46886  11.754  15.330   4.387 -0.3302  0.2134  0.1218
31270W        W46887   5.474  16.490  12.988 -0.0836 -0.2836 -0.0529
31271W        W46888   7.018   9.836  15.246  0.2278 -0.2569  0.0572
31272W        W46889  13.308  15.157  15.357 -0.0670  0.1040  0.1935
31273W        W46890   3.782   1.002  12.224  0.2879  0.3405 -0.1217
31274W        W46891   0.396   2.093   2.751 -0.1182  0.0282  0.2861
31275W        W46892   8.695  16.414  14.901  0.2143 -0.0518  0.0949
31276W        W46893   3.688  15.830  15.344 -0.0012  0.0350 -0.1976
31277W        W46894   0.306   3.976   4.237 -0.0933  0.1097  0.0288
31278W        W46895   8.657   4.556   1.660 -0.0475  0.0557  0.0706
31279W        W46896   9.356  13.367  17.121  0.1188  0.0672 -0.3397
31280W        W46897   2.745   6.163   5.780  0.1926  0.5179  0.3185
31281W        W46898  13.382   9.977   5.383  0.1168  0.2465 -0.2135
31282W        W46899  14.118  16.066   4.410 -0.0757 -0.1037 -0.0686
31283W        W46900   6.061   6.574  15.659  0.2934  0.2410  0.1552
31284W        W46901   3.157   4.277  14.368 -0.0336  0.0097  0.1870
31285W        W46902  15.787  12.541   2.192  0.0036  0.0382 -0.2071
31286W        W46903   0.270  10.095   3.281  0.0460 -0.0631 -0.1460
31287W        W46904   7.211  15.317  16.282 -0.0055 -0.0644  0.0848
31288W        W46905   9.311  17.043   0.520 -0.0766  0.5177 -0.2004
31289W        W46906  15.831   6.262  16.513 -0.1455 -0.0573  0.1936
31290W        W46907   8.548  12.102  15.400  0.0633 -0.1119  0.2693
31291W        W46908  11.823   5.413   4.922  0.0085 -0.0164  0.1775
31292W        W46909   9.020   5.424  11.338  0.1096 -0.0286  0.0301
31293W        W46910   1.586   2.395   3.174  0.1995 -0.1886  0.0174
31294W        W46911  12.923   3.262   3.878  0.3766  0.0897 -0.0874
31295W        W46912   6.408   4.141  16.599 -0.1652  0.3539  0.0025
31296W        W46913  13.759   8.323  16.167  0.4027 -0.1120 -0.0030
31297W        W46914  10.752  12.798   0.770  0.0434 -0.1188  0.1841
31298W        W46915   5.173   0.015   2.888 -0.0200  0.1782  0.1016
31299W        W46916  12.790   9.738   2.280  0.1660  0.0055  0.1830
31300W        W46917   9.071   6.654   1.079 -0.0558 -0.0780 -0.0274
31301W        W46918   1.065   6.407   3.210  0.4464  0.1437 -0.0110
31302W        W46919  12.151  10.497  14.693  0.0843  0.3004 -0.0400
31303W        W46920   8.199  10.682   2.726 -0.0131 -0.0523 -0.3955
31304W        W46921  16.741  17.389  13.774 -0.3825  0.2522 -0.2410
31305W        W46922   5.662   3.523   6.596  0.0221  0.2549  0.3666
31306W        W46923  11.797   3.242  15.721  0.2018 -0.1240  0.0287
31307W        W46924  17.317  10.046   0.778 -0.2024  0.1068  0.2856
31308W        W46925   1.686   9.382  14.596  0.0312  0.1329 -0.1011
31309W        W46926  11.424   4.415   0.638 -0.0604 -0.1504 -0.1406
31310W        W46927  11.466  11.337  13.605  0.5280 -0.0907 -0.1688
31311W        W46928   2.460  13.736  12.317 -0.1850  0.0517 -0.2256
31312W        W46929   9.034   2.442   2.122 -0.2918  0.0153  0.1811
31313W        W46930  16.465   4.133   4.081  0.0224 -0.3010 -0.1349
31314W        W46931   0.791  13.851   2.373  0.0730  0.1013  0.2446
31315W        W46932   2.598   1.881  15.244  0.0291 -0.0220 -0.2663
31316W        W46933   1.607   0.663  13.755  0.3326  0.1829  0.0346
31317W        W46934  12.078  14.335   2.875  0.0259 -0.0095  0.2215
31318W        W46935  13.164   0.669  14.453  0.1520  0.3687  0.0645
31319W        W46936   6.963   3.528   5.469  0.0946 -0.1754 -0.1691
31320W        W46937  13.563   1.931   5.368  0.4332 -0.1246 -0.2547
31321W        W46938   7.551   3.790  12.503  0.1172  0.0124 -0.2331
31322W        W46939   6.078  15.577  15.920  0.1183 -0.0497  0.1794
31323W        W46940   2.087  11.190   0.817  0.2670 -0.1308 -0.0281
31324W        W46941   5.307   0.578  15.262 -0.0564  0.1605 -0.2003
31325W        W46942   8.662   3.397  11.685  0.0741 -0.0427 -0.0936
31326W        W46943   0.749  15.421   0.625  0.3898  0.0237 -0.0670
31327W        W46944  14.538  12.293   3.062 -0.0070 -0.2713 -0.0639
31328W        W46945  13.518  10.507   1.461  0.1460  0.0408  0.0716
31329W        W46946   4.924   8.061   0.994  0.1270 -0.2105  0.2335
31330W        W46947   0.338   7.891   0.860  0.1918  0.2425 -0.1156
31331W        W46948  12.434  10.396   0.299  0.0876 -0.0377  0.1328
31332W        W46949  16.084   5.960  16.880 -0.0121 -0.1933 -0.0435
31333W        W46950   2.326  11.210   5.679 -0.2155  0.2236 -0.0788
31334W        W46951   2.500  10.426   0.053  0.2518 -0.0495  0.0896
31335W        W46952   2.106  12.954   5.229 -0.1481  0.4582  0.0769
31336W        W46953  17.520   1.907   0.714 -0.2152 -0.2891  0.1669
31337W        W46954  14.241   6.550  14.132 -0.1354 -0.4042  0.0604
31338W        W46955   0.120   1.430   1.104 -0.1958 -0.1092 -0.1266
31339W        W46956   2.328   0.449  15.661 -0.1685  0.0704  0.0513
31340W        W46957   6.017  17.104   5.485  0.0646  0.2650  0.0194
31341W        W46958  10.035  15.265   0.999  0.0226  0.0329  0.1841
31342W        W46959   5.624   0.606   4.622 -0.3710  0.1814 -0.1654
31343W        W46960   0.946  12.460  14.685  0.1560 -0.0090 -0.0842
31344W        W46961   0.792  11.058   0.416  0.2872  0.0131 -0.0533
31345W        W46962   0.258  15.275   4.872  0.0186 -0.0162  0.0112
31346W        W46963   8.200   3.268   1.222  0.0865  0.1402 -0.0762
31347W        W46964  15.756  10.463  13.061 -0.0359 -0.3564 -0.1708
31348W        W46965  16.146   1.707   4.597  0.0806  0.1799  0.0597
31349W        W46966  16.367  13.140  15.320  0.1637 -0.1569 -0.0450
31350W        W46967  17.455   8.723   3.933  0.0160 -0.0084 -0.0239
31351W        W46968   7.816  14.865  12.113  0.1059 -0.0405 -0.2061
31352W        W46969   4.502  17.237   2.538 -0.0901 -0.0872  0.1387
31353W        W46970   0.413  10.355  13.954  0.1564 -0.3027 -0.0434
31354W        W46971   8.200  11.080   1.090 -0.0372  0.0197 -0.0576
31355W        W46972  10.992  10.793   0.908  0.2125 -0.0284 -0.0288
31356W        W46973   5.478   3.072   3.128  0.0310 -0.0508  0.0106
31357W        W46974  16.327  10.871   1.853  0.1043  0.1976 -0.0832
31358W        W46975   9.167   9.732   0.970  0.0823  0.0985 -0.0640
31359W        W46976   8.613   9.665   4.392  0.0525  0.1288  0.0519
31360W        W46977  17.600  13.594  12.400 -0.1333  0.2035  0.1039
31361W        W46978   7.039  11.725  15.501 -0.1090 -0.1496  0.1166
31362W        W46979  15.747  11.537  13.962  0.1722  0.3082  0.1404
31363W        W46980   2.903  10.391  12.821 -0.2479 -0.0950 -0.2808
31364W        W46981   1.004   8.941   0.953 -0.0433 -0.0482 -0.1671
31365W        W46982   9.003  15.855  15.184  0.0696 -0.1091  0.0015
31366W        W46983  11.449   5.101   4.734  0.0218 -0.3353 -0.1194
31367W        W46984  11.208  13.054   5.168 -0.0091  0.0060  0.0314
31368W        W46985   5.410  13.705  12.294  0.0501  0.0914 -0.0525
31369W        W46986  17.099  14.566   4.076 -0.0294 -0.1458  0.0191
31370W        W46987   2.821  15.666  14.336  0.5451 -0.2378 -0.3382
31371W        W46988  15.754  15.822   2.431 -0.3735  0.0251 -0.0662
31372W        W46989   1.814   6.338   0.067  0.2263  0.0265 -0.2780
31373W        W46990   1.200  13.389  13.053  0.0090  0.1736  0.1328
31374W        W46991   2.482   1.530  16.322 -0.7041 -0.2808  0.0624
31375W        W46992   8.036   1.604  14.849  0.0437 -0.1884  0.2200
31376W        W46993   2.792   7.295  13.815 -0.1449 -0.0402 -0.0805
31377W        W46994   9.090   9.362   5.176 -0.5058  0.2671 -0.2621
31378W        W46995  13.288  15.442   4.594 -0.2102 -0.0155 -0.0476
31379W        W46996  13.144   8.736  12.041  0.2556  0.1148 -0.4680
31380W        W46997   8.359   2.564  14.449  0.3390  0.0608  0.1482
31381W        W46998   7.819   3.574  13.356 -0.2574  0.4030 -0.0034
31382W        W46999   1.023  14.530  15.201 -0.2063  0.0532  0.0143
31383W        W47000  14.761  15.880   3.607 -0.0819  0.5676  0.2104
31384W        W47001   8.697   0.147  16.051  0.4498  0.0080  0.0685
31385W        W47002   6.977  14.053  12.923  0.2418  0.0714 -0.1175
31386W        W47003  15.300  12.973   3.310  0.1736 -0.1084  0.2122
31387W        W47004  15.387   7.231  16.386  0.0507 -0.0837 -0.1631
31388W        W47005  14.156  10.834   1.163 -0.5150  0.0941  0.0768
31389W        W47006  11.322  16.127   3.314  0.1324  0.1522  0.1067
31390W        W47007  12.459   3.987  14.867 -0.1091 -0.0866  0.0362
31391W        W47008  13.222  12.301   2.514 -0.0492  0.0677 -0.0626
31392W        W47009   0.988   1.238   3.099  0.0316 -0.2398 -0.0570
31393W        W47010  13.992  13.061   5.896  0.2276 -0.3238 -0.0325
31394W        W47011   5.498   8.219   0.125 -0.0976 -0.0886  0.3133
31395W        W47012  10.041  13.927   3.920  0.1915 -0.1365 -0.1193
31396W        W47013  12.357  11.963  14.274 -0.2602 -0.1865 -0.2016
31397W        W47014   0.969  17.213   5.738  0.0805  0.0369  0.1243
31398W        W47015  12.095   4.858   4.283 -0.0903  0.3390 -0.3241
31399W        W47016  11.366  16.790   2.537  0.2164  0.2380 -0.0557
31400W        W47017   0.459   8.651  14.312  0.2104 -0.1497  0.0319
31401W        W47018   5.388   9.547   3.182  0.0322 -0.0480 -0.1729
31402W        W47019  16.865   2.929  13.482 -0.1086  0.0726 -0.1202
31403W        W47020  12.054  12.165  15.287 -0.1579  0.0909  0.2385
31404W        W47021   6.893  14.841   2.438 -0.1032  0.1346 -0.0765
31405W        W47022  14.386  15.916  16.576 -0.1139  0.1912 -0.1661
31406W        W47023  16.900  10.559  12.598 -0.0584  0.1081 -0.0044
31407W        W47024   8.262   8.355   1.126 -0.0241  0.0313  0.0771
31408W        W47025   8.384   8.507   2.284 -0.1607  0.0245 -0.2088
31409W        W47026   5.539  13.771  13.213  0.0202 -0.1764  0.0560
31410W        W47027  11.014   4.670   1.793  0.1614 -0.1485 -0.1896
31411W        W47028   1.702   9.921  13.921 -0.0780 -0.2111 -0.0683
31412W        W47029  14.524   5.088  13.147  0.0275  0.4133 -0.0394
31413W        W47030  13.315  15.911   4.489  0.1539  0.2003  0.0732
31414W        W47031   9.902   3.816   0.975 -0.3372 -0.0339  0.2043
31415W        W47032  17.397   0.400  13.726 -0.1290 -0.2577 -0.4092
31416W        W47033   2.723   5.628  12.977  0.1030 -0.0288 -0.1784
31417W        W47034   1.397  17.167   5.510  0.1839  0.1593 -0.0263
31418W        W47035   1.489   1.092   3.400 -0.0320 -0.1766  0.5109
31419W        W47036   0.676  11.232   2.090  0.0863 -0.1230  0.0424
31420W        W47037   0.958   8.730   0.120 -0.0551 -0.1578  0.0624
31421W        W47038   4.381  12.585   2.609  0.3708  0.1057 -0.2089
31422W        W47039  16.105   8.879  15.834  0.0861 -0.1978 -0.1348
31423W        W47040   8.296  16.823   0.345 -0.0204 -0.0507 -0.1898
31424W        W47041  14.546   0.610  13.734  0.1230  0.0648 -0.1859
31425W        W47042   8.659  10.806  15.910 -0.0569 -0.0571 -0.0000
31426W        W47043  11.802   6.220  14.882 -0.0379  0.0162  0.1086
31427W        W47044  11.732   8.795   1.273 -0.0730  0.4486  0.0466
31428W        W47045  13.964  14.501   4.104  0.2747 -0.1516  0.3234
31429W        W47046   6.553  17.227  15.762 -0.0081  0.1838  0.1200
31430W        W47047   5.300  10.350  16.937  0.1688  0.0533 -0.1649
31431W        W47048  10.681   7.729  13.862 -0.0626  0.1676  0.3154
31432W        W47049   2.767   7.308  15.933 -0.1132  0.2314 -0.0360
31433W        W47050   1.614   1.409  16.040 -0.0924 -0.2705  0.1612
31434W        W47051   9.268   6.332   5.437  0.1619 -0.2029 -0.1471
31435W        W47052  15.147  15.289   1.544 -0.2107 -0.3123 -0.0801
31436W        W47053   9.448   3.332  13.298  0.0822  0.3473  0.0915
31437W        W47054   8.192  17.576  12.929 -0.3035  0.1096 -0.1013
31438W        W47055  10.557  10.843   6.023 -0.2172 -0.3202  0.3087
31439W        W47056  13.135   6.705   1.956  0.2366  0.3040 -0.1217
31440W        W47057   9.848  16.398  12.487  0.0048 -0.0863  0.4021
31441W        W47058  12.881   5.618  14.727 -0.2702  0.1200 -0.1129
31442W        W47059   5.009   9.796   1.440  0.0076 -0.0124  0.0832
31443W        W47060   9.977  10.955   3.562  0.0484  0.2726 -0.0744
31444W        W47061  17.158   6.183   4.246  0.0496 -0.1399 -0.0682
31445W        W47062   1.264  10.026  16.920 -0.1028  0.0538 -0.1750
31446W        W47063   2.914  11.229  14.452  0.1853  0.0674  0.0621
31447W        W47064   2.571  17.292   4.048 -0.1519  0.2735  0.0985
31448W        W47065   2.735   3.469  16.047  0.0319  0.0804  0.2089
31449W        W47066   1.774  17.418   1.046 -0.3162 -0.1266 -0.0137
31450W        W47067  13.680  10.135   0.561 -0.2812 -0.0097  0.0795
31451W        W47068   8.445   6.509   3.146 -0.5031  0.1800  0.3906
31452W        W47069   8.871   3.777  14.704  0.5277 -0.0113 -0.1257
31453W        W47070  12.217   1.706  11.502  0.0190 -0.3043  0.0125
31454W        W47071  10.939   5.496  13.806 -0.0192 -0.1280 -0.0941
31455W        W47072  16.100   1.205   0.166 -0.0353  0.1208 -0.0527
31456W        W47073  10.736  16.162   2.007  0.0372 -0.0137  0.1453
31457W        W47074  16.675   3.702  12.683 -0.2572 -0.1997  0.1955
31458W        W47075   8.437  12.626   3.548 -0.2610 -0.0557  0.1423
31459W        W47076  17.308   6.261   2.035  0.2348  0.1096 -0.1593
31460W        W47077   2.298   2.780  12.201 -0.1569  0.2575  0.0718
31461W        W47078  10.405   5.116  14.068 -0.3246  0.2135 -0.0285
31462W        W47079  11.776   5.640   2.270  0.0730  0.0383 -0.2234
31463W        W47080  13.362  17.473   2.394  0.0881  0.1954  0.0203
31464W        W47081  16.487   7.669   1.672  0.1521 -0.4489 -0.1983
31465W        W47082  11.628   1.432  12.197 -0.3906  0.0823 -0.0286
31466W        W47083  13.358   8.622   0.906  0.0183  0.0669 -0.3175
31467W        W47084  17.241  15.092  17.183 -0.2588 -0.0324  0.1358
31468W        W47085  10.342   6.743   1.276  0.0161  0.1480 -0.1950
31469W        W47086  14.082  14.729   0.121 -0.1150 -0.3033  0.2319
31470W        W47087   5.071   0.383  15.902  0.2563  0.0820  0.1206
31471W        W47088  16.023  11.919   0.096  0.1322 -0.0875  0.0938
31472W        W47089  12.803   7.230   3.547 -0.1008  0.3534 -0.1559
31473W        W47090   3.200   4.826  17.055  0.5554 -0.0630  0.1539
31474W        W47091  16.957  12.943   4.994  0.3150 -0.3332  0.4289
31475W        W47092  14.677   5.119  16.648  0.1903  0.0509  0.0871
31476W        W47093   1.880   5.777   6.337 -0.2910  0.0813  0.0600
31477W        W47094   1.486  10.381  12.481 -0.0384 -0.3265 -0.2173
31478W        W47095  14.140  17.392  14.338 -0.0571  0.3593  0.0424
31479W        W47096   0.798  11.962   4.632  0.2319 -0.1965 -0.1539
31480W        W47097  16.660  12.875   3.516 -0.0790 -0.3483  0.1891
31481W        W47098   0.267   8.609   1.343  0.0957 -0.1249  0.0361
31482W        W47099   1.050   8.886   4.386 -0.1957  0.1180 -0.1214
31483W        W47100   5.463   6.839  12.636 -0.0278  0.0247  0.0727
31484W        W47101   2.025   7.177   5.854  0.1106 -0.0122  0.0864
31485W        W47102  16.455  14.845   6.177  0.5066 -0.2147 -0.0711
31486W        W47103   0.184   7.206   4.646  0.1331 -0.0542 -0.1881
31487W        W47104   0.776  15.925  17.284  0.1153  0.2871 -0.0251
31488W        W47105  14.608   2.035   1.091  0.1050 -0.0469 -0.1620
31489W        W47106   1.244   2.332   2.784 -0.0739 -0.0375 -0.0426
31490W        W47107  17.058   9.238   1.114  0.1283 -0.0389 -0.1394
31491W        W47108   0.221   5.043   5.544 -0.1543  0.2398 -0.1083
31492W        W47109   0.187  11.494  13.950  0.2214  0.1600  0.2936
31493W        W47110   8.517  12.416   0.953  0.2064 -0.1969 -0.1273
31494W        W47111   5.834   7.848  14.533 -0.0571 -0.2368  0.0432
31495W        W47112   2.509  13.438  15.691  0.0673  0.0528 -0.0326
31496W        W47113   4.587  16.949  14.141  0.0583 -0.2230 -0.0573
31497W        W47114  14.822   3.530   1.115  0.3530 -0.1513  0.0116
31498W        W47115   2.431   0.566  15.199  0.2927  0.3614 -0.0284
31499W        W47116  13.284   0.323  15.210 -0.0394 -0.0753 -0.1493
31500W        W47117   5.285  13.474  14.513  0.0796 -0.0844 -0.1237
31501W        W47118  14.893  10.247  16.178 -0.0928 -0.1557  0.2203
31502W        W47119   9.404   3.368   2.681 -0.1030  0.1906  0.0214
31503W        W47120  14.504   6.671  17.213 -0.1471  0.0598 -0.2165
31504W        W47121  15.048   7.161   2.838 -0.0167 -0.1506  0.0306
31505W        W47122   8.887  15.905  11.276 -0.1502 -0.0298 -0.3262
31506W        W47123   0.378  13.664   3.290  0.0866  0.1464  0.3620
31507W        W47124  14.337   1.259  12.607  0.2526 -0.2592  0.1344
31508W        W47125   5.735  10.175   5.521 -0.0307 -0.0371  0.1279
31509W        W47126   4.141   1.754   2.956  0.1325 -0.2017  0.2723
31510W        W47127  15.752   0.885   5.196  0.3059 -0.0770 -0.0934
31511W        W47128  16.527   7.994  15.881 -0.1660 -0.0097 -0.3120
31512W        W47129  13.083  14.946   1.552  0.2386  0.0763 -0.1096
31513W        W47130   0.259   8.223   0.431  0.1209  0.0839  0.1849
31514W        W47131  12.892  13.543  13.911  0.0150  0.1257 -0.0951
31515W        W47132   2.988   2.636   3.544  0.0131  0.0557 -0.0277
31516W        W47133  11.592   3.158  13.489 -0.2922 -0.0037  0.2702
31517W        W47134   2.223   0.045   1.894  0.0356 -0.0229 -0.1393
31518W        W47135  13.587  10.174  16.405 -0.1557 -0.0007  0.0284
31519W        W47136   4.184   8.246  15.401  0.2816 -0.0176 -0.0991
31520W        W47137   2.246   1.588   3.256  0.2137 -0.2065 -0.0231
31521W        W47138   3.557   9.179  16.533 -0.0210 -0.1899 -0.0620
31522W        W47139   0.262  13.735   1.274 -0.1793 -0.1028  0.3154
31523W        W47140  12.635   1.614   4.184 -0.1929  0.0939 -0.1282
31524W        W47141   1.218   4.448  14.158 -0.1877 -0.1372 -0.2138
31525W        W47142   3.032   4.366  15.295 -0.0665 -0.1482  0.2268
31526W        W47143   3.484  14.159  17.051  0.2301 -0.3409  0.3950
31527W        W47144   3.103  15.833  11.638  0.0250  0.0828 -0.0923
31528W        W47145  11.767   1.740  16.219  0.1702 -0.0669  0.1653
31529W        W47146  14.264   0.189  13.621 -0.0362 -0.2514 -0.0665
31530W        W47147   9.547  11.188   3.577  0.3087  0.3215 -0.1916
31531W        W47148  17.464   3.606  12.908  0.0389 -0.4369  0.1147
31532W        W47149   2.776  13.753  16.619  0.2344 -0.0648 -0.2586
31533W        W47150  15.425  14.734   4.203 -0.0976 -0.2915  0.0321
31534W        W47151   3.384   0.246   5.207 -0.4715  0.1605  0.2772
31535W        W47152   1.432   2.713   5.996 -0.2039 -0.0305  0.3065
31536W        W47153  12.565  15.261   4.038  0.2909  0.2849 -0.0803
31537W        W47154   7.807   5.172  16.831 -0.0406 -0.1952 -0.1898
31538W        W47155   5.188   5.861  17.048 -0.1399  0.1107 -0.1883
31539W        W47156  11.954   6.666  14.612  0.2422 -0.0507  0.1594
31540W        W47157   0.625   3.929   0.353 -0.6651 -0.0649 -0.0419
31541W        W47158  15.385  16.693  16.681 -0.0394  0.1089  0.0093
31542W        W47159  17.244   7.762  14.255 -0.0208  0.1612  0.0991
31543W        W47160   8.655  14.435   2.237  0.0038  0.2330 -0.0873
31544W        W47161   1.943  16.409  16.864  0.1797 -0.1999  0.2027
31545W        W47162   6.250  16.611  12.165 -0.2328  0.0285 -0.0513
31546W        W47163   5.824   3.030  11.163 -0.0488 -0.1317 -0.3930
31547W        W47164   5.691   8.898  14.392  0.0252  0.1574 -0.0183
31548W        W47165   2.834  15.704  12.738  0.1181 -0.0719 -0.0693
31549W        W47166  17.580  14.700  12.297  0.2344 -0.1940  0.1769
31550W        W47167  16.338  11.607  14.699 -0.3054  0.0515 -0.0893
31551W        W47168  14.258   4.230  13.708  0.2463 -0.0316  0.0076
31552W        W47169   9.610  17.576   2.744 -0.0405 -0.0595  0.1817
31553W        W47170  15.652   9.252  14.096  0.0464 -0.0771 -0.3703
31554W        W47171   8.375  12.198  16.889 -0.0222 -0.3993 -0.0928
31555W        W47172   1.936   8.437   5.356  0.2061 -0.1149  0.0034
31556W        W47173  13.403   3.151   4.622  0.1371  0.1046 -0.3567
31557W        W47174   3.188   8.480  14.158  0.2809  0.0047  0.1904
31558W        W47175   9.057   3.766  11.630  0.2976 -0.0259  0.1113
31559W        W47176   3.473   2.865   0.361  0.1458  0.3518  0.0207
31560W        W47177   9.697   7.778  11.307  0.1849 -0.0549  0.0620
31561W        W47178  17.094   0.005   6.067  0.2295 -0.0450 -0.1409
31562W        W47179   0.952   0.591  13.121 -0.0478 -0.1806 -0.0589
31563W        W47180  15.109   9.598   1.263 -0.0651 -0.1361 -0.1325
31564W        W47181  15.562   1.586   1.679 -0.0601 -0.2800  0.1120
31565W        W47182  12.362  13.676  16.949 -0.0366  0.1829  0.0519
31566W        W47183   4.781   5.244   6.057 -0.3046  0.0981  0.0143
31567W        W47184   9.112   9.354   0.654 -0.2083  0.4753 -0.3114
31568W        W47185   5.428  13.797   4.617  0.0297  0.0390  0.1425
31569W        W47186   2.972  11.523   5.222  0.4033 -0.2192 -0.1952
31570W        W47187   4.405  14.730  15.463 -0.0536  0.3053  0.0270
31571W        W47188  14.150  15.281  15.651 -0.1874 -0.2171  0.0972
31572W        W47189   5.831   8.635   1.817 -0.0787 -0.1098  0.1101
31573W        W47190  10.616   1.095   4.828  0.1596  0.0769  0.0925
31574W        W47191   1.000  10.209   4.120  0.1255  0.0397  0.1082
31575W        W47192   2.638   6.627  12.411 -0.1301 -0.0203  0.3278
31576W        W47193  11.018   1.726  14.059  0.2574  0.0106  0.2568
31577W        W47194   6.037   9.842  13.596 -0.1485  0.2454 -0.2225
31578W        W47195   7.645   5.831   0.298  0.0184 -0.4486  0.0113
31579W        W47196   0.356  12.850   0.089 -0.3621  0.3052 -0.2669
31580W        W47197   2.110   0.676  14.839 -0.1285  0.0031 -0.3577
31581W        W47198   6.641   2.337   2.837 -0.5813 -0.0254  0.1949
31582W        W47199   2.608  15.481   4.340  0.1688  0.3239 -0.4288
31583W        W47200   2.176   3.768   3.169  0.2128  0.0907  0.0817
31584W        W47201  10.725   7.178   1.688  0.1222  0.2193 -0.0833
31585W        W47202   7.675  10.762  13.040 -0.4122  0.1376 -0.0035
31586W        W47203   8.791  12.278   1.335  0.1448 -0.0110 -0.1111
31587W        W47204  10.686  14.656   5.777  0.2722 -0.1030 -0.2001
31588W        W47205   4.151   1.757  15.931 -0.1058  0.3458  0.3060
31589W        W47206   5.445   1.505  15.041  0.0881  0.1181  0.0936
31590W        W47207  17.352  13.762  13.637 -0.0693 -0.2268  0.0781
31591W        W47208   7.272  14.910   5.440  0.1633  0.0747 -0.0472
31592W        W47209  13.008  15.637  12.018  0.2694 -0.0258 -0.0778
31593W        W47210  16.129  17.417  13.216  0.1765 -0.1263  0.0533
31594W        W47211  14.392  14.751  14.302  0.0460 -0.1081  0.1044
31595W        W47212   0.691  12.186  16.985  0.0739  0.0300 -0.2413
31596W        W47213  12.201   9.941   0.458 -0.2344  0.1710 -0.0562
31597W        W47214  16.004  13.539   3.635 -0.0853  0.2229 -0.1071
31598W        W47215  11.233   1.588   1.082 -0.2741 -0.1642 -0.0983
31599W        W47216   0.452   5.158   5.118  0.0234  0.0268 -0.0947
31600W        W47217   6.469  10.472  12.462 -0.0815  0.0141 -0.3367
31601W        W47218  13.090  15.133   4.130  0.2888  0.0548  0.1443
31602W        W47219  12.924  11.607   2.911 -0.1583 -0.0490  0.0966
31603W        W47220  16.266   3.801   4.950  0.1942  0.0452  0.1715
31604W        W47221   2.186  11.939   4.326  0.0565 -0.4093 -0.1520
31605W        W47222   6.461   2.893   0.738 -0.1130 -0.0154 -0.2517
31606W        W47223   5.462   3.309   0.996 -0.1369 -0.3044  0.2416
31607W        W47224   2.362   9.094  12.656 -0.0172 -0.0496  0.5504
31608W        W47225   5.021   9.678  11.855 -0.1606  0.0451  0.4217
31609W        W47226  12.131  15.372  15.683  0.0590 -0.1578  0.3158
31610W        W47227  10.411   8.947  16.358  0.1079 -0.0614 -0.0535
31611W        W47228   3.035   1.031   4.552 -0.0518 -0.3272  0.5051
31612W        W47229   5.980   3.998   4.420 -0.2823 -0.2524  0.0496
31613W        W47230  16.668  12.754   2.074 -0.0024 -0.1173  0.1044
31614W        W47231  17.186  13.165  13.091  0.0531 -0.1893 -0.1440
31615W        W47232   9.947   4.516   3.924 -0.5192 -0.1551  0.2210
31616W        W47233  10.657   9.067   2.053 -0.1814  0.1220  0.3541
31617W        W47234  15.347   1.214   1.412 -0.1395  0.3787  0.0202
31618W        W47235   5.004   0.872  14.945 -0.1760  0.1067  0.1353
31619W        W47236   6.141  11.241   4.689 -0.0045 -0.2482  0.1306
31620W        W47237  11.670   7.959  14.874 -0.2814  0.1160 -0.3128
31621W        W47238  11.019   6.436   4.714  0.0990 -0.0967 -0.1551
31622W        W47239  13.707  16.883   1.686 -0.1325  0.1150 -0.1017
31623W        W47240  10.648  13.933   4.240  0.3695 -0.3408  0.0387
31624W        W47241  12.357   2.108  14.487 -0.0966 -0.0382  0.0255
31625W        W47242  16.862  15.147   4.206  0.1031 -0.1479 -0.0538
31626W        W47243   8.420   3.111   4.912  0.4436  0.1467 -0.2548
31627W        W47244   9.013  12.306  13.340  0.0166 -0.0069 -0.0337
31628W        W47245   3.858   8.136  16.415  0.4107 -0.3014  0.1437
31629W        W47246   3.266   2.579  14.539  0.1841 -0.0836  0.0604
31630W        W47247  11.016  10.242   3.499 -0.2429  0.2793  0.0587
31631W        W47248   3.882  12.709   3.335 -0.0099  0.0091  0.1608
31632W        W47249   1.502   4.777  16.454  0.1587  0.1535  0.2559
31633W        W47250  12.946   2.566  12.054 -0.0406  0.0354 -0.1787
31634W        W47251  13.634  14.576   2.084  0.1603 -0.0353  0.0247
31635W        W47252   8.097  15.400   5.504 -0.0441  0.2709 -0.1940
31636W        W47253  13.958  16.240   1.798  0.1128  0.0945 -0.0199
31637W        W47254   7.802  16.859  16.000  0.1242 -0.0718 -0.1153
31638W        W47255  14.010   9.197  16.845  0.1721 -0.0619 -0.1255
31639W        W47256   5.421   1.760   1.717 -0.3884 -0.0570  0.1966
31640W        W47257   5.059   6.810  12.257 -0.0179 -0.0736 -0.3495
31641W        W47258   9.862  13.225  13.139 -0.2824  0.0381  0.0287
31642W        W47259   9.069   3.733   3.407 -0.0131  0.5371 -0.0400
31643W        W47260  12.342   4.983  16.823  0.4380 -0.1100 -0.1716
31644W        W47261   8.432  12.571   4.065  0.2464  0.0550  0.2028
31645W        W47262  15.413  12.595  14.403  0.0398  0.0420  0.0384
31646W        W47263   1.183   9.946  15.985 -0.2172 -0.2330  0.1704
31647W        W47264   7.754  11.934  13.182  0.1049 -0.1449 -0.0836
31648W        W47265   2.027  15.673  13.124  0.0739  0.3049 -0.1281
31649W        W47266   8.980  13.319  12.940 -0.1698 -0.1947 -0.2802
31650W        W47267   4.374  10.992  15.378  0.0879 -0.2870  0.0148
31651W        W47268  14.441  12.522  14.585 -0.4563  0.1092  0.0060
31652W        W47269   4.186   0.369   2.065 -0.2984 -0.1939 -0.1724
31653W        W47270   8.376  14.081  13.554  0.0733 -0.0281 -0.2065
31654W        W47271  12.029  12.161   4.935 -0.2442  0.1256 -0.1169
31655W        W47272  16.152   1.295   3.880  0.2901  0.0098  0.1466
31656W        W47273   0.414   9.259  14.804  0.1753  0.0525 -0.1544
31657W        W47274  13.795   0.485   0.363  0.2274  0.1172  0.2923
31658W        W47275   9.159  17.528  10.175  0.4089  0.4309  0.0688
31659W        W47276   5.674  14.456   3.287  0.2571 -0.3108 -0.1557
31660W        W47277   2.930   9.636  16.109  0.3294  0.3706  0.2716
31661W        W47278   7.634   9.885   2.012 -0.0022  0.3103 -0.0720
31662W        W47279   6.520   2.558   2.204  0.0406  0.1460 -0.1563
31663W        W47280  11.115  17.165   0.515  0.0167  0.2554  0.0321
31664W        W47281  13.734  14.628  11.869  0.0277  0.0376 -0.1874
31665W        W47282   2.556   6.980   5.380  0.2570 -0.1667  0.1496
31666W        W47283   1.599   8.436  12.281 -0.2106 -0.0352 -0.0222
31667W        W47284  10.133  10.849  15.384 -0.0358  0.0035 -0.1095
31668W        W47285   8.606   3.136  13.592 -0.0187  0.2238  0.2653
31669W        W47286   1.180  15.553  14.069 -0.0600 -0.0405 -0.1283
31670W        W47287   7.870  13.804  14.203 -0.0768 -0.1701  0.0297
31671W        W47288  14.505   5.780   0.440 -0.2695  0.4145  0.1523
31672W        W47289  15.241   0.585  17.217  0.2220  0.1331  0.0724
31673W        W47290   7.110   0.625  11.780 -0.0618  0.2242  0.1426
31674W        W47291  15.261   3.489  12.451  0.0387  0.0345 -0.0646
31675W        W47292   5.764   9.733   6.418  0.2466  0.2727 -0.2092
31676W        W47293  16.937  14.450  14.324  0.1001  0.1768 -0.2260
31677W        W47294   5.891   6.641  13.320  0.3599  0.2796 -0.1118
31678W        W47295  15.116  10.121   3.452  0.0827  0.0010 -0.0193
31679W        W47296  16.846  15.195  11.281  0.0560 -0.1408  0.1327
31680W        W47297   1.245   1.622  14.105 -0.0131 -0.2826  0.0632
31681W        W47298   7.838   8.396  16.857  0.1465 -0.0515 -0.0950
31682W        W47299   4.165   7.364   3.131 -0.2528 -0.0241 -0.1269
31683W        W47300  10.627  14.394   2.413  0.1934  0.0572 -0.1450
31684W        W47301  11.954  16.060   1.944  0.1587 -0.1775  0.1371
31685W        W47302   1.503   3.577  15.737  0.2112  0.0437 -0.1814
31686W        W47303  11.377   2.500  15.789 -0.2962 -0.0875  0.2273
31687W        W47304  13.609   5.991  16.800 -0.0031  0.4370 -0.0879
31688W        W47305   3.338   0.995   1.466 -0.4067 -0.1306 -0.0663
31689W        W47306  13.331   1.690  13.963 -0.2733  0.0135  0.0509
31690W        W47307  10.912  13.943   4.716 -0.0040  0.0527 -0.2356
31691W        W47308   0.795   7.508  12.816 -0.1249  0.0725  0.1543
31692W        W47309   8.569   7.173  12.705 -0.1655 -0.0616  0.0893
31693W        W47310  15.538   1.945   5.823  0.0942  0.1111 -0.3986
31694W        W47311   7.835  11.309  13.728  0.1256 -0.1062  0.1257
31695W        W47312   1.170  11.524   5.402 -0.0979 -0.0692 -0.1450
31696W        W47313   2.465   7.254   1.090  0.0422  0.1118 -0.2680
31697W        W47314  13.154   3.105  15.882 -0.0364 -0.1255  0.0669
31698W        W47315   1.648   8.765  16.302  0.0831 -0.0699  0.1955
31699W        W47316   1.303   9.485  12.709  0.0165 -0.0900 -0.1833
31700W        W47317  14.777  10.299  17.042 -0.0861 -0.1791  0.2369
31701W        W47318   8.139   9.740   4.513  0.2351 -0.3139  0.0739
31702W        W47319   2.870  12.356  12.644 -0.1027  0.2069 -0.0278
31703W        W47320   8.583  17.347   3.189  0.1176  0.0815 -0.1367
31704W        W47321  10.091   5.336   1.283  0.0546 -0.0013  0.1888
31705W        W47322  17.114   6.520   1.626 -0.3277  0.1643  0.1184
31706W        W47323  15.445   1.700   4.108  0.1607 -0.0547  0.4054
31707W        W47324   4.658  16.358  12.273 -0.0317  0.0117 -0.0270
31708W        W47325   7.435   8.346  13.548  0.0540 -0.0985  0.2706
31709W        W47326   2.947   3.829   2.062 -0.3057  0.0463 -0.2496
31710W        W47327   0.617   4.527   6.783  0.0287  0.2115  0.1718
31711W        W47328   0.410   7.903  16.387 -0.0379  0.0724  0.0278
31712W        W47329  14.037   9.118  15.773 -0.2710 -0.4195 -0.0643
31713W        W47330   8.937  17.478  13.485 -0.0547 -0.3792 -0.0145
31714W        W47331   9.501   6.402   1.576 -0.2060 -0.2083  0.2045
31715W        W47332   0.177  16.145   2.613  0.0090  0.1013 -0.1335
31716W        W47333  17.479   3.672   4.915 -0.2195 -0.1392 -0.2489
31717W        W47334   7.478  14.916  13.965 -0.3340  0.0738  0.1925
31718W        W47335  13.613  13.231   4.887 -0.1677 -0.1559  0.2416
31719W        W47336   8.011  10.930   4.184 -0.0485 -0.1057  0.1202
31720W        W47337   9.660  16.348  13.098  0.0729 -0.3989 -0.2567
31721W        W47338   7.044   4.918  13.262  0.1732  0.1871  0.2359
31722W        W47339   7.082   6.295   3.125  0.2619  0.1550  0.1328
31723W        W47340  12.357   4.823  14.813  0.2817  0.0652 -0.0672
31724W        W47341   4.485  12.391   3.199  0.3571  0.0409 -0.0613
31725W        W47342   7.994   0.245  10.311  0.0612 -0.2419 -0.1749
31726W        W47343   1.176   5.559   2.209 -0.1513  0.1066 -0.2545
31727W        W47344  15.191   3.926   0.252  0.0116 -0.0364 -0.0209
31728W        W47345   9.302  14.151  12.132 -0.5662  0.1933  0.2214
31729W        W47346  11.736  13.356   2.147 -0.2728 -0.1558  0.0852
31730W        W47347   9.560  15.557   0.045 -0.0332 -0.1783  0.3120
31731W        W47348   6.424  16.769   1.565  0.1212 -0.2154  0.3088
31732W        W47349  14.499   7.373   5.138  0.3621 -0.0775  0.1783
31733W        W47350  11.289   6.758   2.674 -0.0664 -0.2125 -0.2419
31734W        W47351  15.998   9.380   5.938  0.0034  0.2252  0.0175
31735W        W47352  12.759  12.177  13.956 -0.0222  0.0888 -0.0442
31736W        W47353  15.040  12.094  16.739 -0.0373 -0.0940 -0.1843
31737W        W47354  13.165  14.309   4.888 -0.0008  0.2542 -0.0933
31738W        W47355  13.786   1.805   6.194  0.2390  0.2394 -0.0228
31739W        W47356   9.930   7.513   4.537 -0.1590  0.0888 -0.4327
31740W        W47357   3.951  10.430   0.421  0.2063 -0.2673 -0.1028
31741W        W47358  16.790   5.615   5.280 -0.2057  0.0281 -0.0823
31742W        W47359   4.739   5.733  13.138  0.1746 -0.1124 -0.0176
31743W        W47360  15.197  16.754   3.920 -0.3807 -0.0759  0.0341
31744W        W47361  14.514   2.057  13.908 -0.3195 -0.1126 -0.0758
31745W        W47362  10.005   0.458  14.562  0.0188  0.1864 -0.1530
31746W        W47363   9.828  10.206  16.837  0.0109  0.0032 -0.0678
31747W        W47364  11.769   1.948   1.797  0.1803 -0.0119  0.4471
31748W        W47365   9.988   1.786   1.119  0.0645  0.2700  0.0663
31749W        W47366   8.084   8.967  15.084  0.1831 -0.0303 -0.0274
31750W        W47367   2.659   8.819  13.658 -0.0696  0.1057 -0.2360
31751W        W47368   3.604  17.221  16.556  0.0729 -0.0057 -0.0416
31752W        W47369   5.967   1.830   5.145 -0.0824 -0.0357 -0.1115
31753W        W47370  11.371  11.735   0.373 -0.1693  0.4411 -0.7388
31754W        W47371   7.895   8.708  14.367 -0.1831  0.1635  0.0508
31755W        W47372   5.819   7.152  15.913  0.1797  0.0819 -0.1021
31756W        W47373   1.492  17.397   1.426  0.2609  0.1236  0.0781
31757W        W47374  11.258   7.252   1.956  0.1930  0.0768  0.2312
31758W        W47375   2.514   9.408  12.273 -0.1308  0.0854 -0.0090
31759W        W47376  14.791   6.061  16.449 -0.0740 -0.0897  0.0474
31760W        W47377   3.595  14.427  11.928  0.0089 -0.0601 -0.2197
31761W        W47378   6.264   8.753   2.504  0.0484 -0.1222  0.1162
31762W        W47379  11.652  11.401   6.479 -0.0354  0.2663  0.0984
31763W        W47380   7.577   3.525  11.741  0.2224  0.1303  0.0885
31764W        W47381   3.252  15.990  12.608  0.0765 -0.0741 -0.1193
31765W        W47382  11.264  12.272  16.900 -0.1020  0.3153 -0.1401
31766W        W47383  13.508   6.089   4.585  0.1362 -0.0542 -0.2719
31767W        W47384   2.815   7.288   3.517 -0.3844  0.2049  0.1626
31768W        W47385  15.449   6.756  14.021 -0.0250 -0.3174  0.2612
31769W        W47386  15.915   2.338  12.582 -0.0989 -0.0461 -0.0846
31770W        W47387  17.392   0.546  15.083 -0.0495 -0.0238 -0.0912
31771W        W47388   4.827   6.728  13.795 -0.1913  0.1695  0.0719
31772W        W47389  16.964   4.435  17.273  0.1689  0.0411  0.2777
31773W        W47390  11.768   7.107   4.772 -0.5494  0.0609 -0.4248
31774W        W47391  12.783  14.432  16.496 -0.0423  0.4801  0.1142
31775W        W47392  15.385  17.288  14.351 -0.1512 -0.1458 -0.2177
31776W        W47393   7.293   5.411   2.811  0.1077 -0.1725  0.1275
31777W        W47394   3.423   5.100   1.221 -0.1052 -0.1190 -0.1748
31778W        W47395  14.876  13.967  11.845 -0.3702  0.0730  0.0766
31779W        W47396  15.775   6.446   3.881  0.3863  0.1716 -0.1716
31780W        W47397   3.043  17.416   2.910 -0.2542  0.0795  0.1665
31781W        W47398   0.463  11.419   3.037 -0.3272 -0.1408  0.3137
31782W        W47399   8.039   2.920   5.980  0.1021 -0.0067  0.0254
31783W        W47400   9.423  12.520   3.625  0.1989  0.2012  0.2609
31784W        W47401  16.449   1.775   0.684 -0.0450  0.1487  0.0078
31785W        W47402  10.749   4.582   2.282  0.0048  0.0499 -0.2051
31786W        W47403   9.474  11.761   2.469 -0.0395  0.3682  0.0192
31787W        W47404   2.309  12.743   0.244  0.0943 -0.0019  0.1023
31788W        W47405  12.339  11.008   4.640 -0.1390  0.0525 -0.1576
31789W        W47406  12.960  15.474  15.267 -0.2904 -0.0369  0.1498
31790W        W47407   1.547  14.655   2.742  0.0302 -0.1379  0.1099
31791W        W47408   5.737   0.490  12.376  0.0225 -0.1173  0.0637
31792W        W47409   5.431  17.508  14.061 -0.2185 -0.3799  0.0728
31793W        W47410  16.213   7.320   0.740  0.1035 -0.0558 -0.1169
31794W        W47411   2.236   0.885   4.171  0.2243  0.2055 -0.1023
31795W        W47412   0.315  10.447   1.467  0.0385 -0.2449 -0.2154
31796W        W47413   9.750  16.689   5.408  0.0500 -0.0589 -0.3896
31797W        W47414   1.914  17.105  12.007 -0.2637 -0.1120 -0.3373
31798W        W47415  11.334  10.825  12.001  0.1592 -0.1702  0.0953
31799W        W47416   9.732   4.215  14.948  0.0893  0.0174  0.3531
31800W        W47417   9.493   5.365  14.281  0.1275  0.0686 -0.0259
31801W        W47418   2.701  10.976   3.114  0.3308 -0.1705 -0.0788
31802W        W47419  11.220   1.750   4.914  0.2027  0.0633  0.3484
31803W        W47420  17.189   9.908  14.339 -0.1818 -0.2244  0.0878
31804W        W47421  15.301   2.769   1.872  0.1153  0.0591  0.1436
31805W        W47422   8.880   3.998   0.012  0.1074  0.0032 -0.0551
31806W        W47423  16.645   5.431   0.388 -0.1597  0.2344 -0.1059
31807W        W47424  14.154  13.807  13.241  0.1671 -0.2113 -0.2671
31808W        W47425  16.813   5.464  14.154 -0.0056 -0.0973 -0.2943
31809W        W47426  14.388   1.350   1.007 -0.0114 -0.2801 -0.2179
31810W        W47427  12.056  13.080  11.426  0.0054  0.1703  0.4326
31811W        W47428   4.675   4.986  14.219 -0.1896 -0.1426 -0.0780
31812W        W47429   1.325   1.393  13.599 -0.0900  0.0265 -0.1624
31813W        W47430   2.549  17.323   4.939 -0.1792  0.1332  0.3058
31814W        W47431  16.112  14.375   2.362 -0.2282 -0.0778 -0.0599
31815W        W47432   4.212  17.596   1.130 -0.1244  0.1240 -0.0819
31816W        W47433   3.399   4.752  15.302  0.0613 -0.0749  0.3569
31817W        W47434   0.843   7.130  14.409 -0.0688 -0.2082  0.2146
31818W        W47435  10.593   3.068   3.084 -0.0672 -0.3137 -0.0441
31819W        W47436   0.749  15.280  11.037  0.1214 -0.1750  0.4071
31820W        W47437  11.460   1.115   5.447  0.2419 -0.5241 -0.2271
31821W        W47438  11.643  12.119   0.058 -0.1402 -0.0805 -0.1403
31822W        W47439   9.822   4.357  11.728  0.0925  0.0403 -0.3564
31823W        W47440   9.749  13.299   4.899  0.0990 -0.0740 -0.0649
31824W        W47441  12.367  13.204   1.326 -0.3119  0.0242 -0.1204
31825W        W47442  14.042  14.876   5.105  0.0816 -0.0613  0.4289
31826W        W47443  16.012  10.091   3.802  0.0124  0.0824 -0.1473
31827W        W47444   6.891   7.197  17.157  0.2491  0.2077  0.1644
31828W        W47445   3.671   9.114   0.636  0.3053 -0.2581  0.0362
31829W        W47446  13.651   6.029   1.549  0.1148  0.0792 -0.0923
31830W        W47447  14.821   0.856  17.285  0.0234 -0.0892  0.0509
31831W        W47448   2.372   2.316  12.037  0.3104 -0.0115 -0.1180
31832W        W47449  15.581   4.260  16.119 -0.1737  0.1870  0.0162
31833W        W47450   9.719   2.034   4.200 -0.1143  0.1998 -0.3412
31834W        W47451  11.535  13.351  16.096 -0.0046  0.1770  0.0442
31835W        W47452  15.169   6.832   3.172 -0.1977  0.0303  0.0654
31836W        W47453   7.949   3.301  12.471 -0.2391 -0.1985  0.0632
31837W        W47454  12.510  16.091   5.203  0.0239  0.1979 -0.0813
31838W        W47455  14.662   5.645  16.766 -0.2627  0.0732 -0.1398
31839W        W47456   5.367   4.182  15.770  0.0342 -0.2248 -0.1852
31840W        W47457  15.172  14.729   0.438  0.2425 -0.0010 -0.3719
31841W        W47458   3.934   9.481  15.679  0.3274  0.2643  0.3379
31842W        W47459   6.887   0.266  16.498 -0.0549  0.1837  0.1159
31843W        W47460  12.302   3.785  12.209  0.2970 -0.0339  0.0111
31844W        W47461  11.541  13.705  12.212 -0.0618  0.1029  0.3432
31845W        W47462   8.296  14.113  12.877 -0.3042  0.1769 -0.1856
31846W        W47463  13.566   7.756   1.961 -0.0235 -0.0175  0.3146
31847W        W47464  13.478  16.184  16.852 -0.1903 -0.0249 -0.4213
31848W        W47465   1.270   9.400   2.580 -0.1939 -0.1657 -0.1902
31849W        W47466  13.694   3.985   6.367  0.0667 -0.3880 -0.2393
31850W        W47467  11.578   8.218  12.760  0.0176  0.3317 -0.0146
31851W        W47468   8.076  10.646   5.526  0.2303 -0.1439  0.3221
31852W        W47469   1.292  15.158  12.120 -0.0431  0.1144 -0.4255
31853W        W47470   9.018  15.629  17.014 -0.2460  0.1099  0.4021
31854W        W47471  12.659   7.828  12.090  0.2003 -0.0868 -0.1331
31855W        W47472   7.497  15.270   3.616  0.1086 -0.0628 -0.0365
31856W        W47473   1.459  13.767   3.893  0.1045 -0.2888 -0.0499
31857W        W47474   7.376   1.813   1.085 -0.0065 -0.2655  0.1839
31858W        W47475   7.426  15.149  10.707  0.1942 -0.0252 -0.2249
31859W        W47476  10.355  11.201  12.898 -0.1397  0.2448 -0.1208
31860W        W47477  12.381   9.685   4.595  0.1291 -0.3127 -0.1554
31861W        W47478   9.947  11.475   3.737  0.1635 -0.2324  0.0344
31862W        W47479   9.607   1.826  14.791 -0.0945 -0.1185 -0.1054
31863W        W47480  17.146   8.661  14.060 -0.0325  0.0808  0.0642
31864W        W47481   8.650   2.527  16.857 -0.0769 -0.0022  0.0459
31865W        W47482  10.726  11.895  14.091  0.2132  0.0702 -0.0248
31866W        W47483   6.988   4.038   0.395  0.2137  0.0862  0.0488
31867W        W47484  13.191  11.611  12.894 -0.0251  0.1107  0.3073
31868W        W47485  11.449   4.919  15.271 -0.1012 -0.0947 -0.3194
31869W        W47486  12.854   8.211  14.545  0.0598  0.1702 -0.0275
31870W        W47487  12.522   3.414  13.507 -0.0413 -0.0383 -0.0479
31871W        W47488  11.944  14.759   5.658 -0.1463  0.2988  0.3649
31872W        W47489  13.186   8.005   6.644 -0.0052 -0.2177 -0.0861
31873W        W47490   1.134   4.455  16.341 -0.1040 -0.0716 -0.0577
31874W        W47491   5.092  15.697  14.872 -0.2500  0.2571 -0.0547
31875W        W47492   0.696   6.845  14.897 -0.1387 -0.1532  0.0472
31876W        W47493   7.643   8.323   2.178 -0.2680 -0.1429 -0.1718
31877W        W47494   9.876  15.636  16.022  0.2769 -0.2528 -0.0588
31878W        W47495   1.970   9.627   0.196  0.1015 -0.1194 -0.1088
31879W        W47496  14.314  16.291  12.902  0.0002 -0.0420  0.2370
31880W        W47497   9.118   6.183  13.538  0.2628 -0.0420  0.0224
31881W        W47498   3.146   0.686  15.223  0.3001  0.4789 -0.0711
31882W        W47499  13.731   0.394  16.894 -0.0867 -0.1255 -0.0033
31883W        W47500  10.284   1.274   3.708 -0.1018  0.0829  0.2170
31884W        W47501   4.597   6.324  12.671 -0.2914 -0.0683 -0.0650
31885W        W47502   4.878   3.837   4.453 -0.0198  0.0389  0.1821
31886W        W47503  13.013   0.864  12.082  0.0853  0.0326 -0.0834
31887W        W47504  11.784  13.102   0.923  0.0471 -0.0647 -0.1733
31888W        W47505   9.052  12.164  13.841  0.0796  0.1632 -0.3739
31889W        W47506   1.659  15.198  14.048 -0.0365  0.0595  0.1251
31890W        W47507   4.693  13.452  13.322 -0.1065  0.1450 -0.3806
31891W        W47508  13.821   3.342  15.743  0.2209  0.2246  0.2287
31892W        W47509   3.990   4.972   1.344 -0.1052  0.1788  0.0550
31893W        W47510   8.093   0.278   2.138  0.0554  0.3165 -0.1190
31894W        W47511   8.274  16.366   0.169  0.0613 -0.1188  0.1633
31895W        W47512  12.964  10.599  14.043  0.0260  0.1273  0.1788
31896W        W47513   8.510  15.476   0.324  0.2066 -0.0112 -0.1462
31897W        W47514   1.373  13.579  15.157  0.1851 -0.0025 -0.0300
31898W        W47515   6.870   1.390   0.055 -0.2245  0.1790 -0.0212
31899W        W47516  16.538   0.804  11.213 -0.1152 -0.1072  0.0261
31900W        W47517   9.058   8.948  12.014  0.1644  0.1821  0.1799
31901W        W47518   9.791   0.454  13.021 -0.1320 -0.1103  0.1760
31902W        W47519  13.524  16.006  16.337 -0.0374 -0.1470  0.1005
31903W        W47520  17.128  13.931   4.907  0.0020  0.0036  0.0604
31904W        W47521   9.544   3.978   2.068  0.0071  0.0389  0.1182
31905W        W47522   0.237   2.203  12.019 -0.0617  0.1132  0.0032
31906W        W47523  15.096   8.330  13.248  0.2658 -0.1305  0.1653
31907W        W47524   8.776   8.607  15.499 -0.2189  0.1108 -0.0360
31908W        W47525  15.289   5.643   3.592 -0.2175  0.0510 -0.1126
31909W        W47526  10.894   5.771   0.651 -0.1296  0.0751 -0.0334
31910W        W47527  11.491   3.207  11.431 -0.0572 -0.0687 -0.3073
31911W        W47528   7.816   0.943  11.255  0.2583  0.3348  0.0405
31912W        W47529  15.967   0.843   4.093  0.0100  0.0017  0.0559
31913W        W47530   8.997   0.270  16.829  0.0786 -0.0666 -0.1243
31914W        W47531   1.488   4.384  16.790  0.1311  0.0948  0.0947
31915W        W47532  15.629   0.881  14.662  0.0176  0.1434 -0.2398
31916W        W47533  14.176  15.584   4.805 -0.0813 -0.1148  0.2403
31917W        W47534   8.338  16.030   3.923  0.0081  0.1613  0.1136
31918W        W47535   8.127  13.720  13.735 -0.1952  0.0419 -0.0578
31919W        W47536  14.709   0.627  14.616  0.3162 -0.0085  0.0826
31920W        W47537   9.096  11.635   0.961  0.1221  0.1048  0.2496
31921W        W47538   2.328  17.164  16.392  0.0733  0.3139  0.1344
31922W        W47539  12.592  11.859  12.045  0.0301  0.1153 -0.0633
31923W        W47540  12.262  15.796   2.266  0.3819 -0.0189  0.0892
31924W        W47541  15.401  13.486  15.924  0.2836 -0.3068 -0.0981
31925W        W47542  10.603  11.945  12.993  0.2614 -0.2197 -0.0080
31926W        W47543   1.253   0.577  15.768  0.0775  0.1909  0.0341
31927W        W47544  15.476  13.724  13.800 -0.0448 -0.0417  0.0736
31928W        W47545   4.929   7.552  11.991 -0.0402  0.4012  0.0845
31929W        W47546   4.166   6.640  13.316  0.0315 -0.1421 -0.0054
31930W        W47547   2.580   3.246  15.077  0.0925 -0.1978 -0.0551
31931W        W47548   5.653   6.395   3.926  0.1467  0.2506 -0.1526
31932W        W47549   2.275   9.728  15.589 -0.1737  0.1275 -0.0571
31933W        W47550   4.490  10.645  16.679  0.0006 -0.0469  0.0347
31934W        W47551  15.172   4.017  16.338 -0.3497 -0.2408  0.1204
31935W        W47552   3.425  16.293  13.158  0.0422  0.0845 -0.2210
31936W        W47553   5.933  15.373  16.693 -0.1006 -0.1185 -0.3514
31937W        W47554  16.518   9.093  16.215 -0.2573 -0.2786 -0.0034
31938W        W47555   0.981   3.498  15.675  0.0848  0.2070  0.0328
31939W        W47556  13.455   1.272  13.048 -0.2321  0.2440  0.0258
31940W        W47557   2.569   1.706  15.837 -0.0410  0.1108 -0.0309
31941W        W47558   8.904   7.779  15.003 -0.0301  0.2588  0.2177
31942W        W47559  12.596   0.636  14.551  0.0392 -0.1527 -0.2012
31943W        W47560   4.588  13.086  16.908 -0.0935 -0.1541  0.3111
31944W        W47561  13.469   4.064   2.187  0.2123  0.1726  0.0101
31945W        W47562   5.911  14.430  12.221  0.0053 -0.2475  0.0223
31946W        W47563   8.019   8.189   5.218  0.0290  0.2991 -0.1839
31947W        W47564   8.093  13.653   0.065  0.0524  0.2206  0.0472
31948W        W47565   5.115  15.276   0.357  0.1519 -0.0691 -0.1279
31949W        W47566   8.443   5.699   1.890 -0.1918 -0.3338 -0.0497
31950W        W47567  12.214  10.549   2.848 -0.2655 -0.0848 -0.1508
31951W        W47568   7.766   9.256  14.711  0.1251  0.1812 -0.2319
31952W        W47569  15.289  11.457   4.048  0.1132 -0.0885 -0.1413
31953W        W47570   2.416   9.903   5.364  0.0238 -0.3613  0.2218
31954W        W47571   7.521   6.241   3.381 -0.3092 -0.1054  0.1013
31955W        W47572   1.481  14.021  16.488 -0.2930 -0.1445  0.1331
31956W        W47573  12.691   8.183  13.122 -0.1608  0.1385 -0.1480
31957W        W47574   3.516  12.605   3.818 -0.2787 -0.0739 -0.1646
31958W        W47575  11.202  14.409  15.814  0.2891 -0.0486 -0.1102
31959W        W47576  13.235   7.710   0.509 -0.0016 -0.3721  0.0018
31960W        W47577  17.457  10.696   0.204 -0.2306 -0.1039  0.1325
31961W        W47578   9.517  12.614   1.110  0.0471 -0.0640 -0.2224
31962W        W47579  14.204   5.845  16.667  0.1229 -0.3213  0.1745
31963W        W47580   8.446  11.253  12.475  0.1539 -0.0873  0.3405
31964W        W47581  17.285   7.906  13.609 -0.1019 -0.0619 -0.1952
31965W        W47582   2.287  15.009  12.605 -0.2468 -0.1388 -0.0699
31966W        W47583  17.262   1.425  13.684 -0.2735 -0.0129  0.0506
31967W        W47584  16.676  10.920   4.482  0.1704  0.1392 -0.2459
31968W        W47585   3.725   5.682   6.060  0.1112 -0.0681  0.0152
31969W        W47586   3.248  12.285  16.001  0.0480 -0.0738  0.2217
31970W        W47587  13.781   8.976   4.526  0.1696  0.0511 -0.1309
31971W        W47588  15.005  14.989   4.483  0.0666 -0.1313  0.4937
31972W        W47589  10.321   5.461   3.163  0.1402 -0.0523 -0.0836
31973W        W47590  14.454  11.163   5.556  0.2048 -0.0628 -0.2600
31974W        W47591  11.887   8.240  15.704  0.1385  0.1398 -0.2441
31975W        W47592   3.030   1.993  15.872  0.1869 -0.0343  0.4234
31976W        W47593  12.712   6.537  16.169 -0.0100  0.1609  0.3185
31977W        W47594  15.466  16.707   2.859 -0.1934 -0.1800  0.0334
31978W        W47595   5.882   4.004   1.132 -0.1763  0.1679 -0.0811
31979W        W47596  13.031   3.541   3.195  0.1503 -0.1488 -0.0792
31980W        W47597   5.162  15.784   0.343  0.1689  0.0980  0.1305
31981W        W47598   9.062  16.862  13.955  0.1089  0.1885 -0.1012
31982W        W47599  17.017  11.953  13.571  0.3997  0.1710  0.0759
31983W        W47600  12.528   0.350  13.559  0.3261  0.2900  0.0066
31984W        W47601  12.721  10.930  13.579 -0.0135 -0.2562  0.0936
31985W        W47602  13.756   3.210  14.692 -0.0130  0.0876  0.1120
31986W        W47603   0.670   8.848  13.839  0.3884 -0.0418 -0.0221
31987W        W47604   1.965   9.550  15.935 -0.1432 -0.1769  0.1203
31988W        W47605   1.881   2.683   3.492 -0.0585 -0.2183 -0.0238
31989W        W47606   8.146  10.178  13.905  0.0909  0.0605  0.2976
31990W        W47607   7.650  11.575  17.291  0.2409  0.1238  0.2045
31991W        W47608   4.371   8.996  17.232  0.0731  0.2885  0.2547
31992W        W47609   4.986   4.658   0.473  0.0473  0.0517 -0.2400
31993W        W47610  14.949  10.442   0.149  0.3827  0.2344 -0.0461
31994W        W47611  12.325  10.858   0.467  0.2095  0.1957  0.0771
31995W        W47612  13.789   9.977   2.101 -0.1398 -0.2405  0.1039
31996W        W47613  16.076   3.629   2.017  0.1562 -0.0350  0.0213
31997W        W47614  15.848  13.553  16.701  0.1102 -0.0634 -0.1429
31998W        W47615  13.856   2.589   1.594 -0.1626 -0.0351 -0.2589
31999W        W47616   3.350  10.926   1.610  0.0708 -0.2136 -0.0172
32000W        W47617   7.141   3.984  17.229 -0.1535  0.2418  0.2557
32001W        W47618  13.910   7.979   1.644  0.3122 -0.1139 -0.1982
32002W        W47619  12.136  11.935  16.626  0.0775  0.0296  0.0805
32003W        W47620   3.117  16.552  16.413 -0.3429 -0.1465  0.1389
32004W        W47621  14.163   7.009   5.360  0.2064  0.1778  0.1342
32005W        W47622   7.490  14.866  15.153  0.0587  0.2546 -0.0562
32006W        W47623  16.420   1.408  12.684  0.1990 -0.0363  0.0886
32007W        W47624  15.612  17.470  12.997  0.0591  0.0012  0.0887
32008W        W47625  12.579   2.167   4.259 -0.2144 -0.1595  0.0471
32009W        W47626  14.031   4.936  17.203  0.1031 -0.0709 -0.2188
32010W        W47627   6.069   1.738   2.515 -0.1201  0.2121 -0.1865
32011W        W47628   1.957  16.504   0.408 -0.0537  0.2166  0.0816
32012W        W47629  16.547   3.093   6.083  0.1278 -0.0610  0.3101
32013W        W47630  11.663   5.060  13.195 -0.0100  0.1929 -0.1682
32014W        W47631  13.795  15.600   4.474 -0.1072 -0.1720 -0.2419
32015W        W47632  16.832   6.771   5.997  0.3292 -0.0173 -0.1327
32016W        W47633   3.772   9.482   4.539 -0.0500  0.1815  0.0220
32017W        W47634  17.614  11.760  14.886 -0.1991 -0.2266  0.1035
32018W        W47635   0.072  15.489  14.031  0.1240  0.0224  0.2014
32019W        W47636  15.872   4.892   6.950  0.0309  0.0176  0.2223
32020W        W47637   1.783  16.178   4.388  0.0107 -0.1321  0.1926
32021W        W47638  11.798   9.083  14.149  0.0148  0.1021  0.1552
32022W        W47639   2.191   9.482   2.074 -0.0356  0.1827 -0.1971
32023W        W47640   0.196  11.822   1.666  0.2211  0.1536 -0.0842
32024W        W47641   6.619  15.480   0.144 -0.0125 -0.1302  0.0038
32025W        W47642   3.121   0.956   3.347  0.2626  0.0656  0.0140
32026W        W47643   7.104   2.212   4.254 -0.1018 -0.2710 -0.1386
32027W        W47644   9.103   1.703   0.691  0.1118 -0.2115 -0.1718
32028W        W47645   7.530   9.548  14.329  0.0977 -0.1838 -0.2404
32029W        W47646   9.944   7.964   3.220  0.0639 -0.2729 -0.1430
32030W        W47647  16.253  15.231   5.445  0.0621 -0.0973 -0.1465
32031W        W47648   1.193   8.606  16.487 -0.2864 -0.0861  0.1639
32032W        W47649  15.876   3.551   0.676  0.3171  0.0785  0.2066
32033W        W47650   8.805   2.435   3.616  0.3340  0.0704 -0.2430
32034W        W47651  16.732  17.366  15.099 -0.1601  0.2087 -0.1282
32035W        W47652   1.035   2.298   3.859 -0.2332  0.0838  0.0794
32036W        W47653   7.582   0.426  11.714  0.0064  0.2614  0.1609
32037W        W47654   0.927  12.329   1.053  0.2631 -0.0567  0.2226
32038W        W47655   0.765  12.832  12.052 -0.1348 -0.1503  0.0567
32039W        W47656   0.870  11.058  16.128  0.1317 -0.0907 -0.0081
32040W        W47657   1.571  12.310  15.794 -0.0036  0.0401  0.2981
32041W        W47658   3.602   7.976   0.823  0.2609 -0.0514  0.3146
32042W        W47659  12.902   8.836  12.963 -0.1167 -0.1570 -0.1215
32043W        W47660  16.580   4.569  12.277  0.2737 -0.0754  0.0709
32044W        W47661  14.059   0.078   0.947  0.0812 -0.2676  0.0845
32045W        W47662   8.999   5.319   0.218 -0.3365  0.0541  0.2552
32046W        W47663  15.670  14.871  13.131 -0.1379 -0.0109  0.3509
32047W        W47664  11.739   3.347   2.133  0.1927  0.0520  0.0118
32048W        W47665   8.473  11.681  16.130 -0.0300 -0.5000  0.2961
32049W        W47666   3.499  13.930  15.547  0.1770 -0.2034 -0.0014
32050W        W47667  15.324   8.545  12.331  0.0778 -0.3639  0.0126
32051W        W47668   0.603  16.322   1.711 -0.0356 -0.0455 -0.3041
32052W        W47669   9.332  16.220   2.079  0.0234  0.0532 -0.0388
32053W        W47670  12.295   8.818   6.245 -0.0194  0.1915 -0.0643
32054W        W47671  11.493   4.277  15.739  0.0950 -0.2585  0.2011
32055W        W47672  13.469   9.101   2.697  0.1475  0.1004  0.0842
32056W        W47673  10.088  15.334  16.901  0.1022  0.1209 -0.0754
32057W        W47674  16.637   9.529   1.034 -0.2549 -0.0276  0.1204
32058W        W47675  11.848  13.513  11.297  0.1783 -0.0044 -0.2232
32059W        W47676   8.991   6.511  15.415  0.0671 -0.0451 -0.0799
32060W        W47677  10.980   4.386   5.955  0.2076  0.4086  0.2479
32061W        W47678   2.910  16.877   4.195  0.2561 -0.1014 -0.0561
32062W        W47679  15.876  15.015  14.493  0.0302  0.0558 -0.1310
32063W        W47680  12.034  14.284   5.387  0.1272 -0.1653  0.0097
32064W        W47681  11.560   6.308   0.202 -0.0546  0.0227  0.1415
32065W        W47682   8.226  13.793  16.313  0.4441  0.3313  0.0690
32066W        W47683  16.219   4.827   1.614  0.2820  0.2791  0.1000
32067W        W47684  11.593   9.542  14.820 -0.0574  0.0922 -0.1504
32068W        W47685   1.921   8.810   4.929 -0.0933  0.2080 -0.3569
32069W        W47686   1.518  16.137  13.853 -0.1503  0.2019  0.1795
32070W        W47687   4.435   4.118   0.219 -0.0143 -0.1418 -0.2244
32071W        W47688   1.053  10.306   2.598  0.1775  0.1228  0.3849
32072W        W47689  14.272   0.090   3.710  0.2949  0.0042  0.0005
32073W        W47690   7.045  15.154  13.091  0.0324  0.2377  0.0343
32074W        W47691   2.493   0.373  13.861 -0.0511 -0.1017 -0.0225
32075W        W47692  17.496  13.888   5.215 -0.0988  0.2816 -0.2632
32076W        W47693   1.757  17.527   5.433  0.0179  0.2505 -0.1526
32077W        W47694   3.784   4.010   2.145  0.0702 -0.0089 -0.0610
32078W        W47695   3.136   2.792  13.767 -0.6064  0.1374 -0.1692
32079W        W47696   5.354  14.040   5.108  0.1277 -0.2527  0.1753
32080W        W47697  17.420  14.962   4.283  0.0319 -0.1164  0.0076
32081W        W47698  14.089   2.113  16.251  0.1506  0.2719  0.1384
32082W        W47699   5.872  15.680   2.228 -0.1326 -0.1008 -0.0015
32083W        W47700   9.582   6.702   1.969 -0.0368  0.1015 -0.0258
32084W        W47701  17.159  12.028  15.932 -0.3731 -0.3207 -0.1713
32085W        W47702  16.894  15.138  12.375  0.0863  0.0598  0.0557
32086W        W47703  10.289   3.138  13.414  0.2006 -0.0842 -0.0372
32087W        W47704  14.685  11.895   5.835  0.1932  0.0920 -0.1506
32088W        W47705  16.058   5.165   4.250 -0.0410 -0.0186 -0.0742
32089W        W47706  13.810   1.361  13.388 -0.0417 -0.0012 -0.1220
32090W        W47707  17.133   3.193  15.303 -0.2279  0.2310  0.1509
32091W        W47708   0.943  13.945  16.377  0.2106  0.0592  0.2046
32092W        W47709   8.449  13.840   3.110  0.2732  0.0774  0.0766
32093W        W47710   2.852  17.265   1.673  0.0413 -0.2351  0.0168
32094W        W47711   8.185   5.676   4.990  0.0102  0.1411  0.0607
32095W        W47712  12.122   6.136   2.279 -0.0167 -0.2023 -0.1736
32096W        W47713  15.517  14.244  16.161  0.0992  0.0784  0.1742
32097W        W47714   1.681  10.881  15.864 -0.0137 -0.1198 -0.1469
32098W        W47715  12.853   2.938  14.184  0.1062  0.0635 -0.0799
32099W        W47716   4.896   4.561  14.411 -0.1838 -0.0461  0.3623
32100W        W47717   1.281   5.594   6.378  0.1292  0.2333  0.1030
32101W        W47718   2.393  12.205  12.690 -0.3307 -0.0172 -0.0154
32102W        W47719   0.076   5.208   4.372 -0.1892  0.1724 -0.0281
32103W        W47720  14.767   2.052  12.024  0.0650  0.1385  0.1500
32104W        W47721   2.122  11.164   2.321  0.1267 -0.0006 -0.0453
32105W        W47722  13.919   4.088   5.309  0.1584  0.1913  0.2888
32106W        W47723  14.447   6.913   0.716 -0.3327  0.1668 -0.1572
32107W        W47724  15.818   7.512   2.317 -0.2403  0.0787 -0.1720
32108W        W47725   6.554   9.664   5.096  0.1912  0.1431  0.1257
32109W        W47726   9.006  15.865   4.696 -0.1608 -0.1658  0.1462
32110W        W47727  15.287  10.598  12.934  0.1383  0.2314  0.1629
32111W        W47728  17.543  12.890   4.851 -0.1131  0.0233  0.0652
32112W        W47729  12.354  17.009   1.294 -0.0252  0.1561 -0.2122
32113W        W47730  13.823   1.282  11.798  0.1730 -0.1817 -0.0565
32114W        W47731  12.756  17.340   0.402  0.0550  0.3176  0.3187
32115W        W47732   1.951  17.103  12.559  0.1340 -0.0364  0.0330
32116W        W47733   8.423   3.189   5.585  0.2794  0.0754 -0.0193
32117W        W47734  16.369  15.379  12.313  0.2268 -0.0641 -0.4513
32118W        W47735  13.750   1.583   1.434  0.0916 -0.1893  0.0646
32119W        W47736  16.518  15.623   5.446 -0.3848  0.1679 -0.1835
32120W        W47737  10.688  11.894   1.564  0.1771  0.1074 -0.0407
32121W        W47738   4.003  14.640   3.085 -0.1966 -0.0278 -0.0110
32122W        W47739   5.260   0.730   1.974 -0.2773  0.0886 -0.1536
32123W        W47740   5.220   7.067   2.966 -0.0381 -0.1104 -0.1734
32124W        W47741   6.788  10.962  15.294 -0.1425  0.1795  0.0044
32125W        W47742   8.363   4.567  13.645 -0.0369 -0.2640 -0.0461
32126W        W47743   1.351   1.240  15.217 -0.2846 -0.3219 -0.3777
32127W        W47744  14.707   3.781   6.144  0.2621 -0.0619 -0.3130
32128W        W47745  15.089  11.133   5.041  0.0497  0.1097 -0.0236
32129W        W47746   4.061  15.090   3.433  0.2749 -0.1724 -0.2177
32130W        W47747   8.130   9.260  16.354  0.3931 -0.2861 -0.0136
32131W        W47748   6.113   9.637  17.063  0.0414 -0.0442  0.0165
32132W        W47749  13.459  12.381  13.712  0.2567 -0.2476 -0.3785
32133W        W47750   6.392   1.052  13.459 -0.0903 -0.2347  0.0937
32134W        W47751   6.905   4.775  14.739  0.0321  0.0310 -0.0458
32135W        W47752   3.963   5.868   5.098  0.2364 -0.1874 -0.0981
32136W        W47753   4.066   5.162  16.622  0.2563  0.4126  0.1331
32137W        W47754   2.525   9.669  14.031  0.0963 -0.0714  0.0176
32138W        W47755   6.611  16.994   5.355  0.0542 -0.1028  0.0826
32139W        W47756  13.392   0.295  14.275 -0.2636 -0.0340  0.1226
32140W        W47757  13.297   7.136  13.060  0.1694  0.0369  0.0584
32141W        W47758  14.455   2.917  16.793 -0.2412  0.0366  0.2000
32142W        W47759   1.831   0.815   4.936 -0.1438  0.0118 -0.0177
32143W        W47760  16.697   4.914   6.633  0.1900  0.3658 -0.0686
32144W        W47761   3.381   1.371   1.946 -0.2914  0.1832 -0.0575
32145W        W47762  16.581  12.717  12.314 -0.0816  0.2192 -0.2080
32146W        W47763   0.658  16.821  17.038 -0.0803 -0.0006 -0.0107
32147W        W47764   5.528   8.087   3.133 -0.2147 -0.1988 -0.0018
32148W        W47765  12.873  14.420   0.637 -0.2771 -0.0041 -0.1727
32149W        W47766  16.009   1.135  14.409  0.1424 -0.4086 -0.1313
32150W        W47767  15.908   6.930   4.186  0.1413  0.1631  0.1867
32151W        W47768  12.754   8.615   5.517 -0.0480 -0.2439 -0.2372
32152W        W47769  12.185   4.367  14.666  0.0678  0.0993  0.0652
32153W        W47770   7.436   7.368   1.066  0.3211 -0.2065  0.4076
32154W        W47771  11.353  17.616   5.506 -0.1877  0.1490 -0.1410
32155W        W47772  14.327   9.254   5.770  0.3839 -0.0577  0.1427
32156W        W47773  10.199   8.619   2.434  0.1225  0.3871 -0.0428
32157W        W47774   7.690   2.720   6.272 -0.1939  0.2872  0.0708
32158W        W47775   2.087   2.070   0.167  0.4084  0.1000 -0.0471
32159W        W47776  13.725  15.903   4.865 -0.4485  0.0366  0.1852
32160W        W47777   4.286  11.676   1.088 -0.2853 -0.1934  0.2256
32161W        W47778  16.785   0.345  13.874  0.1241  0.0412  0.1089
32162W        W47779   5.911   0.935   2.418  0.0094  0.0312  0.1900
32163W        W47780  17.218   3.016   3.304 -0.2252 -0.2509 -0.2448
32164W        W47781  16.511  12.787  16.094 -0.0815  0.0089  0.0910
32165W        W47782   6.215  14.876   3.447 -0.0353  0.3755 -0.0811
32166W        W47783   1.667  11.044   2.169 -0.3412 -0.0160  0.0449
32167W        W47784   1.877   4.693   3.864  0.0404 -0.2491  0.2441
32168W        W47785   6.320   6.293   1.136 -0.0657 -0.1736 -0.2010
32169W        W47786   7.700  14.178   2.207  0.1901 -0.4501 -0.0358
32170W        W47787   4.814   6.057  15.820  0.0459  0.0258  0.0216
32171W        W47788  13.777   2.959  16.576 -0.0260  0.0418  0.2367
32172W        W47789  12.929  11.053   4.877 -0.1705 -0.0174 -0.3411
32173W        W47790  16.630  11.851   1.950  0.2869  0.0363 -0.1331
32174W        W47791   7.431   3.861  15.758 -0.3091 -0.0051  0.1457
32175W        W47792   7.115   3.608   3.600 -0.0926  0.3202  0.2512
32176W        W47793  11.601   7.588   1.179 -0.1091  0.0456 -0.1670
32177W        W47794   4.676  13.517   5.030 -0.0218  0.0013  0.2094
32178W        W47795   8.588   6.798  16.570 -0.0271 -0.2611  0.1804
32179W        W47796   9.436   3.048  14.007  0.1613  0.1006  0.0059
32180W        W47797   7.125   7.637  17.196  0.0517 -0.2224  0.1606
32181W        W47798  10.501  14.347  12.788 -0.1394 -0.0099  0.4255
32182W        W47799  14.926   5.567   4.574 -0.1204 -0.1979  0.1408
32183W        W47800  13.619  11.445   7.032  0.0340  0.3267 -0.1787
32184W        W47801   7.851   4.994   3.966  0.1958 -0.0388 -0.1183
32185W        W47802   8.326  11.965   1.916 -0.0120 -0.0211 -0.1792
32186W        W47803   0.222   1.625  13.787 -0.2359  0.2325 -0.0564
32187W        W47804  15.971  16.456  17.235  0.3600  0.0503  0.0770
32188W        W47805   7.302   1.122  11.038  0.1145  0.0282 -0.2927
32189W        W47806  12.035  15.629  16.651  0.1691 -0.0001 -0.2776
32190W        W47807  11.076  10.922  15.865 -0.0211  0.0187 -0.0636
32191W        W47808   4.372  16.673  11.994 -0.2388  0.0239 -0.1749
32192W        W47809  14.622   5.527  12.557  0.0592 -0.3513  0.0142
32193W        W47810  14.061   8.495   1.836 -0.0142  0.1263 -0.1350
32194W        W47811   8.466   6.235  13.246  0.0497 -0.2888  0.2606
32195W        W47812   7.791  11.395   4.003 -0.3502  0.3142  0.0163
32196W        W47813  10.839   8.158   3.017  0.1023 -0.0310  0.0455
32197W        W47814   7.224   6.184  13.737 -0.0323 -0.0144  0.0073
32198W        W47815  15.195  13.839   4.352  0.3806 -0.4205  0.0081
32199W        W47816  16.776   5.497  17.143  0.0698 -0.0757 -0.0233
32200W        W47817  12.546  10.604  16.790  0.0923 -0.0214 -0.0174
32201W        W47818  15.289   2.182   2.894 -0.1708 -0.0283 -0.2615
32202W        W47819   6.897  11.987  11.814  0.1460 -0.1061 -0.1525
32203W        W47820  10.776  16.117  16.760  0.2082 -0.0630  0.0019
32204W        W47821  14.825   3.751   5.026  0.0141 -0.0924  0.0129
32205W        W47822  15.720  16.163   4.416  0.0306  0.1983  0.1903
32206W        W47823   7.222   3.655   1.216  0.0668  0.1014 -0.1433
32207W        W47824   2.093   7.555   1.123  0.2254 -0.1536 -0.3921
32208W        W47825  15.853   6.103   5.397  0.1593 -0.1255  0.0939
32209W        W47826   3.531   2.463  14.089  0.0567 -0.0754 -0.2530
32210W        W47827  11.343  14.386   1.714 -0.3595  0.0626  0.1748
32211W        W47828   5.703   6.343  14.895  0.0261 -0.1568  0.3670
32212W        W47829  10.061  17.266   1.881  0.2668 -0.0788 -0.0256
32213W        W47830   3.082  16.237   5.854 -0.0559 -0.1598 -0.2987
32214W        W47831   8.188   2.717   4.444 -0.2261  0.2735  0.0137
32215W        W47832  14.109   1.757  11.320 -0.3118 -0.0628  0.1040
32216W        W47833  10.033   2.954   3.905  0.0771 -0.1878 -0.1951
32217W        W47834  16.981   2.968   2.804 -0.0983  0.0336  0.3227
32218W        W47835  10.912   3.814  12.985 -0.0915 -0.0041  0.2502
32219W        W47836   2.413   8.748  11.743  0.0338 -0.1432 -0.2296
32220W        W47837  15.610   1.099  10.735 -0.0796 -0.1381  0.0584
32221W        W47838   3.122   1.192   1.085  0.1162  0.2445 -0.0531
32222W        W47839   3.458  16.794  12.992  0.2074  0.0267  0.2297
32223W        W47840   9.712  12.909  13.512  0.0978 -0.0252 -0.2022
32224W        W47841   3.570   9.795   6.730 -0.1554  0.0302 -0.1198
32225W        W47842  11.992   5.018  15.874 -0.3241 -0.3045 -0.0283
32226W        W47843  15.469  17.555   3.625  0.2406  0.2126 -0.4316
32227W        W47844   2.596   7.915   0.321 -0.2976 -0.2088  0.1459
32228W        W47845  16.432  12.872   0.014 -0.0338  0.1037  0.0022
32229W        W47846  17.193   3.342  16.071  0.1145  0.1996 -0.1313
32230W        W47847   7.436  16.990  16.291  0.1119 -0.1623 -0.0288
32231W        W47848   8.681   4.954   5.023  0.0428 -0.0153 -0.0061
32232W        W47849  15.221   4.952  11.830 -0.0864 -0.1454 -0.0490
32233W        W47850  15.062   2.957  12.609  0.1154 -0.1740  0.2172
32234W        W47851  16.125  13.991  11.531 -0.0265 -0.0459 -0.0735
32235W        W47852  14.600   0.653  15.361  0.0876 -0.2523 -0.1584
32236W        W47853  11.082   2.224  16.281 -0.0492 -0.0266  0.1916
32237W        W47854  13.440  13.944  17.153 -0.3798 -0.0094 -0.0251
32238W        W47855   8.764   5.453  13.322 -0.1137 -0.1898 -0.0012
32239W        W47856  17.542   0.914   5.061 -0.4006  0.1316 -0.0377
32240W        W47857  16.099  11.186   6.346 -0.1377 -0.0018  0.1850
32241W        W47858  10.502  17.445  12.500 -0.0704 -0.1837  0.1344
32242W        W47859  16.077  13.137   4.520 -0.3229  0.1033 -0.1007
32243W        W47860  10.528  14.895  15.760  0.1282  0.1298 -0.0499
32244W        W47861   1.540   4.197  13.366 -0.1828  0.2426 -0.1981
32245W        W47862  16.960   2.087  13.165  0.0223 -0.0022 -0.2128
32246W        W47863   3.574  17.397  14.999 -0.1142 -0.0685 -0.0884
32247W        W47864  17.090  13.017   3.263  0.0691  0.0322 -0.0399
32248W        W47865   7.856   3.926  12.880  0.2018 -0.0098 -0.0412
32249W        W47866  15.833   7.931   6.119 -0.1259  0.0120 -0.2917
32250W        W47867  16.156   2.182  13.442 -0.4043 -0.4411 -0.2936
32251W        W47868  16.480  15.439   0.974 -0.0744  0.0046 -0.0077
32252W        W47869  10.382  13.927   4.752  0.0055 -0.2117  0.2858
32253W        W47870   2.343   7.781  15.634 -0.1327 -0.2448 -0.2318
32254W        W47871  14.996  17.198  14.777 -0.1897  0.0328 -0.1529
32255W        W47872   4.182   2.809   0.472 -0.0739 -0.2018 -0.1019
32256W        W47873   2.838  16.473   1.811 -0.1129 -0.0177 -0.1600
32257W        W47874   0.161   0.876  12.770 -0.1608  0.2126  0.0340
32258W        W47875   5.060  13.621  13.640 -0.1371 -0.0431  0.0235
32259W        W47876  15.765  13.291  16.279  0.2623 -0.0300 -0.1081
32260W        W47877  16.138   6.612   5.197 -0.1468  0.2626 -0.1134
32261W        W47878   1.136  13.658   2.691 -0.2782 -0.0424  0.0601
32262W        W47879   8.582  13.527  13.650  0.0659  0.0244  0.0376
32263W        W47880   0.790  10.719   5.375 -0.3213  0.2563  0.3069
32264W        W47881   9.547  14.643  14.678 -0.0613 -0.0035  0.0626
32265W        W47882   3.389  16.640  15.759 -0.4359  0.1108 -0.1404
32266W        W47883   8.902   8.311   5.189 -0.0370 -0.2774 -0.1178
32267W        W47884   1.499  15.838   1.734  0.0788 -0.1555  0.2214
32268W        W47885  12.116  13.625  15.376 -0.0955  0.4439 -0.0067
32269W        W47886   4.034  11.674  15.728 -0.0553 -0.0803 -0.0848
32270W        W47887  15.982  14.306  16.073 -0.3638  0.0236 -0.0229
32271W        W47888  15.904  13.695   5.914  0.2163 -0.2165  0.0149
32272W        W47889   2.227  12.358   3.456 -0.1788 -0.2591 -0.0641
32273W        W47890  10.014   9.844   1.819  0.1558  0.0713 -0.2348
32274W        W47891  12.092  15.418  12.442 -0.2257 -0.0499  0.0743
32275W        W47892   0.005  11.972  13.941  0.0424 -0.1192  0.0989
32276W        W47893   7.385   2.652  12.054  0.4779  0.1320  0.0487
32277W        W47894  17.349   5.873  15.437  0.0709  0.2575 -0.0882
32278W        W47895  17.147   1.579  13.188 -0.3941 -0.0045 -0.0399
32279W        W47896   8.403  15.209  16.407  0.3056  0.1195  0.1003
32280W        W47897   8.738   6.446  16.148 -0.1832  0.1156  0.0098
32281W        W47898  14.589  15.075  16.515 -0.1926 -0.0441 -0.1122
32282W        W47899  15.448   2.860   5.322  0.4883 -0.1443  0.1765
32283W        W47900  15.567  10.438   5.404  0.2442  0.4221  0.0374
32284W        W47901   0.067  14.935  14.425  0.1349 -0.2667 -0.1436
32285W        W47902  11.625   1.271  11.155 -0.0232 -0.2790  0.2652
32286W        W47903  12.288  12.651  12.998  0.0551  0.1602  0.2048
32287W        W47904   4.410  13.248  16.469 -0.0738  0.2087 -0.0406
32288W        W47905   2.213  10.534  13.693 -0.1019 -0.0188  0.0246
32289W        W47906   0.651  17.429  12.823 -0.0921 -0.0965  0.0950
32290W        W47907   4.005  17.003   3.589 -0.0866  0.1584  0.0294
32291W        W47908   7.994   8.231  13.479  0.0411 -0.2477  0.1356
32292W        W47909   3.214  10.595  16.162 -0.1257 -0.0798 -0.1132
32293W        W47910   2.405  15.261   1.424 -0.2699  0.1237  0.0353
32294W        W47911   7.786  10.496  14.150  0.1037  0.2328  0.0722
32295W        W47912   1.559  15.644  15.562  0.2759 -0.0538  0.1743
32296W        W47913   2.295   1.476  14.958  0.0412 -0.0201  0.0464
32297W        W47914   4.061   3.355   0.718  0.1027  0.2292  0.1730
32298W        W47915  16.438  12.562   4.456 -0.1293  0.1331  0.0530
32299W        W47916   0.586   8.190   3.759  0.1878 -0.3928  0.0189
32300W        W47917   8.096  10.958  11.924  0.1579 -0.0359  0.2589
32301W        W47918  12.729  12.328  12.250  0.3150 -0.3099  0.3089
32302W        W47919   7.796  13.394  14.481 -0.1340  0.0873  0.0538
32303W        W47920   8.173   1.988   3.184 -0.0281  0.0917 -0.0678
32304W        W47921   2.021  15.407   2.456  0.1021  0.3762 -0.0236
32305W        W47922  10.875  13.896   5.591 -0.2340 -0.0951  0.1097
32306W        W47923   5.584   9.247   1.766 -0.3413  0.2153  0.2554
32307W        W47924  12.163  12.478  15.953 -0.0546  0.2079  0.0847
32308W        W47925   4.935   9.689   6.674 -0.0519  0.2982 -0.1945
32309W        W47926   0.381   3.867  13.298  0.1707 -0.1186  0.2191
32310W        W47927   4.778  16.866   5.293  0.0286 -0.3747 -0.2864
32311W        W47928  17.135   7.069   3.499  0.0499 -0.0930  0.0640
32312W        W47929  11.717   1.749  16.729  0.1242  0.0332  0.0351
32313W        W47930   0.104  17.231   5.312  0.0298  0.1143  0.0494
32314W        W47931   8.208   2.804   1.713  0.0280 -0.0324 -0.0892
32315W        W47932   2.220   2.154  13.033 -0.1870  0.1303 -0.1233
32316W        W47933   2.400  16.460   4.809 -0.0338  0.1116  0.0450
32317W        W47934   3.296   9.800  14.366  0.0878 -0.2907 -0.0850
32318W        W47935  11.030   1.282  13.121  0.1516 -0.0464  0.2455
32319W        W47936  11.859  16.691   0.118 -0.0460 -0.1965 -0.0878
32320W        W47937   8.533   2.377  12.084 -0.0308  0.1655 -0.0251
32321W        W47938  11.645  15.078   5.366 -0.2426 -0.0058 -0.0216
32322W        W47939   6.942  15.480   2.318  0.2010 -0.2013  0.0040
32323W        W47940  14.682   7.045   1.541 -0.0635 -0.4163  0.1756
32324W        W47941  16.559   5.035  17.209 -0.1921 -0.1259  0.2537
32325W        W47942   4.881   1.313   4.861  0.4902 -0.0382 -0.4655
32326W        W47943   9.709   5.628  15.878 -0.1343  0.0267 -0.1702
32327W        W47944   3.485  11.579   5.013  0.1604 -0.2081 -0.2221
32328W        W47945   9.266   5.659  14.616  0.1952  0.0021  0.1161
32329W        W47946   1.522   7.949   1.169  0.0704  0.0900 -0.0524
32330W        W47947   3.107  10.456   4.340  0.2338 -0.1351 -0.1306
32331W        W47948   8.875  17.287   4.403 -0.0246  0.0182 -0.0059
32332W        W47949   8.357   4.187   0.938  0.0525  0.2019 -0.1252
32333W        W47950   0.470  11.805   3.506 -0.2485  0.1863 -0.3327
32334W        W47951  13.053   8.346  15.589 -0.2972 -0.0562 -0.0736
32335W        W47952  10.884  15.101  16.868  0.1166  0.1143  0.0751
32336W        W47953   9.851   0.739   4.159 -0.1195 -0.3528  0.1006
32337W        W47954   9.490  17.105   2.392 -0.1682 -0.0391  0.0243
32338W        W47955   8.181   2.848  15.296  0.1361 -0.1968 -0.0385
32339W        W47956  13.436   3.235  12.664  0.0173  0.0737  0.0212
32340W        W47957   3.948   9.068  14.102  0.2438 -0.2421 -0.0776
32341W        W47958   8.618  15.985  14.140 -0.1863 -0.1506  0.3298
32342W        W47959  14.538   8.341   5.565  0.1006 -0.0378  0.3333
32343W        W47960  17.536   6.670   3.487  0.1785  0.2929 -0.1316
32344W        W47961   2.236  12.868  14.769  0.0366  0.1913 -0.1313
32345W        W47962   6.409  10.460   6.452 -0.1628  0.2287  0.3748
32346W        W47963   4.395   8.153   4.451 -0.0065 -0.1663 -0.1558
32347W        W47964  13.147   0.719   5.418 -0.1009 -0.0715 -0.0232
32348W        W47965  15.992   9.402   2.942 -0.1764  0.1488  0.2917
32349W        W47966  16.226   9.826   5.960 -0.1171 -0.0174 -0.2642
32350W        W47967   4.955   1.927   3.569 -0.3327  0.1300 -0.2563
32351W        W47968   6.558   0.857  14.961  0.0776 -0.1452 -0.4961
32352W        W47969  13.763   3.104   1.324 -0.2141  0.2164  0.2058
32353W        W47970  11.786  13.080   5.284 -0.1834  0.0826 -0.2265
32354W        W47971   9.584   3.934   5.229 -0.0520  0.2988  0.4734
32355W        W47972   3.723   3.300  13.634  0.1941  0.0343 -0.1116
32356W        W47973   8.726   2.303  14.761 -0.1573  0.0088 -0.0781
32357W        W47974   4.421   0.418   3.111 -0.1809  0.0758  0.0868
32358W        W47975  10.547  13.026  15.550  0.0950  0.0248  0.1260
32359W        W47976   7.282   5.051  14.515  0.1280  0.2974 -0.0670
32360W        W47977  16.645  12.797  15.607  0.1439  0.1520  0.2333
32361W        W47978  13.694  10.531   0.979  0.1026 -0.1074 -0.0517
32362W        W47979   0.828   5.393   2.599 -0.1006 -0.1024  0.2312
32363W        W47980  14.557   6.128   1.407  0.2808  0.1816  0.1079
32364W        W47981  10.827   9.074  16.063  0.0717  0.0124 -0.3351
32365W        W47982   6.418   2.179  12.240 -0.0011  0.4054  0.2121
32366W        W47983  15.172  15.847   5.603  0.0558  0.3117  0.2510
32367W        W47984   3.398   3.598   4.632  0.2187  0.2729  0.0070
32368W        W47985  14.282   0.016   2.271 -0.1960  0.0385  0.2555
32369W        W47986   6.308   7.755  16.021 -0.2977  0.2406  0.0500
32370W        W47987   1.248  17.134  17.155  0.1111  0.1567 -0.1870
32371W        W47988  12.418  10.611  15.106  0.0066  0.3153  0.3797
32372W        W47989  15.763   1.128   2.453 -0.1298 -0.0079 -0.1277
32373W        W47990  14.683  14.304   6.190 -0.0333 -0.1443  0.0269
32374W        W47991  10.517  14.011   1.463  0.3433  0.1092  0.0827
32375W        W47992  14.307  16.038   3.416  0.1534 -0.1359 -0.1017
32376W        W47993   8.665  14.316  15.698 -0.0977 -0.1208  0.2051
32377W        W47994  12.276  13.202  12.275 -0.1129  0.0218  0.3010
32378W        W47995  11.198  14.409  12.725  0.0477  0.1821  0.1372
32379W        W47996   9.472   4.082   3.179  0.0908 -0.1177 -0.3782
32380W        W47997   3.926  15.342  16.102  0.1797  0.0166 -0.0581
32381W        W47998   9.086  13.655   6.046 -0.0770  0.1578  0.2668
32382W        W47999   2.086  13.510  15.441  0.3061  0.0143 -0.0901
32383W        W48000   7.649  14.518  14.721 -0.0075  0.0425 -0.3847
32384W        W48001  13.263   7.396   4.478  0.0317 -0.4460 -0.1184
32385W        W48002   6.468   3.348   5.900  0.0397 -0.0121 -0.0892
32386W        W48003   8.687   1.418  13.688 -0.0146 -0.0070  0.2658
32387W        W48004   0.638  10.181   3.656  0.0112 -0.2245  0.0805
32388W        W48005  14.550  11.099   5.012  0.4348 -0.0842 -0.2071
32389W        W48006   1.723  17.568   1.976 -0.1172 -0.1431 -0.1409
32390W        W48007   2.810  13.463   2.977  0.2047 -0.3074 -0.1246
32391W        W48008   8.405   0.391   2.631  0.0029  0.1346  0.1384
32392W        W48009   9.997  15.269   4.217  0.0113  0.0637 -0.1425
32393W        W48010  12.150  15.078   1.120  0.0725  0.2192 -0.0448
32394W        W48011   8.435   1.107   3.575  0.0587  0.2044 -0.2117
32395W        W48012   8.726   0.771  13.246 -0.0110 -0.0086  0.1631
32396W        W48013   0.144   2.294  14.493  0.0286  0.1422  0.1873
32397W        W48014  12.589  17.576   4.643 -0.0492 -0.0864 -0.0714
32398W        W48015   8.595  11.429   1.060 -0.0357 -0.1017  0.2613
32399W        W48016   9.912  10.349  11.952 -0.1731  0.4039 -0.0328
32400W        W48017  10.205   0.653   0.507 -0.2712  0.2603  0.2822
32401W        W48018  17.245   0.656   0.149 -0.3633  0.1023 -0.3043
32402W        W48019   0.788   4.366  11.953  0.0761  0.1958  0.0829
32403W        W48020   7.020   0.634  16.093 -0.1089  0.1296 -0.1129
32404W        W48021  12.477   2.047   2.171 -0.0003 -0.1010  0.0169
32405W        W48022   3.857  12.944  15.042  0.0760 -0.0642  0.1817
32406W        W48023   6.490  11.272   1.240  0.2861 -0.1403 -0.0350
32407W        W48024  12.517  13.322   2.626 -0.2318  0.0036  0.0353
32408W        W48025   3.393  13.077   2.699  0.1465 -0.0359  0.1843
32409W        W48026   9.571  12.169   5.258  0.4342 -0.5148 -0.0155
32410W        W48027   2.625  10.549   0.790  0.1282 -0.0774 -0.1813
32411W        W48028   4.460  14.873  13.793  0.2443  0.1630  0.0446
32412W        W48029   2.585   3.380   2.263 -0.1258  0.1844 -0.1669
32413W        W48030   4.134   5.971   1.689  0.0851  0.1948 -0.1553
32414W        W48031  14.402   3.964   1.292  0.0777  0.0763 -0.0813
32415W        W48032   9.824   3.074   3.459  0.0980  0.1268 -0.1451
32416W        W48033  15.647   4.246  14.040  0.1371  0.2904  0.3854
32417W        W48034   7.405   9.031  16.417 -0.0750 -0.0991  0.1555
32418W        W48035   3.830  16.089   1.323 -0.1326  0.1164  0.2144
32419W        W48036   4.717   1.322   5.326  0.2119 -0.1871 -0.1525
32420W        W48037   8.187  16.251   1.090  0.1539  0.0027  0.0680
32421W        W48038   5.598   4.612  16.556  0.1507  0.2115 -0.2078
32422W        W48039  12.444  15.240   3.525 -0.2751  0.1532 -0.0134
32423W        W48040   7.443  17.112   5.484 -0.2177  0.1406 -0.2260
32424W        W48041  10.153  13.974   1.035  0.0874  0.4146  0.2497
32425W        W48042  12.471  11.963  15.535  0.1373 -0.1739 -0.0242
32426W        W48043   1.831   3.950  15.866  0.0489 -0.1706 -0.0810
32427W        W48044   7.886   9.712  11.126 -0.0679  0.2487 -0.0090
32428W        W48045   8.880   0.766   1.953  0.0421 -0.1223  0.0710
32429W        W48046   2.196  11.127   1.373 -0.2006  0.2126 -0.1047
32430W        W48047  10.607   6.903  11.956  0.1064 -0.1327  0.0939
32431W        W48048  10.536   8.347   4.501 -0.2652  0.0452  0.3990
32432W        W48049  12.855   1.445   1.509 -0.1248  0.1691 -0.5754
32433W        W48050   0.710   9.265   4.176 -0.0743  0.1040 -0.3999
32434W        W48051  10.876  16.933  17.273 -0.1368 -0.0132 -0.1296
32435W        W48052  12.073   6.644   5.524  0.0997 -0.0906 -0.0405
32436W        W48053  17.290  17.186   5.661  0.1533  0.1706  0.0350
32437W        W48054   5.028   4.028   1.315 -0.1574  0.2815 -0.1525
32438W        W48055  15.712   8.860  15.364  0.1154 -0.0591 -0.1117
32439W        W48056   1.033   3.096  13.053  0.2529  0.0611  0.0381
32440W        W48057   6.298  15.410   4.724 -0.1799  0.0824  0.0586
32441W        W48058   4.645  10.113  14.200 -0.3312  0.0742 -0.2944
32442W        W48059   3.948  14.487  13.764 -0.4522  0.0887  0.0827
32443W        W48060   4.359   9.089  12.943  0.1182  0.0554  0.0139
32444W        W48061  13.341  14.859  15.800  0.3568  0.0525 -0.1574
32445W        W48062   2.389   9.002  11.297 -0.1621  0.1559 -0.0372
32446W        W48063  15.096  11.822  13.439 -0.0671  0.0725 -0.0049
32447W        W48064   5.321  10.923  15.323  0.0749 -0.0164 -0.3744
32448W        W48065  10.011   4.307  16.648 -0.2868  0.0150 -0.0572
32449W        W48066   5.083  10.319  16.068 -0.0060  0.0527 -0.1503
32450W        W48067   0.202   7.483   2.082  0.1595  0.1658  0.0088
32451W        W48068   9.167   1.605   2.222  0.1590 -0.3095 -0.2024
32452W        W48069   1.396   8.824   1.892  0.1000  0.1430 -0.0844
32453W        W48070  17.112  16.182   3.154  0.1260  0.2350  0.1754
32454W        W48071  15.696  11.430   3.541 -0.0555  0.0621  0.0436
32455W        W48072  12.734   5.206  14.958 -0.0076 -0.0490  0.1611
32456W        W48073  15.694   4.499   0.551  0.2497  0.1767  0.2017
32457W        W48074  15.290  13.317   1.139  0.2292 -0.3595  0.3202
32458W        W48075   0.481   1.338  15.984  0.0784  0.2877 -0.0177
32459W        W48076   3.393   6.183  14.128 -0.3739 -0.1766  0.0423
32460W        W48077  10.056  17.503   5.487 -0.0888 -0.0332  0.0229
32461W        W48078   3.808   1.814   1.308  0.1460  0.0424 -0.1812
32462W        W48079   7.050   3.147  14.254 -0.0414  0.2858  0.0107
32463W        W48080  11.905   8.144  13.146  0.1060 -0.1382  0.1873
32464W        W48081  15.049   9.333  14.591 -0.0109 -0.1230 -0.0053
32465W        W48082  13.060   8.688  16.960 -0.0124 -0.0688  0.0508
32466W        W48083   3.169   8.835  16.385 -0.2956  0.0824  0.0448
32467W        W48084   6.814  12.129   2.624 -0.0439 -0.1596 -0.0586
32468W        W48085   6.473   9.109   5.471 -0.2634 -0.1963  0.1923
32469W        W48086  14.891   0.633  13.335  0.2540 -0.1496  0.2834
32470W        W48087  10.133   5.060   1.669 -0.0508  0.2416 -0.0018
32471W        W48088   0.130  11.394  12.180  0.0063 -0.0305  0.0078
32472W        W48089   5.305  16.343  15.318  0.2023  0.1423 -0.0219
32473W        W48090  17.430   4.943  16.757  0.0756 -0.0709  0.2698
32474ION     NA48091  16.531  10.525   5.375 -0.1979 -0.0678 -0.0217
32475ION     NA48092  15.223   9.811  12.338 -0.0588  0.1182  0.0755
32476ION     NA48093  11.737   3.112  10.625  0.1247 -0.0874  0.2006
32477ION     NA48094   8.090   8.376  11.218 -0.0640 -0.1691  0.1892
32478ION     NA48095   5.220   3.685   6.377  0.0618 -0.0141 -0.0134
32479ION     NA48096  16.809  11.482  11.150 -0.1874  0.3989  0.2243
32480ION     NA48097   2.549   3.469  11.529  0.0499 -0.0613  0.1456
32481ION     NA48098  10.936  16.891  10.145  0.0744  0.3378 -0.2772
32482ION     NA48099  11.240  16.628   6.159 -0.0049 -0.2007 -0.2461
32483ION     NA48100   5.273  10.960  17.252 -0.3846 -0.0720 -0.0627
32484ION     NA48101   6.129  16.491   6.176 -0.1617  0.2300  0.0107
32485ION     NA48102   9.450  17.165  15.235 -0.0580 -0.3499  0.3194
32486ION     NA48103   1.443  10.266  11.131  0.1952  0.0446 -0.1021
32487ION     NA48104  16.566   8.745  11.408  0.0118  0.1151 -0.0943
32488ION     NA48105   4.788  12.806   6.328 -0.0739 -0.0492  0.2198
32489ION     NA48106   1.845   0.147  10.913 -0.0384 -0.5237  0.0397
32490ION     NA48107  14.542  10.808   6.497 -0.0768  0.1070  0.2945
32491ION     NA48108   8.931  15.942   5.549  0.1330  0.4114 -0.1285
32492ION     NA48109   3.832  17.265   6.613 -0.2400 -0.2782 -0.1023
32493ION     NA48110  13.842   9.101  11.424 -0.0530  0.2776  0.1412
32494ION     NA48111   5.264   6.379  12.457 -0.1089 -0.1611  0.1385
32495ION     NA48112   3.614  15.954  10.793  0.1144 -0.0527 -0.0161
32496ION     NA48113  16.005  16.411  12.269 -0.2427 -0.1502  0.0561
32497ION     NA48114  11.614  17.408  10.318 -0.0497 -0.1754 -0.1732
32498ION     NA48115   7.573   4.724  10.863 -0.3467  0.0333 -0.0473
32499ION     NA48116   1.969   2.573  11.274  0.1642  0.0256  0.2430
32500ION     NA48117   5.739   7.393  11.236 -0.0142 -0.0705  0.0676
32501ION     NA48118  13.162   0.357  10.820 -0.0316  0.0683 -0.2547
32502ION     NA48119   9.650  17.445  10.195 -0.2344 -0.0733 -0.0698
32503ION     NA48120   9.470   6.407  11.069  0.1807 -0.0161  0.1531
32504ION     NA48121  16.071   8.323  11.305  0.0544 -0.1549 -0.1620
32505ION     NA48122  12.079  11.786  11.026  0.0083  0.0513 -0.1292
32506ION     NA48123  16.399   2.763  11.203 -0.4683 -0.0689  0.0619
32507ION     NA48124   0.260  16.025  13.399 -0.2424 -0.1476 -0.3690
32508ION     NA48125  15.906  17.144  10.989 -0.1514 -0.2905 -0.2798
32509ION     NA48126  17.543  14.029   6.283  0.0693  0.1886 -0.0265
32510ION     NA48127  16.282   0.399  11.022 -0.5256  0.0029  0.1119
32511ION     NA48128  11.947  13.499  14.277  0.2427 -0.2153 -0.0345
32512ION     NA48129   8.003   7.982  15.180 -0.0741  0.1631 -0.1055
32513ION     NA48130  12.301  17.103  10.706 -0.0249  0.2028  0.0006
32514ION     NA48131  17.595   8.294  11.377  0.0685 -0.1754 -0.0200
32515ION     NA48132  14.348   3.464   6.232  0.2256  0.4313  0.1931
32516ION     NA48133   5.080  17.467   6.172  0.0305 -0.3509  0.1017
32517ION     NA48134   1.218  13.870  14.628 -0.1639  0.2224  0.0973
32518ION     NA48135   8.974  14.705  15.539 -0.0640  0.1926 -0.0225
32519ION     NA48136   9.896  14.047  12.222  0.0858  0.2768  0.0569
32520ION     NA48137   8.099  15.127  10.033  0.0590 -0.0657 -0.0762
32521ION     NA48138   9.565   6.071  13.676  0.0604  0.1398  0.0157
32522ION     NA48139   1.679  13.157  11.262 -0.2242 -0.1347  0.2471
32523ION     NA48140  13.590   2.306  10.792  0.2174 -0.2373  0.0661
32524ION     NA48141  15.875  13.643   1.926 -0.1549 -0.0428 -0.0231
32525ION     NA48142   2.326   5.425   2.043 -0.1402  0.2889 -0.1876
32526ION     NA48143  13.700   8.604  11.340 -0.0721 -0.0745  0.2966
32527ION     NA48144   9.130  14.150  10.300  0.1844  0.1604 -0.2867
32528ION     NA48145   7.869  16.674   3.184  0.3959  0.0096 -0.1394
32529ION     NA48146   4.859  12.442   4.264 -0.0682  0.0652  0.0818
32530ION     NA48147  17.454   6.575  11.473 -0.1208  0.1434  0.1169
32531ION     NA48148  14.266  11.517   4.963 -0.1313 -0.2079  0.4629
32532ION     NA48149  11.719  13.413   2.984 -0.2585 -0.2300  0.1988
32533ION     NA48150  10.765  17.453   3.645 -0.1106  0.1820 -0.2242
32534ION     NA48151   3.632   8.593  11.449  0.2303  0.3433  0.1136
32535ION     NA48152  11.337   0.705  10.431  0.0192  0.2149 -0.1099
32536ION     NA48153  13.132  17.406  12.359 -0.1690  0.0912 -0.1494
32537ION     NA48154   1.969  11.280  12.451  0.0190 -0.2958  0.0976
32538ION     NA48155   3.122   6.463   1.679 -0.0350  0.0910  0.0826
32539ION     NA48156   6.397  10.991  11.159 -0.0769  0.1181 -0.0258
32540ION     NA48157   1.447  16.693  11.401  0.0484  0.2133  0.1323
32541ION     NA48158   0.464   2.684  11.168  0.1845  0.2239  0.0350
32542ION     NA48159   3.724   1.429  11.302  0.1038 -0.0220 -0.0448
32543ION     NA48160  15.252   5.574  11.267 -0.0690  0.1605  0.2502
32544ION     NA48161   6.765  13.606  10.707  0.0498 -0.1616 -0.3606
32545ION     NA48162   5.243   9.958   3.527  0.0030  0.0719 -0.1102
32546ION     NA48163   3.046   9.450  11.242 -0.3565 -0.2217  0.1568
32547ION     NA48164   3.593   5.113   1.701  0.1515 -0.1130  0.1578
32548ION     NA48165  12.286   1.232  10.581 -0.0281 -0.0158 -0.0402
32549ION     NA48166  17.315   1.465  11.177 -0.2297 -0.4402 -0.0038
32550ION     NA48167   0.338   4.103   6.474  0.1840 -0.1755 -0.2317
32551ION     NA48168  10.966  17.023  14.556 -0.1350  0.3016 -0.1210
32552ION     NA48169   6.326  12.968  10.792 -0.1400  0.1678 -0.2408
32553ION     NA48170   6.212   9.839  10.916 -0.2884 -0.1575  0.1289
32554ION     NA48171  13.306  14.199   6.223 -0.1212 -0.0539  0.2410
32555ION     NA48172   7.171   8.763  11.025 -0.2424  0.0617 -0.0219
32556ION     NA48173   1.179  12.446  10.968  0.2053  0.1612  0.0663
32557ION     NA48174   7.273   9.574  11.093  0.2764  0.0156 -0.0509
32558ION     NA48175   7.749   4.424  13.066 -0.0443  0.1282 -0.1636
32559ION     NA48176   0.603   8.746   4.132 -0.0193 -0.0370 -0.0445
32560ION     NA48177   9.336  13.288  10.632  0.1215  0.3155  0.1068
32561ION     NA48178  11.447  14.234  10.621 -0.1353 -0.2562 -0.2684
32562ION     NA48179   3.427  12.411  11.406  0.0554  0.0509 -0.0610
32563ION     NA48180   7.089   0.342   2.925 -0.0347 -0.0531  0.0126
32564ION     NA48181   5.517   5.939  12.030  0.0225 -0.3860  0.0074
32565ION     NA48182  17.431   7.864   6.530 -0.1451 -0.0432 -0.0834
32566ION     NA48183   4.412  12.163  11.402  0.3133  0.2950  0.1985
32567ION     NA48184   4.959  17.399   3.715  0.1014 -0.3572 -0.0288
32568ION     NA48185   0.411  10.160   6.504 -0.0262  0.3381 -0.2925
32569ION     NA48186  16.762   7.073  16.810 -0.0963 -0.1156  0.1244
32570ION     NA48187  11.435   9.971  11.148 -0.0905  0.0972  0.2294
32571ION     NA48188  13.702   0.066  11.466 -0.5081 -0.0965  0.0409
32572ION     NA48189   2.279  10.790  11.271  0.2715  0.2436  0.0358
32573ION     NA48190   3.773  11.162   4.971 -0.1213  0.1577 -0.3220
32574ION     NA48191  13.938  16.773  15.615  0.3084 -0.0940 -0.0245
32575ION     NA48192  11.270  16.627   3.520 -0.1323 -0.1009 -0.1666
32576ION     NA48193  13.813   0.403  10.787  0.1664 -0.3956 -0.1649
32577ION     NA48194   0.982  14.733  15.639 -0.2228 -0.1362 -0.0069
32578ION     NA48195   3.707   4.737  11.263 -0.0836 -0.2839 -0.0722
32579ION     NA48196   5.703   2.459  11.048 -0.2750 -0.1310  0.1433
32580ION     NA48197   5.710   5.516  11.203 -0.0288 -0.4613  0.1503
32581ION     NA48198   5.276   5.461  15.020  0.0452  0.3587  0.0655
32582ION     NA48199  12.528   8.233   4.437  0.0290  0.0668  0.1112
32583ION     NA48200  16.006  10.922   1.468 -0.0475  0.3345 -0.1082
32584ION     NA48201  14.074  13.849  10.819 -0.2753 -0.0178  0.4445
32585ION     NA48202   0.930  14.718  10.850 -0.2310 -0.1702 -0.2050
32586ION     NA48203  10.150   4.669  11.083 -0.1254 -0.3287 -0.0178
32587ION     NA48204  13.601  10.914  11.393 -0.4701  0.0081  0.1820
32588ION     NA48205  12.823   2.165  10.485 -0.0445 -0.1228  0.0479
32589ION     NA48206  15.005  14.028  10.851  0.0567  0.0929  0.1220
32590ION     NA48207  10.755  14.770   1.961  0.0596  0.1979 -0.1358
32591ION     NA48208  16.871  12.036  17.300 -0.0731 -0.0889 -0.0683
32592ION     NA48209  15.376   0.127  10.941 -0.1952  0.3443 -0.3166
32593ION     NA48210   9.802   0.766  10.398  0.2126  0.1931  0.2486
32594ION     NA48211   7.267   0.669  10.426  0.2377 -0.1946  0.2614
32595ION     NA48212  16.315   9.269   6.351  0.1025 -0.0151 -0.0315
32596ION     NA48213  12.170  10.507  11.069 -0.3778  0.2348  0.0036
32597ION     NA48214   1.689  14.969  10.787 -0.0557 -0.0245 -0.0950
32598ION     NA48215   9.134  15.590  10.359  0.2524  0.0030  0.1175
32599ION     NA48216  16.448  10.637  11.258 -0.1191 -0.1404  0.1037
32600ION     NA48217   5.793  12.684  10.794 -0.0209  0.1407  0.2909
32601ION     NA48218   4.677  12.947  14.944 -0.2325  0.0888 -0.1800
32602ION     NA48219  13.402  12.968  11.296  0.1858 -0.4686  0.0408
32603ION     NA48220  11.180   5.210  12.507  0.1280  0.0253  0.0921
32604ION     NA48221  12.498   0.673  11.236 -0.0756 -0.2385 -0.4862
32605ION     NA48222  15.187  11.902  11.085  0.2372  0.1119 -0.3040
32606ION     NA48223  13.781  15.934   6.309 -0.1633  0.0017  0.0692
32607ION     NA48224   8.055  15.872   5.852  0.1596 -0.0190 -0.0498
32608ION     NA48225   2.205   8.432  11.406  0.4567  0.1250 -0.2432
32609ION     NA48226   6.693  15.774  10.972 -0.2512 -0.3655 -0.2512
32610ION     NA48227  15.698   4.200  11.288 -0.0459 -0.0753 -0.2112
32611ION     NA48228  12.704   6.450  11.104  0.0057 -0.0821  0.0874
32612ION     NA48229  16.015   0.433  11.934  0.0463 -0.3825 -0.0540
32613ION     NA48230   5.525   4.587  11.201 -0.2993 -0.2068  0.0530
32614ION     NA48231  16.106   3.416   1.124 -0.0465  0.0176 -0.2389
32615ION     NA48232   5.338   4.632   6.399  0.1727  0.1132 -0.1617
32616ION     NA48233   7.376  13.304  10.496  0.4139 -0.2624 -0.1389
32617ION     NA48234   0.834   0.467  10.947 -0.0168 -0.0756 -0.2385
32618ION     NA48235   6.320   0.443  10.569  0.1119 -0.2000  0.1294
32619ION     NA48236   0.020  14.585  10.804 -0.1162 -0.0882 -0.1484
32620ION     NA48237  12.230  13.987  10.611  0.1611 -0.1124 -0.0079
32621ION     NA48238   1.468  13.611  16.944 -0.1737 -0.1810  0.0958
32622ION     NA48239   8.649   6.184  15.263 -0.3766  0.3576  0.2190
32623ION     NA48240   1.228   3.132  11.425 -0.0304 -0.0399  0.0194
32624ION     NA48241   6.024  14.306  10.688  0.1791  0.2221  0.0889
32625ION     NA48242  12.283   6.728   2.384  0.0937 -0.0335 -0.1025
32626ION     NA48243   1.590   3.654  12.154  0.1089 -0.1807 -0.1617
32627ION     NA48244  13.381   6.907  11.311  0.0590 -0.1589  0.0342
32628ION     NA48245   6.194  11.991  11.257  0.1264  0.1635  0.2854
32629ION     NA48246  14.646  10.922  12.393 -0.1920  0.1556 -0.1219
32630ION     NA48247  13.138   3.785  11.062 -0.1151 -0.0701 -0.0562
32631ION     NA48248   8.944   8.895  11.053  0.4324  0.2228 -0.1371
32632ION     NA48249   7.394   7.110  11.074 -0.0845 -0.1198 -0.0177
32633ION     NA48250  14.640  15.489  10.495  0.3598 -0.5615  0.1551
32634ION     NA48251   1.645  14.697   1.147  0.3988 -0.0426  0.0782
32635ION     NA48252   4.153  16.697  11.037 -0.0452 -0.1487 -0.0867
32636ION     NA48253   6.002   9.313   6.614 -0.2070 -0.2353  0.1187
32637ION     NA48254   4.265   3.525  11.348  0.0270 -0.0563 -0.1934
32638ION     NA48255   9.873  13.218   5.762 -0.1576 -0.2382  0.1207
32639ION     NA48256   2.135   6.423  13.564 -0.0833 -0.0489 -0.2816
32640ION     NA48257   7.601   3.680   3.718 -0.1801 -0.1720  0.0666
32641ION     NA48258  14.945  11.052  11.342 -0.0110  0.1600 -0.1679
32642ION     NA48259  15.168  14.982  10.565  0.0067  0.0611  0.0360
32643ION     NA48260  17.175  17.496  10.993 -0.1527  0.0589 -0.0647
32644ION     NA48261   3.266   4.722   0.241 -0.1338  0.0417  0.0025
32645ION     NA48262   5.120  16.599  10.788  0.1174 -0.0245 -0.2622
32646ION     NA48263   4.676  14.554  10.944 -0.3638 -0.2654 -0.2106
32647ION     NA48264   0.374  12.077  10.988 -0.3058 -0.2068  0.1507
32648ION     NA48265   6.495   8.413  10.899 -0.1697  0.0683  0.1035
32649ION     NA48266  16.994   8.987  11.255 -0.0236 -0.1085 -0.0487
32650ION     NA48267  14.402  14.642  10.674  0.5301 -0.0554 -0.2542
32651ION     NA48268  15.321  14.855   1.564  0.0484  0.0875  0.0089
32652ION     NA48269   3.370  10.912  11.431 -0.1162  0.4864 -0.1742
32653ION     NA48270  11.219   7.719  10.920  0.1006 -0.0045  0.4142
32654ION     NA48271  14.819  14.603   2.644 -0.0319 -0.0007  0.4925
32655ION     NA48272   3.278   2.139  11.105  0.0885 -0.2728 -0.1176
32656ION     NA48273   8.235   7.615  10.868 -0.2361  0.0978 -0.0989
32657ION     NA48274   6.157   4.220  13.171 -0.0758 -0.2003  0.0575
32658ION     NA48275   7.184  15.621   5.403  0.2420  0.1498  0.0529
32659ION     NA48276  13.471   9.986   6.601  0.2354 -0.0985 -0.2300
32660ION     NA48277   6.309   5.284  14.248  0.0593 -0.0012  0.2054
32661ION     NA48278  15.123  11.428   6.772 -0.1010 -0.0917  0.0914
32662ION     NA48279   5.684   8.221  11.131  0.0037  0.1063  0.1597
32663ION     NA48280   2.235  14.205  11.068  0.0542 -0.1883  0.4369
32664ION     NA48281   7.764  11.649  10.928 -0.1598 -0.0367  0.0100
32665ION     NA48282   8.503   4.332   6.321  0.1765 -0.3215 -0.0348
32666ION     NA48283  16.013   6.282  11.378 -0.2442 -0.0718 -0.2673
32667ION     NA48284  12.954   9.647  11.261  0.0334 -0.1387  0.0094
32668ION     NA48285  13.245   1.000   5.034 -0.2120 -0.0227  0.0713
32669ION     NA48286   9.562   5.599  11.306 -0.0874  0.0147 -0.0892
32670ION     NA48287   2.864   7.105  11.442  0.0321  0.1844 -0.0079
32671ION     NA48288   3.849  14.766  11.009 -0.0073  0.3962  0.1628
32672ION     NA48289  14.053   7.285  11.402  0.0501  0.0084  0.5488
32673ION     NA48290  16.512   6.832   5.541 -0.1700  0.3220  0.3257
32674ION     NA48291  17.536   9.715  11.249 -0.0406  0.0641 -0.1783
32675ION     NA48292  17.546   4.014  11.243  0.1377  0.1057  0.0048
32676ION     NA48293   7.255   5.588  11.272 -0.2326  0.2687  0.1049
32677ION     NA48294   7.061  11.026  13.136  0.0157 -0.1589  0.0668
32678ION     NA48295   2.206   4.438  11.417  0.0119  0.0314 -0.1422
32679ION     NA48296  10.683   2.196  10.586 -0.2553 -0.1776  0.0845
32680ION     NA48297  17.166   3.123  11.232 -0.2838 -0.2488  0.1357
32681ION     NA48298   4.108   8.183  12.396 -0.2001 -0.1090 -0.0105
32682ION     NA48299   9.751  14.729  10.223  0.3155 -0.2563  0.3579
32683ION     NA48300  16.476  12.367  11.156 -0.3167 -0.4034 -0.0885
32684ION     NA48301   6.380   0.907  11.249  0.0986  0.1837  0.0245
32685ION     NA48302   8.319  14.527   4.718  0.1464 -0.0196 -0.2357
32686ION     NA48303  10.775  10.511  11.485  0.0083  0.2982 -0.0738
32687ION     NA48304   2.698  12.154  11.404  0.0258 -0.0427  0.2940
32688ION     NA48305   2.977   0.942  11.206  0.1757 -0.1217 -0.0457
32689ION     NA48306   9.921  10.838  11.183  0.1959 -0.4198 -0.1981
32690ION     NA48307   4.956  13.219  12.939 -0.0660 -0.1647 -0.0881
32691ION     NA48308  17.569  13.514  11.049  0.1826  0.0146  0.0338
32692ION     NA48309  14.382   9.556   0.356  0.2907 -0.0037  0.2073
32693ION     NA48310  14.306   2.481   0.280 -0.1946 -0.0351  0.0103
32694ION     NA48311   7.001  12.785  16.323 -0.0954 -0.0438 -0.2294
32695ION     NA48312   9.611   9.425  11.140 -0.3536  0.1726 -0.0435
32696ION     NA48313  11.713   4.471  11.224 -0.1845  0.1434 -0.2150
32697ION     NA48314  15.622  12.565  11.115 -0.1600  0.0713 -0.2403
32698ION     NA48315   2.871   8.998  11.462 -0.5217  0.1066 -0.2368
32699ION     NA48316   2.976  15.335  10.981 -0.2339  0.1313  0.2433
32700ION     NA48317  16.710  16.802  11.136  0.5704 -0.0389 -0.0741
32701ION     NA48318  12.034  15.730  10.549  0.2928 -0.0844  0.2374
32702ION     NA48319   0.072   2.332  11.155  0.0606  0.1807  0.0629
32703ION     NA48320   1.389   8.015  11.321 -0.0111  0.0651  0.1041
32704ION     NA48321   4.884   1.338  14.987 -0.0021  0.3819 -0.1318
32705ION     NA48322  11.828  11.133  16.472 -0.2390 -0.0659  0.1014
32706ION     NA48323   2.693   5.954  11.735  0.3937 -0.0791 -0.0730
32707ION     NA48324  14.707  16.931   0.193 -0.0773  0.1667  0.0241
32708ION     NA48325   7.850   3.670  15.122  0.1582  0.0717  0.2071
32709ION     NA48326   4.889   2.842  11.234  0.1563 -0.1246 -0.0130
32710ION     NA48327  15.970  15.036  10.902  0.1679  0.0210  0.0863
32711ION     NA48328   5.764   9.584   4.341 -0.0922 -0.0542  0.1706
32712ION     NA48329   1.009   5.013  11.399  0.2295 -0.2231  0.1006
32713ION     NA48330   5.602   9.488  11.354  0.2629  0.3457 -0.0846
32714ION     NA48331  12.021   2.657  10.632 -0.3683 -0.0323 -0.0633
32715ION     NA48332   7.036  17.527  10.453 -0.1731 -0.1622  0.1094
32716ION     NA48333  10.481   2.650  10.744 -0.3158 -0.3113 -0.2162
32717ION     NA48334   7.286  15.996  10.308 -0.0341 -0.1516  0.0000
32718ION     NA48335  14.649  17.372   6.058  0.3143 -0.0944 -0.3148
32719ION     NA48336  13.234  13.874  11.052 -0.1135  0.2152 -0.0064
32720ION     NA48337   4.225   0.067  11.005  0.0546  0.1939  0.1077
32721ION     NA48338  13.809  12.925  11.035 -0.3940 -0.0649  0.0204
32722ION     NA48339  16.014   5.187  11.486  0.4048  0.2088  0.1840
32723ION     NA48340   1.955  10.945   6.478 -0.2292  0.0651 -0.0413
32724ION     NA48341   5.207  14.756  12.229  0.3359 -0.0538  0.0422
32725ION     NA48342  14.490   8.380  11.447 -0.0232  0.0156 -0.2395
32726ION     NA48343   7.369   8.992   6.500  0.3236  0.1057  0.0073
32727ION     NA48344  15.931  11.708   6.428  0.0889  0.1467  0.2023
32728ION     NA48345   5.890   1.658  11.067  0.2352 -0.1683 -0.2569
32729ION     NA48346   5.809  13.473   1.662 -0.1677  0.1340  0.0394
32730ION     NA48347   8.185   4.669   6.633  0.0088  0.0227  0.1648
32731ION     NA48348  15.788   7.099  11.435 -0.0604  0.1314  0.3398
32732ION     NA48349   9.200   9.601   5.630  0.0102  0.1311 -0.3273
32733ION     NA48350   1.898   8.571  11.928  0.1528 -0.0148  0.0563
32734ION     NA48351   0.113   6.314   6.944  0.1145 -0.1196 -0.0839
32735ION     NA48352   8.322  17.446  10.302 -0.0126 -0.1321 -0.0218
32736ION     NA48353  13.556  13.523   0.053 -0.0422 -0.0006 -0.3006
32737ION     NA48354   8.567  11.470  10.952  0.0103  0.0114  0.2867
32738ION     NA48355   5.147  12.403  13.479  0.0983 -0.2136 -0.2731
32739ION     NA48356   1.444  15.719  10.752 -0.1140 -0.1376 -0.0608
32740ION     NA48357  16.776  14.057  10.891 -0.1503  0.0961  0.2216
32741ION     NA48358   6.524   3.413  11.645  0.2914  0.2408 -0.0143
32742ION     NA48359   5.246   2.611  15.580 -0.2782  0.1184  0.0198
32743ION     NA48360   6.126  10.299  10.830  0.0452 -0.2198 -0.2106
32744ION     NA48361  13.731   1.289  10.811  0.0713 -0.1377  0.0601
32745ION     NA48362   2.660   1.268  13.287  0.4801 -0.2765  0.0061
32746ION     NA48363  13.620  15.380  15.658 -0.1035  0.0594  0.0710
32747ION     NA48364  12.784   9.216   1.616  0.1337  0.0528  0.1843
32748ION     NA48365   7.177   1.536  10.518  0.2613 -0.0644 -0.0233
32749ION     NA48366  11.882   7.831  11.086  0.0541 -0.3304 -0.0335
32750ION     NA48367   8.188   5.367  11.049 -0.3111 -0.1835 -0.1851
32751ION     NA48368   9.226   0.340   6.010  0.1612  0.1309 -0.3479
32752ION     NA48369  17.176   9.318  11.845  0.1312 -0.1602  0.0772
32753ION     NA48370   9.953   9.276  14.010  0.2718  0.2793  0.1108
32754ION     NA48371   4.271  17.524   6.274 -0.1652  0.0055  0.0099
32755ION     NA48372  14.754  17.283  10.706 -0.1515  0.2027 -0.2039
32756ION     NA48373   4.624  10.498  11.300 -0.5227 -0.1281  0.0968
32757ION     NA48374  11.299   2.176  10.566  0.0492 -0.3049 -0.3220
32758ION     NA48375  10.577   0.181  10.524  0.1801 -0.0509 -0.1939
32759ION     NA48376   1.685   9.646   6.523  0.4356  0.1466  0.1865
32760ION     NA48377  12.559   4.494   6.579 -0.0614 -0.0938 -0.1584
32761ION     NA48378   9.630  14.519  17.238  0.0436 -0.2242  0.1696
32762ION     NA48379   5.419  10.915  10.967  0.1348 -0.1166  0.0492
32763ION     NA48380  15.766   9.261  11.464 -0.0187 -0.1788 -0.0521
32764ION     NA48381  16.669  12.041   6.261  0.0609  0.0507 -0.1685
32765ION     NA48382  12.337  16.008   5.975 -0.1549  0.1542 -0.1710
32766ION     NA48383  13.429   4.159   6.836 -0.4802  0.1702 -0.0225
32767ION     NA48384  13.652  16.424  11.635 -0.2772  0.0543  0.1190
32768ION     NA48385  12.083   1.835   0.588  0.0740  0.0371  0.0157
32769ION     NA48386  16.698  14.912   4.785  0.0016  0.2861 -0.2392
32770ION     NA48387   4.194   7.167  11.279  0.2339 -0.0990 -0.0415
32771ION     NA48388   2.827   3.893   3.919 -0.2741 -0.2488  0.0547
32772ION     NA48389   9.006   9.382  11.137  0.2495 -0.2067  0.0246
32773ION     NA48390   4.364   2.578   6.388  0.1840  0.1105  0.0677
32774ION     NA48391   8.047  12.288  10.639 -0.0750 -0.0461 -0.0871
32775ION     NA48392   0.138  12.458   5.048  0.1231 -0.0014 -0.1806
32776ION     NA48393   0.829  13.281  11.025  0.0565 -0.0424  0.2921
32777ION     NA48394  10.730   0.103   2.400 -0.0094  0.0099  0.1922
32778ION     NA48395  12.945  16.260  10.381 -0.0432  0.0909  0.1264
32779ION     NA48396   3.087  13.957  11.202  0.0484 -0.0403  0.1967
32780ION     NA48397  11.242   7.155  11.024  0.2310  0.2203 -0.0973
32781ION     NA48398   2.939   2.806  11.317 -0.0673 -0.0768 -0.1031
32782ION     NA48399  16.271   3.555  10.907  0.1964  0.1285  0.0347
32783ION     NA48400  16.392   4.064  11.943  0.1240  0.1941  0.1751
32784ION     NA48401   5.304  12.081  11.104 -0.0979  0.0890  0.0855
32785ION     NA48402   3.564   5.988  13.649 -0.1919  0.1110  0.2892
32786ION     NA48403   5.763   9.723  12.237  0.1361 -0.0124  0.1809
32787ION     NA48404   9.603  10.224  11.070  0.1629 -0.1896 -0.1004
32788ION     NA48405   0.228  16.653  16.929  0.0946 -0.0199 -0.0458
32789ION     NA48406   2.509   1.805  17.222 -0.0478 -0.1699 -0.0263
32790ION     NA48407  14.625  11.708  16.168 -0.1167 -0.2742  0.0283
32791ION     NA48408  10.311  16.536  10.054 -0.1849  0.3692  0.1304
32792ION     NA48409   6.477   3.931  14.475  0.2275  0.1004 -0.0236
32793ION     NA48410  11.198   5.922   1.823 -0.0382 -0.1922  0.0409
32794ION     NA48411  15.310   4.623  11.349 -0.1211 -0.2047  0.2028
32795ION     NA48412  17.167   9.794   6.294  0.3547  0.2743 -0.3329
32796ION     NA48413   4.737   4.310  11.278  0.3605 -0.1691  0.1564
32797ION     NA48414   9.461   0.783   2.755  0.2315  0.1275 -0.2319
32798ION     NA48415   5.460   3.303  11.400  0.3708 -0.0179 -0.2752
32799ION     NA48416  15.382   0.951  14.195  0.0362  0.0816 -0.2703
32800ION     NA48417   0.991  11.557  13.955  0.3302 -0.5280  0.1857
32801ION     NA48418   2.134   7.577  11.341  0.0314  0.0237  0.0271
32802ION     NA48419  17.360  10.883  16.162 -0.2049 -0.2571 -0.1563
32803ION     NA48420  14.353   9.212  11.355 -0.1143 -0.3402  0.0504
32804ION     NA48421   0.001   5.660  11.728 -0.1121  0.0787 -0.1162
32805ION     NA48422   5.458  11.018   1.620  0.2065  0.1503  0.0107
32806ION     NA48423   2.626   2.459  14.614 -0.0084  0.0182 -0.0413
32807ION     NA48424   5.516  17.491  11.039  0.2591  0.2700 -0.1949
32808ION     NA48425  14.066   5.672  14.383  0.1228  0.0067  0.1404
32809ION     NA48426   7.199   9.848   6.139 -0.0302  0.0267 -0.1069
32810ION     NA48427  17.169   7.390   5.269 -0.0047  0.5114  0.1370
32811ION     NA48428  17.494   6.729   6.731  0.1963  0.1569 -0.2214
32812ION     NA48429  12.491  14.268   4.471  0.0990 -0.0470 -0.1510
32813ION     NA48430   7.066   0.499   1.617  0.5468  0.3105  0.2030
32814ION     NA48431   8.123  12.520   5.916  0.1604  0.3091 -0.2154
32815ION     NA48432   2.197   5.206  16.110  0.0271 -0.3351 -0.0799
32816ION     NA48433   8.839   6.789  11.048 -0.0723 -0.0788  0.0465
32817ION     NA48434  16.040   7.568  11.482 -0.2686 -0.0626 -0.0474
32818ION     NA48435   2.173  16.964  10.958  0.0366 -0.0038  0.0034
32819ION     NA48436  14.566   5.212  11.203  0.0215  0.0080 -0.2551
32820ION     NA48437   6.350  10.859   0.556 -0.2804 -0.0062 -0.2623
32821ION     NA48438   2.644   0.608   3.978  0.1334 -0.0930  0.2220
32822ION     NA48439  13.650  14.974  13.166  0.3110 -0.0033 -0.1018
32823ION     NA48440  14.898   7.037  11.355 -0.2489 -0.5632 -0.2663
32824ION     NA48441  12.084   4.619   6.754 -0.3152  0.1911 -0.0709
32825ION     NA48442   8.362   3.757  10.716  0.1981  0.3755 -0.3416
32826ION     NA48443   3.480   5.655  11.454 -0.0807 -0.4493 -0.1449
32827ION     NA48444  11.466   5.815  11.357 -0.0476  0.4687  0.1452
32828ION     NA48445   5.710  15.839  10.815 -0.1616 -0.2411  0.3955
32829ION     NA48446  17.255  13.695   3.825  0.0667  0.1265  0.0531
32830ION     NA48447   6.154   9.252  12.853 -0.0411 -0.0930  0.0663
32831ION     NA48448   0.041   7.594  13.376  0.0193  0.0098 -0.0118
32832ION     NA48449  10.674  14.744  10.448  0.1547  0.1773  0.0664
32833ION     NA48450   8.316  13.498  10.391 -0.1606 -0.1902  0.1468
32834ION     NA48451   9.485   3.344  10.822  0.0850 -0.4173 -0.0208
32835ION     NA48452   2.411   9.931   1.815 -0.2321 -0.0202  0.0177
32836ION     NA48453  11.177   8.425  11.204 -0.1220 -0.0747  0.0415
32837ION     NA48454  15.886   7.704   6.588 -0.0860  0.2239  0.1207
32838ION     NA48455  10.669  11.164  11.046  0.1904 -0.1329  0.0629
32839ION     NA48456  13.738   3.751  12.502 -0.1048  0.0529  0.0571
32840ION     NA48457   6.130   7.638  14.122  0.0255  0.0890  0.1662
32841ION     NA48458   9.394  11.695  11.099 -0.0120 -0.1156  0.2858
32842ION     NA48459   5.249  13.054  10.788  0.4173  0.0876  0.0145
32843ION     NA48460   5.026   5.863   1.699 -0.0315 -0.2611 -0.0458
32844ION     NA48461   3.202  15.913   1.888  0.2536 -0.0591  0.2568
32845ION     NA48462  13.198  10.548  11.237  0.1287  0.0680  0.0160
32846ION     NA48463   7.079  12.397  10.906 -0.0567 -0.0102  0.0319
32847ION     NA48464  11.744  10.669   6.584 -0.1727 -0.0853 -0.3443
32848ION     NA48465  10.899  12.592   5.163 -0.0620  0.0250 -0.0587
32849ION     NA48466  12.717   8.402  11.363  0.4787 -0.0383 -0.0277
32850ION     NA48467  17.156  10.557  11.468 -0.0535  0.1451 -0.2560
32851ION     NA48468   1.113   6.149   0.648 -0.2454 -0.1493 -0.1023
32852ION     NA48469  16.152   1.844  11.022 -0.1767 -0.0380 -0.0653
32853ION     NA48470   0.782  17.103  11.006 -0.0844 -0.3079  0.2567
32854ION     NA48471   1.981   5.298  11.576 -0.0135  0.0435  0.0113
32855ION     NA48472  11.527   1.744  10.559 -0.2195  0.4462  0.0203
32856ION     NA48473  13.458   8.082  11.503  0.0163 -0.1207  0.2803
32857ION     NA48474   6.398   5.031  11.200 -0.1364  0.0172 -0.0259
32858ION     NA48475  10.102  11.716  10.983 -0.1845 -0.0463  0.1599
32859ION     NA48476  11.501   2.586   5.571 -0.1436 -0.0123 -0.0076
32860ION     NA48477   8.614  12.828   1.252  0.2437 -0.4132 -0.0749
32861ION     NA48478   8.416  16.252  16.168  0.2316  0.0538  0.1657
32862ION     NA48479  16.893   6.514  13.726  0.0212 -0.0347 -0.0142
32863ION     NA48480   7.646  15.689  16.965 -0.0251 -0.4090 -0.1224
32864ION     NA48481   2.482   0.976  11.077 -0.0551 -0.0068 -0.1036
32865ION     NA48482   6.285  15.606   4.170 -0.2403 -0.4291  0.1853
32866ION     NA48483   9.139  16.695  10.257  0.3091 -0.1139  0.2329
32867ION     NA48484   8.097  10.845  10.870  0.1077  0.0614  0.1325
32868ION     NA48485  10.801  12.263  10.986 -0.1778  0.2197  0.1126
32869ION     NA48486  15.252   1.274   6.400 -0.2634 -0.0301  0.2311
32870ION     NA48487  11.661   9.071  11.266 -0.0155  0.1536  0.1716
32871ION     NA48488  12.335   9.747  11.415 -0.2031  0.0221  0.0147
32872ION     NA48489  12.850  11.445  11.322  0.1753  0.2864 -0.2991
32873ION     NA48490  14.504   5.517   6.605 -0.1218  0.1510 -0.0293
32874ION     NA48491   3.550  13.526  13.697  0.0816  0.2621 -0.0235
32875ION     NA48492   2.232   9.846  11.399 -0.0641 -0.1344  0.1358
32876ION     NA48493  10.860  13.020  17.009 -0.4322 -0.2088  0.1593
32877ION     NA48494   2.918   7.950  11.301  0.1177 -0.0725 -0.1287
32878ION     NA48495  10.643  14.214  10.565  0.1831 -0.2033  0.0341
32879ION     NA48496   7.651  17.033  10.779 -0.2476 -0.3212 -0.0818
32880ION     NA48497   7.732   8.568   4.883  0.0375 -0.0899  0.3001
32881ION     NA48498   3.885   2.952   6.851 -0.2757  0.0380 -0.1689
32882ION     NA48499  12.909   4.662  11.364 -0.0943  0.1228  0.0809
32883ION     NA48500  13.593  12.065  11.324  0.2427  0.0635  0.1204
32884ION     NA48501   6.807  16.647  10.729  0.0426 -0.2254 -0.3295
32885ION     NA48502  13.824   7.838  14.432  0.1114  0.3679 -0.1730
32886ION     NA48503   9.673   3.136   5.849 -0.3210 -0.1330  0.3235
32887ION     NA48504  13.050  12.950   4.925  0.0389 -0.1434 -0.2572
32888ION     NA48505  17.101  12.601  10.990  0.1912 -0.1256  0.1405
32889ION     NA48506   3.356   3.987  11.468  0.1588  0.0683  0.0818
32890ION     NA48507   4.380   5.688  11.872 -0.1110 -0.0175  0.0491
32891ION     NA48508  16.933  11.774  14.156 -0.0246  0.0685  0.0770
32892ION     NA48509   0.602  17.054   6.112  0.2021 -0.1613 -0.2288
32893ION     NA48510   1.293   1.002  16.281 -0.0377 -0.2827 -0.0401
32894ION     NA48511   3.287  16.848  11.059 -0.3626 -0.0351  0.0111
32895ION     NA48512  14.336  12.368  14.129  0.3305 -0.0030  0.0556
32896ION     NA48513   6.906   4.204  10.996  0.0472  0.2478  0.0484
32897ION     NA48514   2.797   4.945  11.348 -0.2278  0.0687 -0.0383
32898ION     NA48515  17.389  10.558  15.379 -0.0935  0.1545  0.2077
32899ION     NA48516   9.166   2.614  10.507  0.0658 -0.1557  0.0867
32900ION     NA48517   7.708  15.138   2.777  0.1216 -0.1884 -0.1987
32901ION     NA48518  10.035  12.465  10.870 -0.0145 -0.1850  0.0535
32902ION     NA48519  11.130   6.500  11.142 -0.1047  0.0619 -0.1143
32903ION     NA48520  13.680   5.134  11.408 -0.0709 -0.0655  0.2528
32904ION     NA48521   6.035  15.665  15.311  0.1415 -0.1518 -0.2153
32905ION     NA48522  12.409  13.233  10.567  0.1111  0.0023 -0.1978
32906ION     NA48523  13.731  12.286   5.554  0.0348  0.1001 -0.1222
32907ION     NA48524   3.207  13.380   6.382  0.2529  0.0987  0.3953
32908ION     NA48525   0.566  16.335  10.865  0.0774 -0.1241  0.0648
32909ION     NA48526  17.533  16.592  10.913 -0.4164  0.0326  0.4519
32910ION     NA48527  15.412   0.673  13.304 -0.0234 -0.4036  0.0698
32911ION     NA48528  14.009  11.413  11.313  0.0837  0.0058 -0.1532
32912ION     NA48529  14.846   3.200  11.211  0.1142 -0.0515  0.1835
32913ION     NA48530   2.723   0.008  11.008 -0.0955  0.1265 -0.0884
32914ION     NA48531   1.565   6.649  11.397 -0.3227  0.0815  0.1240
32915ION     NA48532   4.449   9.720  11.072 -0.0880  0.0895 -0.2449
32916ION     NA48533   1.126   5.752  11.540 -0.2028  0.3022  0.2025
32917ION     NA48534  13.925   4.290  11.182 -0.0374 -0.1451  0.1503
32918ION     NA48535   7.584  12.974   3.337  0.0715 -0.0192 -0.1079
32919ION     NA48536  14.223   8.646   5.301  0.1346 -0.0320  0.1089
32920ION     NA48537  15.360   2.226   6.278 -0.1200  0.0573  0.0720
32921ION     NA48538   4.930  17.098  10.894 -0.1985  0.2949 -0.1315
32922ION     NA48539   4.717  11.361  11.128 -0.0289  0.2718 -0.0746
32923ION     NA48540   4.432   8.318  11.339  0.1525  0.1983 -0.0157
32924ION     NA48541   3.870   0.578   6.362  0.1333 -0.1992 -0.0375
32925ION     NA48542   7.794   6.353  11.114  0.0015 -0.1231 -0.3866
32926ION     NA48543   1.865   6.162  11.385  0.2325 -0.1854 -0.0753
32927ION     NA48544  11.623  12.100  11.000  0.1519 -0.2001  0.0050
32928ION     NA48545   2.543  13.152   5.750 -0.1422  0.0629  0.2384
32929ION     NA48546   4.172   1.717  11.241  0.1130  0.0776  0.0746
32930ION     NA48547  12.649  10.534  16.246 -0.2058  0.0173  0.0140
32931ION     NA48548  14.791  12.720  11.057  0.0751 -0.0096  0.1159
32932ION     NA48549   6.498  10.158   6.040  0.0299  0.0356  0.0986
32933ION     NA48550   7.003  13.987   0.751 -0.1454  0.3479  0.3849
32934ION     NA48551  13.104  11.544   4.940  0.1655  0.0844 -0.2836
32935ION     NA48552  16.290  13.465   6.165 -0.0592 -0.3074 -0.0819
32936ION     NA48553  12.132   9.296  11.149 -0.0821  0.0525 -0.1922
32937ION     NA48554  15.528  13.328   5.454  0.1335  0.1883  0.2825
32938ION     NA48555  16.432   3.055   0.256 -0.0040  0.1141 -0.0683
32939ION     NA48556   6.045   4.936   3.151  0.0668  0.2261 -0.0678
32940ION     NA48557   1.108   2.620  11.207  0.3282  0.1437  0.4766
32941ION     NA48558   6.997   0.789   6.017  0.1717  0.1519  0.0901
32942ION     NA48559   4.929  15.455  11.113 -0.0715 -0.2482  0.3075
32943ION     NA48560   4.169  10.555  11.516 -0.0768  0.0162 -0.0822
32944ION     NA48561   2.981  15.844   6.212 -0.1481  0.1779 -0.2262
32945ION     NA48562  12.016  15.759  13.518 -0.2635  0.1149  0.1918
32946ION     NA48563   6.487  12.975   5.648 -0.1487  0.0044 -0.1915
32947ION     NA48564   8.307  10.068  10.940  0.1223  0.0960 -0.1430
32948ION     NA48565   8.357  14.332  10.227  0.0980  0.1243  0.1099
32949ION     NA48566  14.778  12.164   6.275  0.0909 -0.3799 -0.0760
32950ION     NA48567  14.292  14.583   5.973  0.0531 -0.1531  0.0308
32951ION     NA48568  12.244   5.656  11.112 -0.2716  0.0632 -0.2883
32952ION     NA48569  10.144  16.216   0.954 -0.1154  0.3166 -0.0695
32953ION     NA48570   1.499   0.980  10.962  0.0187 -0.1196  0.1032
32954ION     NA48571   0.840   6.306  11.697 -0.1665  0.1271  0.1439
32955ION     NA48572   4.435  13.125  11.124 -0.1269  0.0055  0.0920
32956ION     NA48573  14.558   9.439   6.213  0.1576 -0.3406 -0.2959
32957ION     NA48574  15.037   8.980  11.244  0.0799 -0.1708  0.0885
32958ION     NA48575   5.261   0.871   5.406 -0.0391  0.0364 -0.0035
32959ION     NA48576  13.951   4.020  17.061  0.5013 -0.1705  0.2818
32960ION     NA48577  10.933   3.295   1.566  0.4197  0.2075 -0.1361
32961ION     NA48578  15.631   1.468  11.518 -0.0075 -0.0535  0.1004
32962ION     NA48579  15.924  13.771  10.980  0.0919 -0.2252  0.0702
32963ION     NA48580   4.653  15.310   6.028 -0.0109  0.2453 -0.1645
32964ION     NA48581  17.594   8.928   6.465 -0.2986  0.3636 -0.0517
32965ION     NA48582  16.440  13.509  12.110 -0.2111 -0.0537 -0.0729
32966ION     NA48583   3.719  11.719  11.347 -0.2530 -0.2809 -0.0048
32967ION     NA48584  14.200   1.267   1.525  0.0749 -0.1496  0.1627
32968ION     NA48585   9.742  10.392  13.345  0.1676  0.0257  0.1458
32969ION     NA48586   3.163   4.535   2.434 -0.2195 -0.0532  0.5352
32970ION     NA48587  13.585   3.843  11.356  0.1417 -0.2040  0.1715
32971ION     NA48588  13.386  13.438   6.376 -0.0652  0.0705 -0.1136
32972ION     NA48589   7.908  14.909   3.708 -0.0777  0.0900 -0.0761
32973ION     NA48590  16.532   9.825  11.394 -0.0000 -0.1574 -0.1769
32974ION     NA48591   4.370  15.451  11.078 -0.0049 -0.2513  0.1564
32975ION     NA48592   9.324   7.754   6.332  0.0027  0.0086  0.1373
32976ION     NA48593   3.793   2.576  11.297  0.1353 -0.0231  0.2046
32977ION     NA48594   3.563   9.614  15.297  0.1890 -0.2662  0.0275
32978ION     NA48595   8.981  14.873  10.106  0.0680  0.0330 -0.0404
32979ION     NA48596   0.853   9.743  11.404 -0.0946  0.2727 -0.2836
32980ION     NA48597  11.472  13.412  10.848 -0.0623  0.1820 -0.3302
32981ION     NA48598  15.868  11.151  11.122  0.4094  0.1845 -0.1282
32982ION     NA48599   0.826   4.115  11.488 -0.0856  0.0312 -0.2436
32983ION     NA48600  10.538   1.645  14.226  0.0672 -0.0053  0.0062
32984ION     NA48601   3.335   9.286  16.077 -0.1860 -0.1920  0.0531
32985ION     NA48602  10.861   9.572   6.514 -0.3122 -0.0382 -0.0130
32986ION     NA48603   9.258  13.324  15.888 -0.1703  0.1016 -0.0635
32987ION     NA48604  13.177   9.233   0.507  0.0214 -0.2219 -0.0885
32988ION     NA48605   7.580  13.731  10.282  0.1110  0.2870 -0.2517
32989ION     NA48606  11.634   8.576  11.244 -0.0343 -0.1161  0.2714
32990ION     NA48607  17.398  15.821  10.844 -0.0426  0.0837  0.2879
32991ION     NA48608   2.781  11.648  11.396 -0.2754 -0.1849 -0.1155
32992ION     NA48609  15.447   3.753  11.186 -0.1156  0.1629 -0.2781
32993ION     NA48610   8.806   0.699  10.478 -0.0979  0.1873 -0.0437
32994ION     NA48611  11.796  11.332  10.978 -0.0510 -0.1455  0.1112
32995ION     NA48612   0.672   6.805  11.531  0.2561 -0.0448 -0.0443
32996ION     NA48613  10.482   7.946  14.502  0.2942 -0.1191  0.0014
32997ION     NA48614   9.013  15.306   2.531 -0.1331 -0.3219 -0.0669
32998ION     NA48615   8.726  14.678  16.921 -0.0173 -0.1159 -0.1702
32999ION     NA48616  12.693  15.170  16.376  0.2386 -0.0639  0.0859
33000ION     NA48617   4.339  10.562   5.634 -0.1825  0.1081  0.0037
33001ION     NA48618   2.293   1.248   6.508 -0.0241  0.1659  0.2690
33002ION     NA48619   0.104   4.477  15.343  0.0972  0.1385 -0.1277
33003ION     NA48620   6.514  14.880  10.540  0.1851  0.4158  0.0329
33004ION     NA48621  11.343  12.765   6.071  0.1671 -0.2077  0.0934
33005ION     NA48622  10.322   3.826  10.841  0.0882  0.2901 -0.3735
33006ION     NA48623   2.917  14.765  11.015 -0.2413  0.4004  0.1970
33007ION     NA48624  10.927   4.922  10.982 -0.0250 -0.2055  0.0916
33008ION     NA48625   3.727   7.747  11.320  0.3026  0.0342 -0.1741
33009ION     NA48626   5.243  10.969  12.916 -0.0333 -0.0243  0.3582
33010ION     NA48627   7.832   5.412   6.470 -0.0337 -0.0112 -0.2094
33011ION     NA48628  12.410   1.664  12.690  0.0719  0.1410  0.0697
33012ION     NA48629  15.987  16.259   5.938 -0.0304  0.0928 -0.1485
33013ION     NA48630  16.872  14.862  10.835 -0.1368  0.1903  0.1000
33014ION     NA48631   1.518   1.862  10.920  0.2271  0.1003 -0.1985
33015ION     NA48632   4.833  14.047   3.105 -0.3307 -0.2881 -0.0313
33016ION     NA48633  13.156   5.493  11.192  0.2177 -0.2528 -0.0453
33017ION     NA48634   5.530   0.859  10.857  0.0794 -0.0926 -0.1035
33018ION     NA48635  13.318   3.003  10.948 -0.0900 -0.1465 -0.2812
33019ION     NA48636   4.495  12.606   2.082 -0.4803  0.2029  0.0087
33020ION     NA48637   7.087   2.107  10.861  0.0169 -0.1698  0.2644
33021ION     NA48638  16.843   5.145   5.551  0.2429 -0.1786 -0.0743
33022ION     NA48639  17.138   0.873  10.880  0.3281  0.0375 -0.1026
33023ION     NA48640   7.336  10.453  11.117 -0.0607  0.2371  0.3626
33024ION     NA48641   5.225   2.751   6.504 -0.2655  0.0308 -0.1637
33025ION     NA48642   0.790   8.255  16.397 -0.0323 -0.4391 -0.1554
33026ION     NA48643   6.597   7.468  10.994  0.0138 -0.3071 -0.0544
33027ION     NA48644  14.826   5.731   4.049 -0.0618 -0.0791  0.1209
33028ION     NA48645   4.995   1.855  11.049  0.2981 -0.2273  0.0394
33029ION     NA48646  13.395  17.179  10.671 -0.0620 -0.1153 -0.0774
33030ION     NA48647   3.192  11.269  14.058 -0.0092 -0.2356 -0.0027
33031ION     NA48648   3.577  17.382  14.367  0.2659  0.0404 -0.2765
33032ION     NA48649   3.855   8.279  13.368  0.2600 -0.3123  0.0067
33033ION     NA48650   0.836   8.705  11.724  0.0765  0.0494 -0.0795
33034ION     NA48651   0.077  11.275  11.132  0.4105 -0.2986 -0.0792
33035ION     NA48652   8.996  10.876  11.129 -0.2634  0.1243 -0.1473
33036ION     NA48653   0.433   2.786  14.414  0.0786  0.1529 -0.2370
33037ION     NA48654   5.008   0.301   1.158  0.0485 -0.0360 -0.1049
33038ION     NA48655   0.379  10.537  11.151  0.1439 -0.1403 -0.0747
33039ION     NA48656  14.417   2.368  10.942  0.0740 -0.2581 -0.0171
33040ION     NA48657   4.723  11.408  13.409  0.0777  0.6420  0.3519
33041ION     NA48658  14.624   3.972  11.556  0.1085 -0.1606  0.1132
33042ION     NA48659   0.285  15.085   3.915  0.1424  0.1694  0.1312
33043ION     NA48660   3.678  16.296  12.706  0.1082  0.1011  0.1891
33044ION     NA48661  13.050  14.723  11.010  0.1316 -0.0745  0.1603
33045ION     NA48662  10.910   9.133  11.298 -0.0432  0.0785  0.1163
33046ION     NA48663  15.678  10.244  11.170  0.0749 -0.0664 -0.1650
33047ION     NA48664   6.414  10.784   5.633 -0.1072 -0.1631  0.0917
33048ION     NA48665   5.336   9.949  11.087 -0.2314 -0.1202  0.1966
33049ION     NA48666  10.694   1.398  10.377  0.1404 -0.1058  0.0915
33050ION     NA48667   4.932   5.053  11.272 -0.0944  0.0634 -0.0394
33051ION     NA48668  16.448   6.018   3.340  0.1461 -0.1920  0.0227
33052ION     NA48669   0.179   7.420  11.421  0.0256 -0.2591 -0.1471
33053ION     NA48670   0.882   6.181  14.204  0.2002  0.0236  0.2086
33054ION     NA48671   9.556   1.914   1.421  0.1975 -0.0569  0.3114
33055ION     NA48672   9.541   1.038  10.952 -0.2322  0.1751 -0.0816
33056ION     NA48673   3.784  13.546  11.289  0.3970  0.0350  0.2721
33057ION     NA48674   3.290   0.075  10.998  0.0654  0.2155  0.2010
33058ION     NA48675   3.844  10.070  11.371 -0.0679  0.1524  0.2198
33059ION     NA48676   5.014   7.750  11.534  0.1090  0.2208  0.0886
33060ION     NA48677   9.820   0.087  11.007 -0.1331  0.0345  0.1067
33061ION     NA48678   7.741   4.666  14.381 -0.1499  0.2367 -0.1560
33062ION     NA48679   3.930   2.777   4.312 -0.0234 -0.2760 -0.1527
33063ION     NA48680   5.944   6.917  12.916 -0.1602 -0.0942  0.0326
33064ION     NA48681  10.016  13.366  10.575  0.2979 -0.2475  0.1041
33065ION     NA48682   4.411   7.311   6.908  0.2654 -0.2942 -0.0461
33066ION     NA48683   5.516   1.177  11.585 -0.0143  0.2369  0.0032
33067ION     NA48684   5.848   8.555   6.284 -0.0570  0.0973 -0.2966
33068ION     NA48685  13.803  16.439  10.591 -0.2065 -0.1664 -0.0696
33069ION     NA48686   9.508  12.889   5.927 -0.4416  0.1356 -0.1767
33070ION     NA48687   5.475   9.875  16.907 -0.0524 -0.1143 -0.0001
33071ION     NA48688  11.548   9.115   5.207  0.1054  0.0933  0.1856
33072ION     NA48689   7.363  15.292  12.370  0.0380 -0.0762 -0.0812
33073ION     NA48690   4.122   6.275   4.679  0.1381  0.0881 -0.1931
33074ION     NA48691   7.268  15.047  10.204  0.1749  0.1859 -0.1155
33075ION     NA48692  14.140   9.408   6.539 -0.1151  0.0568  0.0940
33076ION     NA48693  10.013   5.775   2.843  0.0873  0.0540  0.0524
33077ION     NA48694   1.826   3.133  11.515  0.2258  0.0185 -0.1149
33078ION     NA48695   9.529  13.524   4.432 -0.0691 -0.3300  0.1149
33079ION     NA48696  13.777  16.319  12.902 -0.0870  0.2901  0.0794
33080ION     NA48697   7.770  13.962   3.581  0.2249  0.2718 -0.1657
33081ION     NA48698   0.723   8.175  11.576 -0.1504  0.4104  0.1951
33082ION     NA48699   1.500  11.823   6.405 -0.1669 -0.0478  0.0705
33083ION     NA48700  14.995   6.003  11.594 -0.1977 -0.4447  0.1881
33084ION     NA48701   6.537   1.391  10.539  0.0733  0.1079 -0.0689
33085ION     NA48702   3.124  12.541   6.203  0.0811 -0.1100  0.1670
33086ION     NA48703   9.056   7.273  10.975  0.0841  0.3183  0.2874
33087ION     NA48704  15.415  10.946   5.424 -0.0125 -0.0553  0.1749
33088ION     NA48705   4.968   5.910  11.297  0.1640 -0.1080  0.0518
33089ION     NA48706   6.352   3.135  10.921 -0.1513  0.2217 -0.0349
33090ION     NA48707  12.944   4.411  12.798  0.0565 -0.2307  0.1583
33091ION     NA48708   9.846   6.523   6.519 -0.0615 -0.2238  0.0883
33092ION     NA48709   5.619   5.476   0.453 -0.0386  0.0891  0.0845
33093ION     NA48710  14.191   8.263   0.970 -0.2529 -0.0093 -0.0640
33094ION     NA48711   4.734   2.439  12.562 -0.1553 -0.0070  0.1247
33095ION     NA48712   5.834   3.552   1.673 -0.0478  0.0629  0.1158
33096ION     NA48713  15.580   0.739  16.841 -0.1168 -0.0361  0.1170
33097ION     NA48714   9.194   1.594  10.360 -0.0032  0.0932 -0.0157
33098ION     NA48715   4.542   3.251   0.431  0.1730 -0.1326 -0.1289
33099ION     NA48716  13.273   1.310  10.676 -0.0220  0.3113  0.1122
33100ION     NA48717   7.969   8.704   5.818  0.0706  0.0126 -0.0905
33101ION     NA48718  12.311   0.186  10.546 -0.1097  0.1396  0.0082
33102ION     NA48719  17.125   7.981  11.232 -0.0290  0.1100 -0.1107
33103ION     NA48720  11.649  17.320  15.306 -0.0261 -0.1731  0.1160
33104ION     NA48721  13.774   9.893  11.224 -0.1839 -0.2273 -0.4544
33105ION     NA48722  15.313   1.656  15.778 -0.1564 -0.0545 -0.2048
33106ION     NA48723   8.041   1.177  10.437 -0.0144 -0.2365 -0.1811
33107ION     NA48724  10.343   8.831   6.401 -0.0158 -0.4852  0.2609
33108ION     NA48725  10.034   3.471  10.670  0.6621  0.2702 -0.1219
33109ION     NA48726   0.900  14.881   6.372 -0.2045 -0.3691  0.1052
33110ION     NA48727   3.503   8.158   6.504 -0.0319  0.0481  0.2683
33111ION     NA48728   0.547   9.632   5.046 -0.0630 -0.0012 -0.1165
33112ION     NA48729   5.808  16.769  10.726 -0.0802 -0.3003 -0.0144
33113ION     NA48730   0.315   0.348   6.264 -0.0619  0.3906 -0.0450
33114ION     NA48731   2.045   6.629  17.082  0.1333  0.2100 -0.1076
33115ION     NA48732   1.599   9.232  11.613 -0.2455 -0.0680  0.0779
33116ION     NA48733  16.923   4.047  11.306 -0.2605  0.2866 -0.0203
33117ION     NA48734   0.105   4.821  11.506  0.0821  0.2636  0.4011
33118ION     NA48735  16.555   2.196   3.029 -0.0920 -0.1165  0.1537
33119ION     NA48736  14.327   7.910  11.329 -0.0436  0.0707 -0.1168
33120ION     NA48737  15.767  11.001  16.033  0.1388  0.0462 -0.0968
33121ION     NA48738  10.103   8.599  11.142  0.2130  0.1881  0.2037
33122ION     NA48739   3.772   0.664  11.263 -0.2210  0.4229 -0.1650
33123ION     NA48740   2.427  14.838   2.205  0.0231  0.0113 -0.0233
33124ION     NA48741   7.196  14.231  10.421 -0.1168 -0.1032  0.0912
33125ION     NA48742  15.589   2.845  10.915 -0.0704 -0.1177  0.0957
33126ION     NA48743  12.715   7.533  11.116  0.0787 -0.2313 -0.1191
33127ION     NA48744   7.460   3.329  10.901 -0.1594 -0.1221  0.2987
33128ION     NA48745   8.370   4.708   3.816  0.0146 -0.0276  0.1662
33129ION     NA48746  12.677  16.066   3.483 -0.0603  0.0539 -0.0439
33130ION     NA48747   0.855   2.114   6.377 -0.1743  0.2811  0.0416
33131ION     NA48748  15.442   2.364  11.153 -0.1782  0.1801 -0.0342
33132ION     NA48749  16.697   6.769  11.572  0.1326  0.1461  0.1737
33133ION     NA48750   0.779   0.959   6.424 -0.1160  0.2729  0.0060
33134ION     NA48751   1.807   9.910  14.672 -0.0398 -0.2594  0.0427
33135ION     NA48752   9.520   9.231   6.552  0.0192 -0.0179  0.0777
33136ION     NA48753   8.170   2.850  10.644 -0.0150 -0.2395 -0.0211
33137ION     NA48754   4.780   8.731  11.347 -0.2443  0.0819  0.1417
33138ION     NA48755   8.234   2.342  11.686 -0.0622  0.2339  0.0044
33139ION     NA48756   2.893  12.962  11.079 -0.1899  0.0936 -0.1414
33140ION     NA48757   1.042   7.811   3.951 -0.1478  0.0416  0.5021
33141ION     NA48758  11.219  16.122  10.327 -0.3889  0.0924  0.0220
33142ION     NA48759   7.682  16.289  12.369  0.0702 -0.2370 -0.0046
33143ION     NA48760  17.058   4.950  11.265  0.3499  0.2005 -0.0754
33144ION     NA48761  12.962   1.334   5.614 -0.0660 -0.0693 -0.0323
33145ION     NA48762  16.331   3.641   6.271  0.1295 -0.0355 -0.2325
33146ION     NA48763  15.358   0.185   5.883  0.2644  0.0029 -0.0923
33147ION     NA48764  11.669   1.144   3.518 -0.1890 -0.0381 -0.1315
33148ION     NA48765   8.037   3.484   0.248  0.0327  0.2130  0.2946
33149ION     NA48766   5.274  16.013   6.444  0.0662  0.0738  0.4551
33150ION     NA48767   7.265   8.002  11.000 -0.0259  0.1449 -0.2077
33151ION     NA48768   2.573   7.413   3.117 -0.0648  0.0799 -0.1223
33152ION     NA48769  12.416  16.856   5.728  0.1464  0.0786 -0.1232
33153ION     NA48770  12.298  12.490   6.157  0.2912  0.1984 -0.1378
33154ION     NA48771   1.765   8.094  14.464  0.0107  0.0793 -0.0088
33155ION     NA48772  16.057  16.319  10.813  0.1037  0.1338 -0.3046
33156ION     NA48773   8.798  12.397  10.798 -0.2024  0.0013  0.4238
33157ION     NA48774   2.844  17.428   1.139  0.0565  0.1748  0.1018
33158ION     NA48775  14.663   1.295   6.079  0.0059 -0.2285  0.0603
33159ION     NA48776   2.936  15.505  13.235 -0.0765  0.1492 -0.0390
33160ION     NA48777  13.161   2.620   5.807 -0.0272  0.1513  0.4233
33161ION     NA48778   2.367   2.678   4.101 -0.4717 -0.0897  0.3000
33162ION     NA48779  13.043   5.061   6.418 -0.0624  0.4132  0.0021
33163ION     NA48780   7.387   2.495  10.482 -0.1653  0.0355 -0.0792
33164ION     NA48781   9.596   7.345  11.056  0.4653 -0.1777  0.0100
33165ION     NA48782  10.801   3.961  11.108 -0.3780  0.0083 -0.0598
33166ION     NA48783  10.019   5.662   6.365  0.0486  0.2107 -0.2561
33167ION     NA48784  12.314  14.849  10.655 -0.1088  0.0672 -0.0512
33168ION     NA48785  11.746   4.424   6.358  0.1924 -0.0562 -0.0986
33169ION     NA48786   1.944  12.084  11.207  0.2614  0.2473  0.3312
33170ION     NA48787   7.873  13.568   2.767 -0.1839 -0.1947  0.1045
33171ION     NA48788  16.744  13.226  10.728 -0.2559  0.0297 -0.2845
33172ION     NA48789  12.675  12.397  11.153 -0.2317  0.0148 -0.2567
33173ION     NA48790  16.084   7.526  13.268 -0.0297  0.0255 -0.2193
33174ION     NA48791  10.539   5.809   4.030  0.4173 -0.2775  0.0164
33175ION     NA48792   3.242   1.241   6.538 -0.1655  0.1359 -0.2473
33176ION     NA48793   4.843   6.959  11.289 -0.2901  0.1093  0.3039
33177ION     NA48794  15.249   7.986  11.440 -0.0667  0.0043  0.0281
33178ION     NA48795   9.668  15.854  16.995  0.1846 -0.1417 -0.1083
33179ION     NA48796  14.503  13.787  14.365 -0.1132 -0.1614 -0.0283
33180ION     NA48797   5.332  11.851  15.044  0.0037 -0.1973 -0.0003
33181ION     NA48798   2.563   6.595  11.383  0.2060 -0.0357  0.2653
33182ION     NA48799  13.547   2.967  15.486  0.2055 -0.0334  0.1161
33183ION     NA48800  11.477  15.342  10.707  0.0063  0.0787 -0.1065
33184ION     NA48801  15.132   0.925  10.963 -0.0998  0.1584 -0.0702
33185ION     NA48802   3.463   4.650   6.554 -0.2703 -0.0146 -0.2099
33186ION     NA48803   8.322   2.144  10.577  0.0595 -0.0900  0.0819
33187ION     NA48804  10.327   6.845  11.044 -0.3189  0.1759  0.0494
33188ION     NA48805   0.894  11.103  11.150 -0.3032  0.0478  0.0640
33189ION     NA48806   8.954   5.743  10.943  0.1591  0.1068 -0.0795
33190ION     NA48807   7.562  14.549   4.229  0.0675 -0.1408  0.3617
33191ION     NA48808  12.085   0.042   6.058  0.1274 -0.1367 -0.4384
33192ION     NA48809   6.847   6.552  11.122  0.0454  0.2119  0.0162
33193ION     NA48810  12.071   6.968  11.047 -0.0357 -0.0138 -0.0319
33194ION     NA48811   1.109  11.840  11.500 -0.0242  0.1434 -0.0734
33195ION     NA48812  10.370  15.500  10.199 -0.0339 -0.3025  0.1078
33196ION     NA48813  16.414   5.468  11.165  0.0614 -0.1540  0.1551
33197ION     NA48814   2.549  13.968  15.725  0.1029 -0.0259 -0.2211
33198ION     NA48815   4.522  14.065  11.156  0.2516 -0.0935 -0.1050
33199ION     NA48816  14.669  13.255  10.939  0.3029  0.0682 -0.1309
33200ION     NA48817   6.420   2.183  10.514 -0.0453  0.1376  0.6109
33201ION     NA48818  10.415   7.770  11.129  0.3154 -0.2649  0.1568
33202ION     NA48819  10.582  14.057  11.959 -0.2824  0.1890  0.1580
33203ION     NA48820  10.706   2.930   5.636  0.3709 -0.2488 -0.2209
33204ION     NA48821   7.683  13.215  15.923 -0.0401  0.2020  0.1565
33205ION     NA48822   1.383  14.026  10.957  0.2624  0.0615 -0.1945
33206ION     NA48823   7.392  14.224   5.826 -0.0656  0.1180  0.3455
33207ION     NA48824   1.959  15.337   1.563  0.2320 -0.4104  0.0894
33208ION     NA48825   5.623  14.766  10.955  0.0667 -0.2045 -0.1980
33209ION     NA48826  14.260   5.664  11.272 -0.0349 -0.1597 -0.2863
33210ION     NA48827  13.710  10.827   6.595 -0.0423 -0.0541  0.2012
33211ION     NA48828   9.372   7.750  17.056 -0.2064 -0.0056 -0.0473
33212ION     NA48829   3.526   9.217   6.755  0.2751 -0.3123 -0.0035
33213ION     NA48830   9.484   4.268  10.846 -0.1428  0.3402  0.2197
33214ION     NA48831   7.416   1.763   1.600 -0.1276  0.1631 -0.2511
33215ION     NA48832  13.009  15.786  11.025  0.0523 -0.0954  0.1383
33216ION     NA48833   2.118   6.114   2.533 -0.2371  0.0243  0.1400
33217ION     NA48834   4.594   9.197   2.499 -0.2587 -0.0428  0.1635
33218ION     NA48835   9.969   1.875  10.390 -0.2107  0.0690 -0.0226
33219ION     NA48836  12.602   3.956  11.041 -0.0159 -0.0755  0.2592
33220ION     NA48837  11.505   4.493   1.853 -0.1412 -0.1039  0.1639
33221ION     NA48838  10.628   5.591  11.272 -0.0966  0.0823 -0.4730
33222ION     NA48839   4.649   0.948  11.176  0.3823  0.4518  0.1787
33223ION     NA48840   4.873   4.057  17.149 -0.0629  0.2787  0.1116
33224ION     NA48841  15.196  16.263  10.790  0.0943  0.0610 -0.1581
  17.61800  17.61800  17.30038
