INSANE! Membrane UpperLeaflet>loPI:POPI:DPPI:PYPI:ERGO=180.0:5.0:3.0:2.0:10.0 LowerLeaflet>PSPI:POPI:POPS:YOPS:POPE:YOPE:POPC:YOPC:ERGO=6.0:14.0:21.0:9.0:9.0:21.0:12.0:48.0:60.0
48841
    1loPI    C1    1   7.248   2.417  10.991 -0.0512  0.0229 -0.1402
    1loPI    C2    2   7.383   2.678  11.262 -0.0573 -0.1238  0.0055
    1loPI    C3    3   7.215   2.335  11.381 -0.2006 -0.1202 -0.1815
    1loPI   PO4    4   7.262   2.483  10.725  0.2631 -0.0341 -0.0122
    1loPI   GL1    5   7.560   2.694  10.459  0.1030 -0.1869 -0.1296
    1loPI   GL2    6   7.297   2.898  10.315  0.0114  0.1676  0.0423
    1loPI   C1A    7   7.896   2.788  10.086  0.0850 -0.2847  0.0934
    1loPI   C2A    8   7.837   2.725   9.635  0.0586 -0.0137 -0.2395
    1loPI   C3A    9   7.773   2.898   9.126  0.1904  0.1382 -0.1880
    1loPI   C4A   10   7.768   3.256   8.828 -0.1006  0.1484  0.2915
    1loPI   C5A   11   7.551   3.114   8.452  0.1310  0.2752 -0.1761
    1loPI   C6A   12   7.097   3.223   8.295  0.0069 -0.1260  0.2893
    1loPI   C1B   13   7.340   2.951   9.858  0.1657  0.0526 -0.0165
    1loPI   C2B   14   7.382   3.025   9.400  0.0225 -0.0486 -0.1478
    1loPI   C3B   15   7.322   3.182   8.928 -0.2494  0.1768 -0.0188
    1loPI   C4B   16   7.257   2.805   8.763  0.1799  0.2009 -0.0395
    2loPI    C1   17  15.474   2.631  10.830 -0.1007 -0.0300  0.0863
    2loPI    C2   18  15.379   3.010  10.915  0.1883  0.0611  0.0174
    2loPI    C3   19  15.235   2.712  11.140 -0.2228  0.1919 -0.0628
    2loPI   PO4   20  15.469   2.645  10.596  0.0645  0.2231  0.1594
    2loPI   GL1   21  15.469   2.829  10.194  0.0657 -0.0879 -0.0099
    2loPI   GL2   22  15.541   2.974   9.985 -0.2604  0.2765 -0.0619
    2loPI   C1A   23  15.129   2.777   9.971 -0.2496  0.0846  0.1920
    2loPI   C2A   24  15.023   2.737   9.533 -0.0638 -0.0278  0.2405
    2loPI   C3A   25  15.200   2.847   9.210  0.0279 -0.2874 -0.1644
    2loPI   C4A   26  15.188   2.933   8.740  0.0352  0.0682  0.0520
    2loPI   C5A   27  15.088   2.738   8.413 -0.3609  0.1116  0.2129
    2loPI   C6A   28  14.893   2.594   7.999 -0.1084  0.4035 -0.0331
    2loPI   C1B   29  15.493   2.964   9.597 -0.2090  0.2564  0.0191
    2loPI   C2B   30  15.657   2.981   9.159 -0.2781 -0.0502  0.1712
    2loPI   C3B   31  15.681   2.999   8.737 -0.0275 -0.0196 -0.2045
    2loPI   C4B   32  15.936   3.175   8.398  0.0321 -0.2012  0.0591
    3loPI    C1   33  13.489  14.874  10.895 -0.3290 -0.0291 -0.0847
    3loPI    C2   34  13.451  15.251  11.022 -0.0740  0.0173 -0.1394
    3loPI    C3   35  13.545  14.962  11.281 -0.0270  0.0323 -0.1397
    3loPI   PO4   36  13.618  14.981  10.650 -0.1899  0.0372 -0.0934
    3loPI   GL1   37  13.837  14.950  10.257 -0.0650 -0.0591  0.2035
    3loPI   GL2   38  13.801  14.716  10.107 -0.2824 -0.0715 -0.2183
    3loPI   C1A   39  14.031  15.138  10.025  0.2010  0.0556  0.0069
    3loPI   C2A   40  14.033  15.225   9.575  0.0565  0.1897  0.0876
    3loPI   C3A   41  14.068  15.310   9.101 -0.4097 -0.0847 -0.1054
    3loPI   C4A   42  14.185  15.539   8.752 -0.1403  0.0901 -0.0440
    3loPI   C5A   43  14.131  15.554   8.313 -0.2900  0.0169 -0.0595
    3loPI   C6A   44  14.125  15.743   7.914 -0.1505  0.1283  0.0937
    3loPI   C1B   45  13.647  14.910   9.734 -0.0495 -0.3883 -0.0841
    3loPI   C2B   46  13.580  15.082   9.367  0.0907 -0.0508 -0.2458
    3loPI   C3B   47  13.482  15.211   9.005 -0.1255  0.1743  0.0699
    3loPI   C4B   48  13.681  15.494   8.660  0.1011 -0.0337 -0.0123
    4loPI    C1   49   1.343   3.416  10.941  0.0251  0.0600 -0.3004
    4loPI    C2   50   1.570   3.644  11.177 -0.1425  0.0798 -0.1558
    4loPI    C3   51   1.723   3.314  11.010  0.0354  0.1757 -0.1849
    4loPI   PO4   52   1.240   3.615  10.771  0.0848  0.0112 -0.3297
    4loPI   GL1   53   1.289   3.945  10.464 -0.0694 -0.0650 -0.0797
    4loPI   GL2   54   0.990   3.806  10.351  0.3234 -0.0985  0.3825
    4loPI   C1A   55   1.482   3.972  10.073  0.0056  0.0712 -0.0963
    4loPI   C2A   56   1.477   4.079   9.651 -0.2270 -0.1292 -0.0991
    4loPI   C3A   57   1.557   4.100   9.263  0.2970 -0.0986  0.0298
    4loPI   C4A   58   1.563   4.044   8.908 -0.1772  0.1010 -0.0647
    4loPI   C5A   59   1.522   3.834   8.610 -0.2317 -0.0194 -0.0677
    4loPI   C6A   60   1.396   3.400   8.355  0.4820  0.2959 -0.1087
    4loPI   C1B   61   1.019   3.827   9.962 -0.2936  0.0460 -0.2116
    4loPI   C2B   62   1.033   3.869   9.537 -0.1936 -0.1738 -0.1093
    4loPI   C3B   63   0.984   3.811   9.212  0.1629  0.0745  0.3557
    4loPI   C4B   64   0.948   3.850   8.806  0.1997 -0.1366  0.2013
    5loPI    C1   65   5.318  17.814  10.216 -0.2192 -0.1175  0.1821
    5loPI    C2   66   5.533  17.710  10.537  0.1003  0.1762  0.0696
    5loPI    C3   67   5.201  17.930  10.580  0.0544  0.0802  0.2103
    5loPI   PO4   68   5.589  17.805   9.995  0.1271  0.1449 -0.0703
    5loPI   GL1   69   5.918  18.085   9.875  0.1930  0.0029 -0.0206
    5loPI   GL2   70   6.288  18.026   9.805 -0.0300  0.1723  0.1828
    5loPI   C1A   71   5.970  18.212   9.483 -0.1667  0.2147 -0.3008
    5loPI   C2A   72   6.248  18.361   9.212 -0.0284  0.2094  0.0962
    5loPI   C3A   73   6.273  18.398   8.766  0.0762  0.0646  0.1338
    5loPI   C4A   74   6.309  18.770   8.436  0.1109  0.4727  0.0354
    5loPI   C5A   75   6.505  19.146   8.308  0.0896  0.3786  0.1528
    5loPI   C6A   76   6.745  19.536   8.276 -0.1385 -0.0188 -0.3726
    5loPI   C1B   77   6.679  18.246   9.485 -0.1221  0.0878 -0.2495
    5loPI   C2B   78   6.753  18.245   9.027  0.0674  0.0292 -0.1689
    5loPI   C3B   79   6.717  18.160   8.633 -0.2908  0.0151 -0.0522
    5loPI   C4B   80   6.843  17.771   8.411  0.0730  0.0446  0.1216
    6loPI    C1   81   2.552   6.474  11.096  0.4469  0.0568  0.0062
    6loPI    C2   82   2.433   6.208  11.370  0.2061 -0.1376 -0.2806
    6loPI    C3   83   2.479   6.592  11.472  0.0455 -0.1927  0.0128
    6loPI   PO4   84   2.385   6.389  10.844  0.1561 -0.0450 -0.0682
    6loPI   GL1   85   2.564   6.315  10.407 -0.3847 -0.1310 -0.0479
    6loPI   GL2   86   2.252   6.338  10.386 -0.0228 -0.1115 -0.1033
    6loPI   C1A   87   2.587   6.215   9.979 -0.1431 -0.4753 -0.2698
    6loPI   C2A   88   2.710   5.983   9.535  0.0907 -0.1000 -0.2030
    6loPI   C3A   89   2.984   6.063   9.168  0.0514 -0.1674  0.1806
    6loPI   C4A   90   3.204   5.998   8.795  0.3053  0.0174 -0.3249
    6loPI   C5A   91   3.345   5.694   8.355 -0.0130 -0.0994 -0.1104
    6loPI   C6A   92   3.727   5.416   8.308  0.2492  0.1462  0.1315
    6loPI   C1B   93   2.078   6.500  10.013 -0.1689  0.0124 -0.0367
    6loPI   C2B   94   1.934   6.623   9.632 -0.1992 -0.1307  0.2043
    6loPI   C3B   95   1.918   6.511   9.211 -0.0351 -0.0992  0.2127
    6loPI   C4B   96   1.850   6.525   8.762  0.1253 -0.0290  0.0754
    7loPI    C1   97  11.940  12.303  10.923  0.0887  0.1510  0.1112
    7loPI    C2   98  12.203  12.237  11.217  0.1689 -0.1044 -0.0145
    7loPI    C3   99  11.847  12.054  11.223  0.1701 -0.1086 -0.0761
    7loPI   PO4  100  12.021  12.218  10.713 -0.2813 -0.2194  0.0635
    7loPI   GL1  101  11.937  11.998  10.374 -0.1500 -0.2068  0.3216
    7loPI   GL2  102  12.022  11.708  10.207  0.1293 -0.0803 -0.1163
    7loPI   C1A  103  11.652  12.309  10.072  0.1274 -0.1433  0.0863
    7loPI   C2A  104  11.645  12.341   9.666 -0.0823 -0.0388  0.0194
    7loPI   C3A  105  11.986  12.141   9.445 -0.1733 -0.1507 -0.1421
    7loPI   C4A  106  12.030  12.144   8.956 -0.0368  0.2615  0.0652
    7loPI   C5A  107  12.426  12.176   8.653  0.3365  0.1182  0.3279
    7loPI   C6A  108  12.738  11.885   8.665  0.0115 -0.1760 -0.0368
    7loPI   C1B  109  11.817  11.915   9.903 -0.1529  0.2038 -0.3108
    7loPI   C2B  110  11.647  11.825   9.520  0.1461  0.0617  0.2331
    7loPI   C3B  111  11.537  11.993   9.208 -0.0890  0.1240 -0.2333
    7loPI   C4B  112  11.462  12.052   8.786  0.1343 -0.4186  0.1249
    8loPI    C1  113   4.397  15.851  10.385 -0.2287  0.0600 -0.0656
    8loPI    C2  114   4.109  15.646  10.571  0.0126 -0.4007 -0.1853
    8loPI    C3  115   4.489  15.607  10.689  0.0555  0.0434 -0.1616
    8loPI   PO4  116   4.353  15.891  10.099  0.0067 -0.1343 -0.1806
    8loPI   GL1  117   4.453  15.734   9.706  0.0036 -0.1987 -0.0662
    8loPI   GL2  118   4.319  15.446   9.789 -0.3677 -0.0084 -0.1294
    8loPI   C1A  119   4.330  15.841   9.242 -0.0081  0.1438 -0.0704
    8loPI   C2A  120   4.269  15.822   8.792 -0.1892  0.0480 -0.2826
    8loPI   C3A  121   3.939  15.591   8.536  0.0007 -0.0055 -0.0537
    8loPI   C4A  122   3.709  15.389   8.273 -0.1295  0.0236  0.4068
    8loPI   C5A  123   3.535  15.114   7.933  0.0652  0.2041  0.0105
    8loPI   C6A  124   3.185  15.128   7.680 -0.1009  0.0139  0.1072
    8loPI   C1B  125   4.200  15.369   9.283  0.1569  0.0280 -0.3991
    8loPI   C2B  126   4.296  15.302   8.896 -0.3959  0.2163 -0.1667
    8loPI   C3B  127   4.199  15.135   8.471  0.0162 -0.0176  0.0691
    8loPI   C4B  128   4.053  15.058   8.036 -0.1562 -0.1631  0.2434
    9loPI    C1  129  12.988   2.230  10.821  0.0745  0.1968  0.2576
    9loPI    C2  130  13.328   2.225  11.031  0.1942 -0.2101  0.0629
    9loPI    C3  131  13.072   1.919  11.059 -0.0928  0.0303  0.1021
    9loPI   PO4  132  12.877   2.516  10.813 -0.3110 -0.2649 -0.1350
    9loPI   GL1  133  12.515   2.811  10.617 -0.2196  0.2289 -0.0581
    9loPI   GL2  134  12.535   3.139  10.748  0.0560 -0.1658 -0.1829
    9loPI   C1A  135  12.759   2.785  10.240  0.0677 -0.0370 -0.0158
    9loPI   C2A  136  12.831   2.859   9.787 -0.2285 -0.0393 -0.2451
    9loPI   C3A  137  12.798   2.860   9.381  0.1952 -0.1284 -0.1216
    9loPI   C4A  138  12.795   2.979   8.992 -0.3683  0.0774  0.3298
    9loPI   C5A  139  12.640   3.097   8.509 -0.0202  0.0622  0.4563
    9loPI   C6A  140  12.643   3.391   8.174 -0.0052 -0.2487  0.1845
    9loPI   C1B  141  12.458   3.252  10.313  0.1679 -0.2148  0.1278
    9loPI   C2B  142  12.813   3.278  10.021 -0.1889 -0.0427 -0.2247
    9loPI   C3B  143  12.894   3.358   9.609  0.2836  0.1845  0.1480
    9loPI   C4B  144  12.868   3.432   9.230  0.0585  0.1890  0.2539
   10loPI    C1  145   0.844   7.316  11.191  0.0657 -0.0283 -0.1352
   10loPI    C2  146   0.906   7.383  11.580 -0.0985 -0.1292 -0.0906
   10loPI    C3  147   1.185   7.197  11.361  0.1536  0.2567 -0.1065
   10loPI   PO4  148   0.781   7.496  10.989  0.2089  0.2334 -0.0382
   10loPI   GL1  149   0.844   7.751  10.646 -0.0059 -0.1476 -0.1843
   10loPI   GL2  150   0.854   8.059  10.671  0.3617 -0.0307  0.1277
   10loPI   C1A  151   0.755   7.559  10.328 -0.0806  0.0752 -0.1261
   10loPI   C2A  152   0.758   7.560   9.904  0.1229  0.0276  0.0838
   10loPI   C3A  153   0.729   7.613   9.497  0.1426 -0.3820  0.0038
   10loPI   C4A  154   0.619   7.548   9.092  0.1927  0.1929 -0.0989
   10loPI   C5A  155   0.684   7.361   8.730  0.1063 -0.1396  0.3457
   10loPI   C6A  156   0.557   7.035   8.473 -0.0639  0.0988  0.0257
   10loPI   C1B  157   0.843   8.031  10.160 -0.1013 -0.2310 -0.1822
   10loPI   C2B  158   0.874   8.074   9.741  0.0426  0.3566 -0.0227
   10loPI   C3B  159   0.828   8.103   9.306  0.1377  0.0480  0.3137
   10loPI   C4B  160   0.692   7.972   8.879 -0.0496  0.0874  0.3384
   11loPI    C1  161   9.635  13.985  11.190  0.1252  0.1030 -0.0435
   11loPI    C2  162   9.473  13.812  11.512  0.2192  0.1441  0.0264
   11loPI    C3  163   9.867  13.877  11.498  0.2234  0.0907 -0.1212
   11loPI   PO4  164   9.474  13.856  11.029  0.2635 -0.1830 -0.0127
   11loPI   GL1  165   9.425  13.838  10.526 -0.2271 -0.0317 -0.0126
   11loPI   GL2  166   9.229  14.032  10.344  0.2408 -0.1008 -0.0757
   11loPI   C1A  167   9.720  13.896  10.205 -0.1621  0.0246  0.0285
   11loPI   C2A  168   9.829  13.885   9.749 -0.1399  0.0898  0.3644
   11loPI   C3A  169   9.848  13.822   9.273  0.0652  0.0463  0.0667
   11loPI   C4A  170   9.670  13.599   8.884  0.1228  0.3050 -0.1527
   11loPI   C5A  171   9.795  13.605   8.492 -0.0195 -0.1871  0.0324
   11loPI   C6A  172   9.865  13.581   8.142  0.1872 -0.1844  0.0383
   11loPI   C1B  173   9.356  14.149   9.939 -0.1112 -0.2947 -0.0676
   11loPI   C2B  174   9.454  14.184   9.492  0.3967  0.0921  0.2384
   11loPI   C3B  175   9.522  14.305   9.074 -0.1683 -0.0084 -0.1440
   11loPI   C4B  176   9.576  14.073   8.643 -0.1510 -0.0851  0.1209
   12loPI    C1  177   8.776   3.103  11.185  0.0075  0.1606  0.1630
   12loPI    C2  178   8.781   2.821  11.468  0.0449  0.0903  0.0931
   12loPI    C3  179   8.785   3.208  11.571  0.1176  0.0651  0.1872
   12loPI   PO4  180   8.815   2.943  10.987  0.2062  0.0919 -0.1338
   12loPI   GL1  181   8.828   3.070  10.629 -0.0984 -0.2927  0.1246
   12loPI   GL2  182   8.670   2.759  10.453 -0.0905 -0.2584 -0.1439
   12loPI   C1A  183   9.029   3.333  10.320 -0.0118 -0.2333  0.0217
   12loPI   C2A  184   9.351   3.561  10.331 -0.1955 -0.2320  0.1497
   12loPI   C3A  185   9.386   4.032  10.090 -0.0018 -0.2324 -0.0625
   12loPI   C4A  186   9.363   4.319   9.854  0.1132  0.0993 -0.2556
   12loPI   C5A  187   9.393   4.346   9.437 -0.0924 -0.0628  0.0603
   12loPI   C6A  188   9.458   4.381   8.988 -0.0115  0.2244 -0.0985
   12loPI   C1B  189   8.643   2.995  10.170  0.0563  0.0798  0.1144
   12loPI   C2B  190   8.579   2.971   9.740 -0.0836  0.1438 -0.2288
   12loPI   C3B  191   8.317   2.950   9.333  0.1210  0.1848  0.1437
   12loPI   C4B  192   8.226   3.014   9.010 -0.1355  0.0253  0.0311
   13loPI    C1  193   2.826   0.819  10.711 -0.0273  0.1981  0.0973
   13loPI    C2  194   2.578   1.060  10.912 -0.0796  0.1180  0.1291
   13loPI    C3  195   2.739   0.742  11.094 -0.1662  0.0168  0.0308
   13loPI   PO4  196   2.744   0.899  10.498  0.0044  0.1918  0.1402
   13loPI   GL1  197   2.804   0.849  10.038 -0.3253  0.1620  0.2210
   13loPI   GL2  198   2.665   0.631  10.061 -0.1999 -0.1901  0.0492
   13loPI   C1A  199   2.945   0.925   9.679 -0.0414 -0.0283  0.1466
   13loPI   C2A  200   3.001   0.929   9.248 -0.0922 -0.1465 -0.1219
   13loPI   C3A  201   2.724   0.932   8.925 -0.0456  0.2015  0.0719
   13loPI   C4A  202   2.557   0.968   8.455  0.1209  0.0345  0.1273
   13loPI   C5A  203   2.758   1.195   8.175 -0.1323 -0.0432 -0.3813
   13loPI   C6A  204   3.127   1.350   8.023  0.1268 -0.0756  0.1220
   13loPI   C1B  205   2.363   0.459   9.761  0.1237 -0.2376  0.1468
   13loPI   C2B  206   2.050   0.253   9.574  0.3762  0.3033  0.1434
   13loPI   C3B  207   1.953   0.239   9.211  0.1794 -0.1657 -0.1311
   13loPI   C4B  208   1.995   0.442   8.890 -0.0463  0.3964  0.0335
   14loPI    C1  209   3.057   3.471  10.751  0.2771 -0.3085 -0.0406
   14loPI    C2  210   3.088   3.685  11.087 -0.1099 -0.1882 -0.0768
   14loPI    C3  211   3.305   3.353  11.041  0.0887 -0.1015  0.2092
   14loPI   PO4  212   3.024   3.647  10.535 -0.2439 -0.1992 -0.0528
   14loPI   GL1  213   2.856   3.624  10.144  0.0704  0.0064  0.2375
   14loPI   GL2  214   2.694   3.319  10.251 -0.0448  0.0118 -0.1504
   14loPI   C1A  215   2.936   3.497   9.687  0.3045  0.1142  0.0437
   14loPI   C2A  216   3.021   3.479   9.238  0.1510  0.0710  0.2291
   14loPI   C3A  217   3.178   3.490   8.853  0.1019 -0.4526  0.0503
   14loPI   C4A  218   3.007   3.313   8.486 -0.4002  0.1006 -0.0276
   14loPI   C5A  219   2.692   3.004   8.497  0.1065  0.0613  0.2893
   14loPI   C6A  220   2.491   2.617   8.640  0.1425  0.0029 -0.1565
   14loPI   C1B  221   2.401   3.482   9.895 -0.1908  0.1469 -0.4328
   14loPI   C2B  222   2.472   3.265   9.536 -0.0682  0.2429 -0.2659
   14loPI   C3B  223   2.644   3.131   9.320 -0.1401 -0.0203 -0.0015
   14loPI   C4B  224   2.757   3.164   8.930 -0.0542  0.2094  0.0836
   15loPI    C1  225   0.530   1.151  11.026 -0.0651  0.0670  0.2523
   15loPI    C2  226   0.863   1.129  10.806 -0.1459  0.1542  0.1195
   15loPI    C3  227   0.728   0.805  10.998 -0.1537  0.0398 -0.0765
   15loPI   PO4  228   0.430   1.418  10.897 -0.2897  0.0966 -0.2204
   15loPI   GL1  229   0.519   1.476  10.481 -0.2095  0.3875 -0.1028
   15loPI   GL2  230   0.528   1.765  10.384  0.2270  0.2931  0.1911
   15loPI   C1A  231   0.649   1.276  10.064  0.0878  0.1827  0.3053
   15loPI   C2A  232   0.700   1.292   9.597 -0.0784  0.1765 -0.4438
   15loPI   C3A  233   0.738   1.311   9.230 -0.0829 -0.2164  0.0093
   15loPI   C4A  234   0.755   1.295   8.756  0.1622  0.2340  0.1325
   15loPI   C5A  235   0.666   1.329   8.346 -0.0369 -0.0325  0.0945
   15loPI   C6A  236   0.578   1.395   7.980  0.3027 -0.0672 -0.1414
   15loPI   C1B  237   0.710   1.751   9.921 -0.0377 -0.0291 -0.0913
   15loPI   C2B  238   0.747   1.769   9.468  0.1255  0.2041  0.4328
   15loPI   C3B  239   0.676   1.825   9.018  0.2643  0.0544 -0.0894
   15loPI   C4B  240   0.808   1.809   8.651 -0.1064 -0.1056  0.4232
   16loPI    C1  241   7.650  10.609  11.197 -0.0351  0.0572  0.0607
   16loPI    C2  242   7.410  10.399  11.439 -0.1655  0.0470 -0.0759
   16loPI    C3  243   7.508  10.775  11.532  0.0920 -0.0808  0.1841
   16loPI   PO4  244   7.515  10.699  10.972  0.2963  0.1810 -0.1626
   16loPI   GL1  245   7.392  10.590  10.598 -0.0504 -0.0307  0.2530
   16loPI   GL2  246   7.628  10.829  10.510 -0.0782 -0.3323 -0.1849
   16loPI   C1A  247   7.411  10.403  10.127 -0.1495 -0.0909 -0.2265
   16loPI   C2A  248   7.372  10.393   9.743 -0.0296 -0.0403 -0.0202
   16loPI   C3A  249   7.357  10.407   9.265 -0.1467  0.2964 -0.0306
   16loPI   C4A  250   7.422  10.428   8.840  0.1293  0.0224 -0.1996
   16loPI   C5A  251   7.688  10.257   8.438  0.1066 -0.0386 -0.0001
   16loPI   C6A  252   7.791   9.921   8.158  0.3655  0.0575  0.0207
   16loPI   C1B  253   7.837  10.971  10.203 -0.0199 -0.1442  0.0908
   16loPI   C2B  254   7.945  11.092   9.777  0.1137  0.1528 -0.1432
   16loPI   C3B  255   7.895  11.090   9.330  0.0996 -0.5726 -0.2043
   16loPI   C4B  256   7.882  10.963   8.979 -0.3226 -0.0254  0.0315
   17loPI    C1  257  11.844   8.419  11.232  0.0140 -0.0161  0.0225
   17loPI    C2  258  11.850   8.611  11.582  0.0703 -0.0756  0.0543
   17loPI    C3  259  12.138   8.348  11.493  0.1560  0.0722 -0.1114
   17loPI   PO4  260  11.839   8.486  11.004 -0.1656 -0.2465  0.1160
   17loPI   GL1  261  12.002   8.454  10.647  0.1253  0.0238  0.0199
   17loPI   GL2  262  11.733   8.382  10.517 -0.1599  0.1910 -0.2927
   17loPI   C1A  263  12.225   8.527  10.345  0.0676  0.1864  0.7734
   17loPI   C2A  264  12.325   8.423   9.988  0.1616 -0.1534 -0.0080
   17loPI   C3A  265  12.270   8.447   9.568  0.2132 -0.1785  0.1849
   17loPI   C4A  266  12.290   8.436   9.141 -0.0858 -0.1137 -0.0855
   17loPI   C5A  267  12.075   8.395   8.783  0.0765 -0.3053 -0.0524
   17loPI   C6A  268  12.069   8.263   8.374 -0.1591  0.0739  0.0799
   17loPI   C1B  269  11.883   8.241  10.111  0.0728 -0.3017 -0.2343
   17loPI   C2B  270  11.815   8.245   9.662  0.1174 -0.0694 -0.0837
   17loPI   C3B  271  11.700   8.240   9.253  0.4484  0.0457  0.1058
   17loPI   C4B  272  11.633   8.192   8.854 -0.3107  0.1981  0.3037
   18loPI    C1  273  15.440   6.242  11.274 -0.0231 -0.1738 -0.2412
   18loPI    C2  274  15.153   5.969  11.326 -0.2410  0.1041  0.0589
   18loPI    C3  275  15.219   6.245  11.608  0.2342  0.1272 -0.0673
   18loPI   PO4  276  15.343   6.231  10.918 -0.0633 -0.2560 -0.2161
   18loPI   GL1  277  15.356   6.464  10.611 -0.3046 -0.3343  0.1920
   18loPI   GL2  278  15.618   6.465  10.497  0.3531 -0.0572 -0.0850
   18loPI   C1A  279  15.150   6.742  10.134 -0.2028 -0.3080  0.0388
   18loPI   C2A  280  15.150   6.723   9.671 -0.2058 -0.1212 -0.1341
   18loPI   C3A  281  15.134   6.633   9.137 -0.1130  0.0511  0.2869
   18loPI   C4A  282  15.289   6.595   8.692  0.1002 -0.2587  0.2817
   18loPI   C5A  283  15.507   6.429   8.291  0.2189  0.1250  0.0340
   18loPI   C6A  284  15.654   6.390   7.842  0.0508  0.1520  0.1362
   18loPI   C1B  285  15.531   6.395  10.127  0.3526 -0.0393  0.2222
   18loPI   C2B  286  15.596   6.373   9.787  0.0054 -0.1715  0.0420
   18loPI   C3B  287  15.667   6.276   9.434  0.1529 -0.0476  0.2186
   18loPI   C4B  288  15.723   6.325   9.061  0.2726 -0.3056  0.0796
   19loPI    C1  289  13.807  16.616  10.860 -0.0750 -0.1579  0.0062
   19loPI    C2  290  13.910  16.516  11.233  0.0201  0.0582  0.0397
   19loPI    C3  291  13.579  16.731  11.169  0.0699  0.1263  0.0103
   19loPI   PO4  292  13.821  16.438  10.707  0.0502  0.1054  0.1035
   19loPI   GL1  293  13.810  16.277  10.240  0.1026  0.0950  0.2219
   19loPI   GL2  294  13.480  16.370  10.216  0.1409  0.1203 -0.1194
   19loPI   C1A  295  13.970  16.423   9.884  0.0963  0.1039 -0.0827
   19loPI   C2A  296  14.126  16.567   9.525  0.0257 -0.0396  0.0198
   19loPI   C3A  297  14.215  16.767   9.166 -0.2216 -0.0603  0.2442
   19loPI   C4A  298  14.260  16.735   8.631 -0.0806 -0.4268  0.1659
   19loPI   C5A  299  14.509  16.436   8.413 -0.2273  0.1644 -0.1775
   19loPI   C6A  300  14.330  15.967   8.455 -0.4378  0.2486  0.1356
   19loPI   C1B  301  13.443  16.457   9.783  0.2920 -0.3307  0.0764
   19loPI   C2B  302  13.284  16.485   9.455  0.1288 -0.1744  0.0019
   19loPI   C3B  303  13.286  16.648   9.062 -0.2157  0.0248 -0.1280
   19loPI   C4B  304  13.336  16.975   8.815 -0.2214  0.0918 -0.1019
   20loPI    C1  305   6.862   4.125  11.295 -0.1670  0.1801  0.0972
   20loPI    C2  306   7.234   4.089  11.437 -0.0874  0.0182 -0.1456
   20loPI    C3  307   6.933   4.175  11.686  0.1213  0.2222  0.0416
   20loPI   PO4  308   6.815   4.021  11.032 -0.0068 -0.1841  0.2081
   20loPI   GL1  309   6.861   4.288  10.675  0.1036 -0.1884  0.1641
   20loPI   GL2  310   6.825   4.570  10.601  0.1514  0.1522 -0.0391
   20loPI   C1A  311   6.993   4.182  10.281  0.1847 -0.0224 -0.1212
   20loPI   C2A  312   7.025   4.267   9.862  0.0102 -0.0956  0.0937
   20loPI   C3A  313   7.148   4.458   9.515  0.1913  0.2955 -0.2987
   20loPI   C4A  314   7.220   4.532   9.054  0.1082 -0.4166  0.0083
   20loPI   C5A  315   7.121   4.626   8.623 -0.0577  0.0679  0.0118
   20loPI   C6A  316   6.844   5.019   8.486 -0.4342 -0.2521 -0.2290
   20loPI   C1B  317   6.650   4.519  10.185  0.2379  0.1037 -0.2731
   20loPI   C2B  318   6.652   4.610   9.776  0.0118 -0.2900 -0.1406
   20loPI   C3B  319   6.691   4.734   9.360  0.4490  0.2460 -0.2671
   20loPI   C4B  320   6.859   4.814   9.020  0.1947  0.1762  0.1430
   21loPI    C1  321   6.011   6.309  11.436  0.0867 -0.1045  0.3458
   21loPI    C2  322   6.021   6.678  11.589 -0.0574  0.0213  0.0587
   21loPI    C3  323   5.779   6.403  11.748  0.1254  0.0174  0.3384
   21loPI   PO4  324   5.957   6.340  11.166 -0.1697 -0.2523  0.3301
   21loPI   GL1  325   6.203   6.364  10.779 -0.0060 -0.2674 -0.0976
   21loPI   GL2  326   6.101   6.308  10.504 -0.0613  0.2562 -0.1581
   21loPI   C1A  327   6.580   6.516  10.486  0.0257 -0.1935 -0.3239
   21loPI   C2A  328   6.558   6.591  10.053  0.0500 -0.0099  0.1751
   21loPI   C3A  329   6.548   6.625   9.624 -0.0928  0.1961 -0.0876
   21loPI   C4A  330   6.567   6.683   9.146  0.1688 -0.0815  0.2046
   21loPI   C5A  331   6.528   6.740   8.794  0.2386  0.0206  0.0803
   21loPI   C6A  332   6.409   7.147   8.455 -0.1019  0.1728  0.1332
   21loPI   C1B  333   6.050   6.420  10.151  0.1811 -0.0749  0.0855
   21loPI   C2B  334   6.119   6.658   9.839  0.1359  0.0321 -0.1390
   21loPI   C3B  335   6.184   6.944   9.392 -0.1924 -0.1727 -0.1009
   21loPI   C4B  336   6.110   6.939   8.985 -0.0343 -0.0247 -0.0313
   22loPI    C1  337   5.513   1.125  10.975  0.1833  0.0308 -0.0476
   22loPI    C2  338   5.133   1.085  11.095  0.2209 -0.1793  0.0066
   22loPI    C3  339   5.336   0.766  10.966  0.4136 -0.0878  0.0793
   22loPI   PO4  340   5.545   1.389  10.784 -0.3047  0.2518 -0.3003
   22loPI   GL1  341   5.770   1.487  10.341  0.0168  0.5293  0.0040
   22loPI   GL2  342   5.471   1.401  10.302  0.0473  0.3356  0.2850
   22loPI   C1A  343   5.862   1.705   9.912 -0.0028 -0.0748  0.0329
   22loPI   C2A  344   5.873   1.847   9.482  0.0935  0.0482  0.3914
   22loPI   C3A  345   5.791   2.007   9.091 -0.1519 -0.0992 -0.1548
   22loPI   C4A  346   5.582   2.306   8.791 -0.1108 -0.1919 -0.3696
   22loPI   C5A  347   5.351   2.342   8.440 -0.1434  0.2256  0.0191
   22loPI   C6A  348   4.942   2.468   8.148  0.0691  0.1658 -0.2200
   22loPI   C1B  349   5.402   1.570   9.847 -0.0148  0.1637 -0.1172
   22loPI   C2B  350   5.382   1.474   9.445 -0.0562 -0.5447  0.2717
   22loPI   C3B  351   5.190   1.458   9.068 -0.0523 -0.0436 -0.1439
   22loPI   C4B  352   5.330   1.396   8.586  0.1041  0.0100  0.1921
   23loPI    C1  353  12.451  14.063  10.722 -0.0067 -0.1368  0.1128
   23loPI    C2  354  12.272  13.924  11.052 -0.1683  0.0075  0.0871
   23loPI    C3  355  12.585  14.171  11.084  0.0237 -0.2379  0.1321
   23loPI   PO4  356  12.310  14.034  10.558 -0.0785 -0.2769 -0.1097
   23loPI   GL1  357  12.405  13.901  10.143  0.0078  0.0950  0.2055
   23loPI   GL2  358  12.609  14.036   9.963 -0.0424 -0.1002  0.0552
   23loPI   C1A  359  12.158  13.645   9.765  0.2508  0.0997 -0.0567
   23loPI   C2A  360  12.150  13.337   9.323  0.2736 -0.0939 -0.3376
   23loPI   C3A  361  12.025  13.403   8.880  0.1670 -0.0078 -0.0055
   23loPI   C4A  362  11.853  13.290   8.511 -0.0137 -0.5905 -0.2882
   23loPI   C5A  363  11.479  13.233   8.268 -0.2400 -0.0310  0.1439
   23loPI   C6A  364  11.155  12.965   8.282 -0.0821  0.1853 -0.2757
   23loPI   C1B  365  12.521  13.937   9.583  0.3248  0.0441  0.3107
   23loPI   C2B  366  12.697  14.029   9.190  0.0302 -0.0478  0.1124
   23loPI   C3B  367  12.591  14.189   8.792 -0.2071  0.0826  0.2344
   23loPI   C4B  368  12.497  14.555   8.537  0.1370 -0.3096 -0.0853
   24loPI    C1  369   4.701   8.590  10.850  0.0024  0.0727  0.0554
   24loPI    C2  370   4.742   8.655  11.242 -0.2156  0.0088  0.0900
   24loPI    C3  371   4.404   8.494  11.100 -0.0583 -0.1576 -0.1020
   24loPI   PO4  372   4.722   8.876  10.735 -0.1055 -0.2276  0.2205
   24loPI   GL1  373   4.831   8.930  10.350  0.0925 -0.0590  0.1689
   24loPI   GL2  374   4.970   8.623  10.212  0.2224 -0.2091  0.2948
   24loPI   C1A  375   4.655   9.183   9.958 -0.0341 -0.1655  0.1328
   24loPI   C2A  376   4.658   9.157   9.473  0.0457 -0.0481  0.2590
   24loPI   C3A  377   4.572   9.111   9.002 -0.1748  0.0715  0.0050
   24loPI   C4A  378   4.502   9.159   8.604  0.0899 -0.1322  0.2952
   24loPI   C5A  379   4.833   9.131   8.265 -0.0153  0.0213  0.0196
   24loPI   C6A  380   5.190   9.158   8.292  0.1736  0.1916  0.0972
   24loPI   C1B  381   5.089   8.856   9.922  0.1845 -0.0107 -0.2356
   24loPI   C2B  382   5.017   8.840   9.434 -0.2854 -0.0354 -0.2304
   24loPI   C3B  383   5.006   8.803   9.025 -0.1731  0.2723  0.0595
   24loPI   C4B  384   5.005   8.742   8.557 -0.0041  0.1067 -0.3155
   25loPI    C1  385  13.732  17.588  11.101 -0.1711 -0.1457 -0.0428
   25loPI    C2  386  13.910  17.888  11.297 -0.1584 -0.0843 -0.1476
   25loPI    C3  387  13.566  17.735  11.434 -0.1334 -0.0627 -0.0604
   25loPI   PO4  388  13.744  17.660  10.862 -0.2552  0.0910 -0.0075
   25loPI   GL1  389  13.664  17.559  10.362 -0.3228  0.2783 -0.1814
   25loPI   GL2  390  13.798  17.359  10.138  0.2803 -0.3617  0.1566
   25loPI   C1A  391  13.641  17.821  10.020 -0.0956  0.2362 -0.1406
   25loPI   C2A  392  13.705  17.987   9.628 -0.0250  0.0492 -0.0624
   25loPI   C3A  393  13.805  17.985   9.278  0.3730 -0.2583 -0.0049
   25loPI   C4A  394  13.968  18.189   8.929  0.1597 -0.0773  0.1297
   25loPI   C5A  395  14.007  18.654   8.661  0.1109  0.1667  0.0414
   25loPI   C6A  396  14.272  18.966   8.384  0.3091 -0.0783  0.0004
   25loPI   C1B  397  13.789  17.440   9.743  0.0075 -0.0023  0.1821
   25loPI   C2B  398  13.757  17.492   9.338 -0.2990 -0.1176 -0.0837
   25loPI   C3B  399  13.673  17.558   8.979 -0.3507  0.1875 -0.3220
   25loPI   C4B  400  13.590  17.926   8.746 -0.2764  0.1598 -0.1695
   26loPI    C1  401   0.409   9.124  11.271 -0.1210 -0.1706  0.1385
   26loPI    C2  402   0.674   9.110  11.571 -0.0105  0.3049  0.0704
   26loPI    C3  403   0.368   9.368  11.586 -0.1388  0.1663 -0.1196
   26loPI   PO4  404   0.551   9.177  11.055  0.0387 -0.2593 -0.2976
   26loPI   GL1  405   0.465   9.317  10.601 -0.0895 -0.3795 -0.1627
   26loPI   GL2  406   0.717   9.473  10.615 -0.4568 -0.1369 -0.1600
   26loPI   C1A  407   0.608   9.356  10.097 -0.0245  0.0685  0.0118
   26loPI   C2A  408   0.572   9.349   9.571  0.0224 -0.2114  0.0076
   26loPI   C3A  409   0.400   9.351   9.065  0.1935  0.1705  0.1405
   26loPI   C4A  410   0.674   9.285   8.630  0.3752  0.1664 -0.1698
   26loPI   C5A  411   0.524   9.090   8.366 -0.0376  0.1975 -0.0200
   26loPI   C6A  412   0.352   8.670   8.378  0.3210  0.2908  0.1340
   26loPI   C1B  413   1.061   9.539  10.221 -0.2582 -0.1377  0.0117
   26loPI   C2B  414   1.011   9.587   9.733  0.1958  0.0160  0.1040
   26loPI   C3B  415   0.992   9.579   9.373  0.0419  0.2200 -0.0338
   26loPI   C4B  416   0.906   9.517   8.944  0.1255  0.4395  0.0487
   27loPI    C1  417   8.482  13.323  10.932 -0.2021  0.0708 -0.1478
   27loPI    C2  418   8.706  13.620  11.078 -0.1441 -0.0155 -0.0602
   27loPI    C3  419   8.679  13.274  11.277 -0.4445  0.0327 -0.0119
   27loPI   PO4  420   8.580  13.363  10.627  0.0754 -0.0579 -0.1644
   27loPI   GL1  421   8.996  13.548  10.639 -0.1402  0.1897 -0.0675
   27loPI   GL2  422   8.853  13.684  10.386 -0.4954  0.2650  0.1386
   27loPI   C1A  423   9.112  13.095  10.350  0.3922  0.0425 -0.2225
   27loPI   C2A  424   9.073  12.816   9.879 -0.0802  0.1928  0.5128
   27loPI   C3A  425   9.099  12.802   9.443 -0.0430  0.1500  0.0439
   27loPI   C4A  426   8.955  12.675   9.067  0.1369 -0.1121 -0.3688
   27loPI   C5A  427   8.954  12.755   8.642 -0.1616 -0.0456 -0.0449
   27loPI   C6A  428   8.695  12.625   8.238  0.0024  0.1585 -0.1197
   27loPI   C1B  429   8.819  13.455  10.067 -0.2488  0.2258 -0.1200
   27loPI   C2B  430   9.120  13.266   9.694 -0.0415 -0.2983  0.1725
   27loPI   C3B  431   9.261  13.213   9.192 -0.0038  0.0211  0.2669
   27loPI   C4B  432   9.174  13.384   8.793 -0.1921  0.1222 -0.2808
   28loPI    C1  433   0.449  17.455  10.582  0.1274 -0.0736 -0.0466
   28loPI    C2  434   0.203  17.595  10.865  0.0865 -0.0588 -0.0894
   28loPI    C3  435   0.379  17.239  10.912  0.1452 -0.0193 -0.0073
   28loPI   PO4  436   0.426  17.637  10.331 -0.2000  0.0675 -0.0821
   28loPI   GL1  437   0.439  17.713   9.879 -0.1079 -0.2526  0.4166
   28loPI   GL2  438   0.438  18.042   9.756  0.3248 -0.0386 -0.0891
   28loPI   C1A  439   0.051  17.530   9.634  0.2585 -0.0254 -0.0362
   28loPI   C2A  440  -0.166  17.489   9.273 -0.2051 -0.1604 -0.0986
   28loPI   C3A  441  -0.377  17.654   8.906 -0.1175  0.2528  0.0352
   28loPI   C4A  442  -0.235  17.546   8.636  0.1594  0.2636 -0.0904
   28loPI   C5A  443  -0.577  17.539   8.322 -0.1606 -0.1184  0.1283
   28loPI   C6A  444  -0.985  17.501   8.197 -0.1591 -0.1070 -0.0133
   28loPI   C1B  445   0.587  18.012   9.228 -0.1772  0.2293  0.0516
   28loPI   C2B  446   0.558  18.089   8.826  0.2456 -0.0363  0.2097
   28loPI   C3B  447   0.637  17.830   8.543 -0.0394 -0.2841  0.1648
   28loPI   C4B  448   0.603  17.683   8.149  0.5184 -0.0409  0.0415
   29loPI    C1  449   4.359   7.026  11.075  0.2177  0.0792 -0.1857
   29loPI    C2  450   4.583   6.952  11.398 -0.2302  0.0929  0.1370
   29loPI    C3  451   4.342   6.668  11.253  0.0040  0.0711 -0.2197
   29loPI   PO4  452   4.468   6.960  10.836 -0.1167 -0.2017  0.0229
   29loPI   GL1  453   4.543   7.158  10.532  0.0798  0.2217 -0.0687
   29loPI   GL2  454   4.799   7.106  10.298  0.3090 -0.0979  0.0537
   29loPI   C1A  455   4.282   7.377  10.159 -0.1168  0.3346 -0.0443
   29loPI   C2A  456   4.471   7.565   9.756 -0.0986 -0.3010 -0.0183
   29loPI   C3A  457   4.441   7.629   9.253 -0.1974  0.3429  0.1774
   29loPI   C4A  458   4.360   7.546   8.797  0.1458 -0.0803  0.2802
   29loPI   C5A  459   4.292   7.265   8.551 -0.1517 -0.0339 -0.0247
   29loPI   C6A  460   4.201   7.180   8.141 -0.0409  0.1282 -0.0461
   29loPI   C1B  461   4.839   7.207   9.900 -0.3705 -0.0717 -0.0168
   29loPI   C2B  462   4.902   7.292   9.509 -0.0703  0.2260  0.1317
   29loPI   C3B  463   4.804   7.290   9.033 -0.0494  0.0737  0.0039
   29loPI   C4B  464   4.839   7.336   8.540 -0.0533 -0.0251  0.2206
   30loPI    C1  465  16.407  11.460  10.867  0.1706 -0.0881  0.1007
   30loPI    C2  466  16.108  11.264  11.047  0.1163  0.0020  0.1093
   30loPI    C3  467  16.420  11.393  11.261 -0.0105  0.2246  0.1632
   30loPI   PO4  468  16.279  11.613  10.686 -0.0294 -0.2824 -0.0586
   30loPI   GL1  469  16.201  11.656  10.303  0.3002 -0.0103  0.0891
   30loPI   GL2  470  16.548  11.821  10.250 -0.1187  0.2945  0.1394
   30loPI   C1A  471  16.138  11.280   9.955 -0.2235 -0.1854 -0.1879
   30loPI   C2A  472  16.082  11.374   9.590  0.1647  0.0527  0.0777
   30loPI   C3A  473  16.073  11.413   9.177 -0.0714 -0.0021 -0.1402
   30loPI   C4A  474  16.270  11.465   8.805  0.1409 -0.0348 -0.0368
   30loPI   C5A  475  16.399  11.757   8.473 -0.0584 -0.0803 -0.3817
   30loPI   C6A  476  16.455  11.843   8.084 -0.0087 -0.3205 -0.2434
   30loPI   C1B  477  16.354  11.710   9.849 -0.0241 -0.0021  0.0802
   30loPI   C2B  478  16.453  11.730   9.371 -0.0834  0.0760 -0.3567
   30loPI   C3B  479  16.597  11.871   8.982 -0.1649  0.0288  0.0916
   30loPI   C4B  480  16.900  12.055   8.858  0.0684 -0.1391 -0.2624
   31loPI    C1  481   6.020  17.120  10.251 -0.0446  0.1327 -0.2326
   31loPI    C2  482   6.331  17.185  10.008 -0.0095  0.0894 -0.1993
   31loPI    C3  483   6.370  17.239  10.403  0.0148 -0.1123 -0.1727
   31loPI   PO4  484   5.899  16.878  10.091 -0.2281  0.2392  0.0858
   31loPI   GL1  485   5.714  16.849   9.680 -0.3908  0.2765  0.0135
   31loPI   GL2  486   5.553  16.566   9.723 -0.1092  0.0283 -0.0182
   31loPI   C1A  487   5.856  16.770   9.259 -0.1177 -0.3513 -0.0749
   31loPI   C2A  488   5.811  16.877   8.742  0.2564 -0.2002  0.0565
   31loPI   C3A  489   5.570  17.118   8.416  0.0188  0.0373 -0.0029
   31loPI   C4A  490   5.620  17.509   8.219 -0.1087 -0.0820 -0.1742
   31loPI   C5A  491   5.765  17.921   8.397  0.1595 -0.0076 -0.4171
   31loPI   C6A  492   6.278  18.091   8.425  0.0075  0.0899 -0.1496
   31loPI   C1B  493   5.734  16.315   9.411 -0.1837  0.0205  0.0077
   31loPI   C2B  494   6.012  16.135   9.103 -0.1886  0.0945  0.1406
   31loPI   C3B  495   6.229  15.957   8.717  0.3576 -0.5042 -0.1078
   31loPI   C4B  496   6.400  15.992   8.331 -0.3170  0.0498 -0.1121
   32loPI    C1  497   5.814  13.817  10.524 -0.0959 -0.0105 -0.0332
   32loPI    C2  498   6.186  13.707  10.618 -0.0482  0.2374  0.0774
   32loPI    C3  499   5.924  13.791  10.908 -0.2001  0.0372  0.0004
   32loPI   PO4  500   5.700  13.619  10.294  0.1227  0.1397  0.0729
   32loPI   GL1  501   6.024  13.533   9.961  0.0637  0.0739  0.0026
   32loPI   GL2  502   6.290  13.306   9.913 -0.2153 -0.2033  0.1596
   32loPI   C1A  503   5.967  13.654   9.606 -0.0000  0.3917  0.3892
   32loPI   C2A  504   5.963  13.431   9.194 -0.2020  0.0732  0.2450
   32loPI   C3A  505   5.820  13.200   8.862  0.0555 -0.0261  0.1032
   32loPI   C4A  506   5.920  13.210   8.450  0.1008 -0.1530  0.2405
   32loPI   C5A  507   6.020  13.592   8.248  0.2034 -0.4452 -0.0162
   32loPI   C6A  508   6.178  13.943   7.950 -0.0831  0.1639  0.2443
   32loPI   C1B  509   6.054  13.151   9.614 -0.0398 -0.2342  0.2268
   32loPI   C2B  510   6.045  12.935   9.194 -0.4003 -0.1109  0.1476
   32loPI   C3B  511   6.238  12.914   8.700  0.3668  0.2046  0.0080
   32loPI   C4B  512   6.370  13.128   8.308  0.2758  0.0125  0.1641
   33loPI    C1  513  14.478  12.588  10.620  0.0042 -0.1045  0.1020
   33loPI    C2  514  14.349  12.490  10.986  0.0564 -0.1173  0.1169
   33loPI    C3  515  14.653  12.747  10.942  0.0640 -0.1321  0.0833
   33loPI   PO4  516  14.505  12.333  10.546  0.2720 -0.1580 -0.0494
   33loPI   GL1  517  14.741  12.299  10.149 -0.1493 -0.0837  0.1091
   33loPI   GL2  518  14.904  12.100  10.248 -0.0408 -0.1847 -0.1679
   33loPI   C1A  519  14.586  11.992   9.837 -0.1425  0.1961  0.0515
   33loPI   C2A  520  14.686  11.901   9.405  0.2635  0.0586 -0.0615
   33loPI   C3A  521  14.907  12.131   9.006 -0.0499 -0.0293  0.0999
   33loPI   C4A  522  15.115  12.438   8.774  0.1608 -0.0670 -0.1965
   33loPI   C5A  523  15.277  12.845   8.525  0.0448  0.1204  0.3004
   33loPI   C6A  524  15.403  13.247   8.386 -0.1156  0.2621 -0.0709
   33loPI   C1B  525  15.357  12.083   9.934 -0.1451  0.0713 -0.1302
   33loPI   C2B  526  15.548  12.198   9.588  0.3147  0.0024  0.2458
   33loPI   C3B  527  15.517  12.176   9.097 -0.3090 -0.0091 -0.3262
   33loPI   C4B  528  15.464  12.016   8.642 -0.2092 -0.3234 -0.1453
   34loPI    C1  529   9.063   8.936  11.265 -0.4491 -0.4601  0.1422
   34loPI    C2  530   9.122   8.867  11.655  0.2556  0.1548  0.1654
   34loPI    C3  531   8.940   9.203  11.536 -0.0878 -0.0980 -0.0401
   34loPI   PO4  532   9.032   8.701  11.109  0.1583 -0.1105  0.1623
   34loPI   GL1  533   8.953   8.523  10.736  0.0265  0.2788  0.0533
   34loPI   GL2  534   8.880   8.165  10.646  0.1242  0.0881  0.3029
   34loPI   C1A  535   9.063   8.480  10.307 -0.4717  0.1862  0.2509
   34loPI   C2A  536   9.006   8.562   9.851 -0.1923  0.0005  0.1567
   34loPI   C3A  537   9.036   8.674   9.404 -0.1752 -0.0835  0.4229
   34loPI   C4A  538   9.044   8.633   9.017 -0.1557  0.0013  0.0085
   34loPI   C5A  539   8.912   8.638   8.614 -0.1888 -0.1872 -0.0726
   34loPI   C6A  540   9.158   8.563   8.337  0.1181  0.1965  0.0605
   34loPI   C1B  541   8.589   8.334  10.305  0.2494  0.1836 -0.2262
   34loPI   C2B  542   8.496   8.414   9.821 -0.0060  0.4249 -0.1556
   34loPI   C3B  543   8.540   8.434   9.407  0.0204 -0.0142  0.2804
   34loPI   C4B  544   8.542   8.411   8.935 -0.0224 -0.3410  0.1423
   35loPI    C1  545  14.455   3.749  11.002  0.0243  0.3500  0.0894
   35loPI    C2  546  14.841   3.719  11.102  0.0683 -0.0634 -0.1791
   35loPI    C3  547  14.569   3.485  11.279 -0.0625  0.2175 -0.0002
   35loPI   PO4  548  14.485   3.800  10.768 -0.0459  0.1063 -0.3871
   35loPI   GL1  549  14.620   3.841  10.474  0.0067  0.0846 -0.1683
   35loPI   GL2  550  14.805   3.504  10.538 -0.2172 -0.0235  0.0351
   35loPI   C1A  551  14.283   3.901  10.035  0.0682 -0.2771 -0.1735
   35loPI   C2A  552  14.311   3.961   9.612 -0.1621 -0.0292 -0.1442
   35loPI   C3A  553  14.413   4.002   9.139 -0.0310 -0.0988  0.2706
   35loPI   C4A  554  14.235   4.006   8.669 -0.0709  0.0731 -0.2402
   35loPI   C5A  555  13.783   4.009   8.455  0.0518 -0.1129 -0.1673
   35loPI   C6A  556  13.439   4.034   8.223 -0.2919  0.2602 -0.2371
   35loPI   C1B  557  14.760   3.591  10.082  0.0145 -0.0971  0.0415
   35loPI   C2B  558  14.754   3.566   9.704  0.1001 -0.0699 -0.0894
   35loPI   C3B  559  14.717   3.637   9.261 -0.0327 -0.3519  0.1295
   35loPI   C4B  560  14.777   3.582   8.800  0.1038 -0.0301 -0.1772
   36loPI    C1  561   1.626   4.799  10.801 -0.0135  0.2006  0.0117
   36loPI    C2  562   1.828   5.095  10.979  0.0896  0.0142  0.2095
   36loPI    C3  563   1.624   4.831  11.200 -0.1079  0.0119  0.0274
   36loPI   PO4  564   1.465   4.959  10.648 -0.2323 -0.3513 -0.1731
   36loPI   GL1  565   1.490   4.973  10.250 -0.4682  0.2902  0.0555
   36loPI   GL2  566   1.139   4.895  10.269 -0.3315 -0.0934 -0.3590
   36loPI   C1A  567   1.681   4.952   9.916 -0.1108 -0.2034 -0.1161
   36loPI   C2A  568   1.688   5.028   9.478 -0.1239 -0.0325 -0.2156
   36loPI   C3A  569   1.904   4.975   9.059 -0.1477  0.0379 -0.0220
   36loPI   C4A  570   1.983   4.849   8.615  0.1215 -0.1583  0.2848
   36loPI   C5A  571   2.070   5.271   8.337 -0.0856  0.0941 -0.3083
   36loPI   C6A  572   2.352   5.398   8.193 -0.1113  0.0975  0.1103
   36loPI   C1B  573   1.218   4.803   9.825  0.0000 -0.0283  0.1392
   36loPI   C2B  574   1.154   4.837   9.355 -0.1669 -0.3459 -0.1641
   36loPI   C3B  575   1.247   4.902   8.889  0.0944 -0.1111 -0.3672
   36loPI   C4B  576   1.613   5.166   8.597 -0.0964 -0.1669 -0.1058
   37loPI    C1  577  15.267  15.963  10.571  0.0799  0.0129 -0.1843
   37loPI    C2  578  15.664  15.913  10.562  0.0986  0.0220  0.3375
   37loPI    C3  579  15.510  16.276  10.629  0.0024  0.0050  0.2114
   37loPI   PO4  580  15.192  15.763  10.480 -0.0201 -0.1977  0.0244
   37loPI   GL1  581  14.905  15.780  10.231 -0.1074 -0.2215  0.0561
   37loPI   GL2  582  14.762  16.010  10.326  0.1312 -0.0565  0.1091
   37loPI   C1A  583  14.946  15.755   9.796  0.2230 -0.1325 -0.1254
   37loPI   C2A  584  14.975  15.958   9.413 -0.3681 -0.0002 -0.1723
   37loPI   C3A  585  15.135  16.210   9.062 -0.0026  0.0414  0.1416
   37loPI   C4A  586  15.452  16.352   8.847  0.1207  0.0133 -0.1620
   37loPI   C5A  587  15.843  16.477   8.707 -0.1096 -0.2152  0.1215
   37loPI   C6A  588  16.080  16.452   8.355  0.0281 -0.2472  0.3370
   37loPI   C1B  589  14.620  16.085   9.976  0.2338  0.1500  0.1713
   37loPI   C2B  590  14.562  16.222   9.631 -0.1051 -0.0426 -0.4195
   37loPI   C3B  591  14.606  16.351   9.266  0.3292 -0.4685  0.0639
   37loPI   C4B  592  14.613  16.526   8.894  0.1940 -0.1660 -0.4904
   38loPI    C1  593  17.003  11.380  11.127  0.0655 -0.0385 -0.1040
   38loPI    C2  594  16.902  11.492  11.497  0.0345 -0.0854 -0.0982
   38loPI    C3  595  17.288  11.468  11.394  0.0403  0.1377 -0.1339
   38loPI   PO4  596  16.858  11.403  10.974  0.1752  0.0367 -0.2143
   38loPI   GL1  597  16.841  11.387  10.596  0.2001 -0.0163  0.0378
   38loPI   GL2  598  16.521  11.229  10.445  0.1191 -0.0812 -0.1161
   38loPI   C1A  599  17.020  11.600  10.204 -0.0348  0.1384 -0.0745
   38loPI   C2A  600  17.135  11.783   9.760 -0.1088  0.0722  0.2325
   38loPI   C3A  601  16.982  11.774   9.335  0.0671  0.0717  0.0406
   38loPI   C4A  602  17.153  11.532   9.019 -0.1847 -0.4436 -0.0019
   38loPI   C5A  603  17.320  11.046   8.740 -0.1003 -0.0361 -0.1847
   38loPI   C6A  604  17.161  10.617   8.578  0.0869 -0.2695 -0.4059
   38loPI   C1B  605  16.688  11.230  10.070 -0.0794 -0.0339 -0.1719
   38loPI   C2B  606  16.712  11.359   9.607  0.0734  0.0897  0.1451
   38loPI   C3B  607  16.720  11.274   9.114  0.2507 -0.1056 -0.0917
   38loPI   C4B  608  16.857  11.026   8.769  0.1893  0.1824  0.0611
   39loPI    C1  609  17.812   0.704  10.608 -0.1219 -0.0406  0.1940
   39loPI    C2  610  18.020   0.672  10.948 -0.1769 -0.1593  0.2171
   39loPI    C3  611  17.693   0.449  10.893 -0.1202 -0.2026  0.0510
   39loPI   PO4  612  17.964   0.631  10.406 -0.0669  0.1559  0.0800
   39loPI   GL1  613  18.050   0.601   9.966  0.0464 -0.0681 -0.1209
   39loPI   GL2  614  18.355   0.715  10.086 -0.3352  0.0665  0.0339
   39loPI   C1A  615  18.099   0.614   9.506 -0.2403  0.1721 -0.1773
   39loPI   C2A  616  18.062   0.562   9.072  0.1406 -0.0500 -0.0510
   39loPI   C3A  617  18.048   0.528   8.730 -0.1731  0.0001 -0.1435
   39loPI   C4A  618  18.167   0.535   8.308 -0.1662  0.0264 -0.0772
   39loPI   C5A  619  18.386   0.781   7.968 -0.2440  0.1358  0.0814
   39loPI   C6A  620  17.968   1.129   8.069 -0.6461  0.0401  0.1319
   39loPI   C1B  621  18.555   0.532   9.648 -0.1981 -0.0042  0.0394
   39loPI   C2B  622  18.481   0.848   9.319  0.1471  0.0805  0.0210
   39loPI   C3B  623  18.516   0.772   8.843 -0.1342  0.0738  0.0690
   39loPI   C4B  624  18.597   0.833   8.389  0.0936 -0.0517 -0.1314
   40loPI    C1  625  17.524   8.783  10.987 -0.1450  0.0012 -0.1886
   40loPI    C2  626  17.319   8.514  11.201  0.3394 -0.2015  0.0360
   40loPI    C3  627  17.591   8.747  11.380  0.4067 -0.0329 -0.2781
   40loPI   PO4  628  17.321   8.780  10.719 -0.2925  0.3169 -0.1661
   40loPI   GL1  629  17.438   8.958  10.433  0.2519  0.0257  0.0363
   40loPI   GL2  630  17.526   8.596  10.273  0.2568 -0.1280 -0.4210
   40loPI   C1A  631  17.450   9.040  10.019 -0.0524 -0.0861 -0.3794
   40loPI   C2A  632  17.423   8.802   9.615 -0.0498 -0.2628  0.0677
   40loPI   C3A  633  17.359   8.892   9.217  0.0601 -0.1703  0.1696
   40loPI   C4A  634  17.365   8.818   8.799  0.0004  0.3117 -0.0251
   40loPI   C5A  635  17.651   8.571   8.476 -0.1437  0.0513 -0.1236
   40loPI   C6A  636  17.739   8.720   8.017 -0.0530  0.3157  0.0124
   40loPI   C1B  637  17.392   8.422   9.935 -0.1331 -0.1203  0.0093
   40loPI   C2B  638  17.319   8.375   9.474 -0.1100  0.1726  0.0749
   40loPI   C3B  639  17.231   8.385   9.071  0.0881  0.1037 -0.2200
   40loPI   C4B  640  17.143   8.432   8.618  0.0784  0.1380 -0.3448
   41loPI    C1  641  13.890   4.288  11.474  0.0237 -0.0491 -0.1080
   41loPI    C2  642  13.612   4.107  11.697 -0.0462  0.1842 -0.0028
   41loPI    C3  643  13.970   3.936  11.646 -0.1649 -0.0585 -0.0381
   41loPI   PO4  644  13.778   4.343  11.255  0.0108  0.0223 -0.0899
   41loPI   GL1  645  13.696   4.341  10.841 -0.0705 -0.1362 -0.1643
   41loPI   GL2  646  13.715   4.570  10.580  0.2219 -0.0083  0.0045
   41loPI   C1A  647  13.566   4.109  10.465  0.1782 -0.1688  0.1511
   41loPI   C2A  648  13.472   4.091   9.935  0.0140  0.0237 -0.3041
   41loPI   C3A  649  13.404   4.122   9.517 -0.1500  0.2286  0.0822
   41loPI   C4A  650  13.451   4.154   9.074 -0.1963  0.0202  0.0315
   41loPI   C5A  651  13.332   4.309   8.612 -0.0996 -0.1880  0.2334
   41loPI   C6A  652  13.350   4.815   8.530 -0.4593  0.1631  0.2478
   41loPI   C1B  653  13.568   4.585  10.166 -0.3555 -0.0421 -0.2222
   41loPI   C2B  654  13.494   4.653   9.727  0.0549  0.3071 -0.0219
   41loPI   C3B  655  13.536   4.592   9.346  0.1454 -0.0250  0.1527
   41loPI   C4B  656  13.503   4.663   8.966 -0.1387 -0.0010  0.0844
   42loPI    C1  657  11.366  15.645  10.733 -0.0109 -0.2065  0.0909
   42loPI    C2  658  11.007  15.681  10.907 -0.0979 -0.1468 -0.0986
   42loPI    C3  659  11.333  15.627  11.131 -0.1722  0.2071  0.1018
   42loPI   PO4  660  11.308  15.826  10.516 -0.0047  0.2838  0.2320
   42loPI   GL1  661  11.338  15.853  10.090 -0.0481 -0.0639 -0.0105
   42loPI   GL2  662  11.694  15.811  10.036  0.0477  0.1111 -0.3930
   42loPI   C1A  663  11.290  15.775   9.708  0.1835 -0.0425  0.3412
   42loPI   C2A  664  11.178  15.702   9.372 -0.4690 -0.0588  0.3002
   42loPI   C3A  665  11.084  15.648   8.924 -0.3515  0.0233 -0.0637
   42loPI   C4A  666  10.753  15.569   8.654  0.3800  0.1647 -0.0874
   42loPI   C5A  667  10.429  15.733   8.472  0.1269  0.3023 -0.0008
   42loPI   C6A  668   9.989  15.778   8.611  0.1106 -0.0738  0.1642
   42loPI   C1B  669  11.577  15.378   9.836 -0.1263  0.0167  0.1256
   42loPI   C2B  670  11.580  15.260   9.452 -0.2383 -0.0640 -0.5521
   42loPI   C3B  671  11.481  14.874   9.202 -0.0069  0.2612  0.0474
   42loPI   C4B  672  11.423  14.639   8.767  0.0512 -0.1599  0.0595
   43loPI    C1  673  13.656   3.646  10.833 -0.1001 -0.1998 -0.0260
   43loPI    C2  674  13.398   3.948  10.882 -0.0618 -0.1569 -0.0873
   43loPI    C3  675  13.621   3.823  11.190  0.0179 -0.0351 -0.0952
   43loPI   PO4  676  13.429   3.422  10.686  0.2705  0.0348 -0.0573
   43loPI   GL1  677  13.076   3.263  10.424 -0.0023  0.1801  0.0664
   43loPI   GL2  678  12.913   3.491  10.601  0.1921  0.1429  0.0469
   43loPI   C1A  679  13.367   3.517   9.983  0.0481  0.0417 -0.0248
   43loPI   C2A  680  13.368   3.582   9.574 -0.1980  0.2099  0.3070
   43loPI   C3A  681  13.297   3.718   9.234  0.0826 -0.3118  0.1866
   43loPI   C4A  682  13.403   3.707   8.811  0.2024  0.1899  0.3527
   43loPI   C5A  683  13.381   3.458   8.353  0.0550  0.0263 -0.0701
   43loPI   C6A  684  13.065   3.197   8.098 -0.0465  0.0657  0.2252
   43loPI   C1B  685  13.039   3.750  10.298 -0.2198 -0.1323  0.0179
   43loPI   C2B  686  12.967   3.824   9.885  0.1538  0.4229  0.0462
   43loPI   C3B  687  12.895   3.911   9.481  0.1988  0.0683  0.1143
   43loPI   C4B  688  12.891   3.938   9.039  0.2951  0.1958  0.2560
   44loPI    C1  689   4.986  16.187  10.417  0.0077  0.1396 -0.0958
   44loPI    C2  690   4.936  16.361  10.774 -0.1007  0.0801 -0.0817
   44loPI    C3  691   4.759  16.011  10.695  0.2309 -0.0968 -0.0588
   44loPI   PO4  692   5.025  16.384  10.275  0.2121  0.0405 -0.2227
   44loPI   GL1  693   5.112  16.357   9.931 -0.2944 -0.0998  0.1565
   44loPI   GL2  694   5.285  16.121   9.965  0.1848  0.1752 -0.1605
   44loPI   C1A  695   5.268  16.323   9.454  0.2773 -0.0665  0.0271
   44loPI   C2A  696   5.309  16.184   9.042 -0.2320  0.0112  0.1962
   44loPI   C3A  697   5.296  16.024   8.658 -0.3601  0.2549 -0.0555
   44loPI   C4A  698   5.283  15.843   8.255 -0.3359  0.3145 -0.1607
   44loPI   C5A  699   4.992  15.470   8.033 -0.0557 -0.3038  0.1799
   44loPI   C6A  700   4.857  15.329   7.630  0.0241 -0.1549  0.3015
   44loPI   C1B  701   5.228  15.845   9.597  0.1389 -0.0353  0.1230
   44loPI   C2B  702   5.181  15.654   9.241 -0.0885 -0.0133 -0.0415
   44loPI   C3B  703   5.223  15.560   8.909 -0.2723 -0.2313  0.0097
   44loPI   C4B  704   5.062  15.488   8.542  0.1381 -0.0948 -0.0669
   45loPI    C1  705   0.570   2.103  10.776  0.0584  0.0122 -0.0618
   45loPI    C2  706   0.512   2.270  11.135  0.1269 -0.1909  0.0459
   45loPI    C3  707   0.488   1.873  11.094 -0.3373 -0.1388 -0.2660
   45loPI   PO4  708   0.349   2.226  10.621 -0.0014  0.0922  0.1083
   45loPI   GL1  709   0.167   2.254  10.206  0.1900 -0.1741 -0.0516
   45loPI   GL2  710   0.220   2.553   9.986 -0.2884  0.0466 -0.3144
   45loPI   C1A  711   0.289   2.122   9.778  0.1496 -0.1489 -0.0794
   45loPI   C2A  712   0.348   2.069   9.353 -0.1346  0.0661  0.0403
   45loPI   C3A  713   0.274   2.147   8.962 -0.1008  0.1155  0.1114
   45loPI   C4A  714   0.391   2.126   8.522  0.2397  0.1791 -0.0847
   45loPI   C5A  715   0.615   1.821   8.218 -0.0238  0.1397  0.0713
   45loPI   C6A  716   1.026   1.663   8.201  0.0287  0.2872 -0.0989
   45loPI   C1B  717   0.355   2.545   9.545  0.0634 -0.0760  0.1471
   45loPI   C2B  718   0.393   2.587   9.098 -0.0996  0.3808 -0.1657
   45loPI   C3B  719   0.341   2.639   8.659  0.3254 -0.1276 -0.1756
   45loPI   C4B  720   0.288   2.584   8.173 -0.0666  0.3075 -0.1588
   46loPI    C1  721  16.388   6.547  10.883 -0.0096 -0.0856  0.0087
   46loPI    C2  722  16.455   6.479  11.272  0.0300 -0.0214  0.0132
   46loPI    C3  723  16.709   6.337  10.998 -0.0018 -0.0726  0.0103
   46loPI   PO4  724  16.400   6.809  10.898  0.0047 -0.3174  0.0512
   46loPI   GL1  725  16.462   7.059  10.523  0.0999 -0.0220  0.2037
   46loPI   GL2  726  16.324   7.338  10.494 -0.1723  0.1854  0.0737
   46loPI   C1A  727  16.587   6.797  10.214 -0.0308  0.2730 -0.3817
   46loPI   C2A  728  16.511   6.756   9.777  0.1839  0.0561  0.4599
   46loPI   C3A  729  16.714   6.728   9.434  0.0148 -0.1019 -0.2498
   46loPI   C4A  730  16.583   6.611   8.928 -0.1576  0.2329 -0.0242
   46loPI   C5A  731  16.639   6.149   8.823  0.2332  0.1826 -0.2474
   46loPI   C6A  732  16.834   5.911   8.511 -0.0242 -0.2059 -0.4569
   46loPI   C1B  733  16.188   7.594  10.145  0.2609 -0.3661  0.2559
   46loPI   C2B  734  16.267   7.655   9.729 -0.4859  0.0061 -0.2350
   46loPI   C3B  735  16.257   7.526   9.275 -0.0446 -0.1666  0.3846
   46loPI   C4B  736  16.254   7.489   8.790 -0.1140  0.2867 -0.1122
   47loPI    C1  737   2.226   5.195  10.617 -0.0544 -0.0149  0.2268
   47loPI    C2  738   2.319   5.016  10.963  0.2070 -0.2681  0.0306
   47loPI    C3  739   2.193   4.798  10.652 -0.1395 -0.0294 -0.0021
   47loPI   PO4  740   2.133   5.398  10.680 -0.1358 -0.1906 -0.0988
   47loPI   GL1  741   2.052   5.577  10.341 -0.0709 -0.4288  0.2705
   47loPI   GL2  742   1.844   5.279  10.216 -0.0781 -0.1194  0.0242
   47loPI   C1A  743   2.064   5.932  10.145  0.1510 -0.1238  0.2228
   47loPI   C2A  744   1.829   6.001   9.880  0.1838 -0.0090  0.3158
   47loPI   C3A  745   1.830   6.089   9.411 -0.0014 -0.4810 -0.2235
   47loPI   C4A  746   1.871   5.988   9.039  0.3400  0.1784 -0.0398
   47loPI   C5A  747   2.070   6.122   8.621  0.0450  0.3022 -0.0128
   47loPI   C6A  748   2.398   6.307   8.408  0.1023 -0.1555 -0.2511
   47loPI   C1B  749   1.904   5.464   9.739 -0.0445  0.1954 -0.2323
   47loPI   C2B  750   1.848   5.558   9.328 -0.0260  0.0649  0.1870
   47loPI   C3B  751   1.797   5.525   8.891  0.2610  0.1693  0.0407
   47loPI   C4B  752   1.723   5.677   8.484  0.0754  0.0861 -0.1766
   48loPI    C1  753  10.825  10.223  11.306  0.0453  0.0569 -0.0431
   48loPI    C2  754  10.949  10.421  11.631 -0.3178  0.1130  0.0662
   48loPI    C3  755  10.864  10.031  11.654 -0.0730  0.0518 -0.0321
   48loPI   PO4  756  10.988  10.250  11.011  0.0964 -0.1416 -0.3127
   48loPI   GL1  757  10.932  10.321  10.602  0.0793  0.0722  0.1437
   48loPI   GL2  758  11.095  10.518  10.406 -0.0063  0.1219 -0.0540
   48loPI   C1A  759  11.035  10.015  10.254 -0.1290  0.1000  0.2965
   48loPI   C2A  760  11.040   9.897   9.869  0.0542  0.0886 -0.1749
   48loPI   C3A  761  11.146   9.926   9.406 -0.2477 -0.3155  0.0960
   48loPI   C4A  762  11.080   9.904   9.056 -0.0351  0.1064  0.1232
   48loPI   C5A  763  10.864   9.870   8.594  0.0630 -0.2009 -0.2513
   48loPI   C6A  764  10.836  10.148   8.293 -0.2419 -0.0264 -0.0742
   48loPI   C1B  765  11.151  10.451  10.034 -0.0097  0.1442  0.1529
   48loPI   C2B  766  11.188  10.397   9.573  0.0011  0.1253 -0.1281
   48loPI   C3B  767  11.236  10.433   9.191  0.2073  0.0427 -0.0714
   48loPI   C4B  768  11.023  10.359   8.703 -0.1770 -0.1357 -0.0319
   49loPI    C1  769   3.396   9.246  10.893 -0.0905 -0.1857  0.1383
   49loPI    C2  770   3.617   9.088  11.187  0.1440 -0.0293  0.0483
   49loPI    C3  771   3.562   9.484  11.167 -0.0983 -0.0620  0.0365
   49loPI   PO4  772   3.432   9.154  10.693  0.3860  0.1060  0.1398
   49loPI   GL1  773   3.341   9.266  10.256 -0.0375  0.3311 -0.0341
   49loPI   GL2  774   3.675   9.365  10.289  0.3295  0.3269  0.1775
   49loPI   C1A  775   3.223   9.167   9.886 -0.2891  0.0451 -0.3134
   49loPI   C2A  776   3.217   9.013   9.481 -0.3608  0.3442 -0.2784
   49loPI   C3A  777   3.223   9.004   9.029  0.1705 -0.1394 -0.0385
   49loPI   C4A  778   3.127   8.950   8.573 -0.1897 -0.2139 -0.0958
   49loPI   C5A  779   3.018   9.023   8.205  0.4578  0.0604 -0.0714
   49loPI   C6A  780   2.875   9.375   8.010 -0.0276  0.4135  0.1716
   49loPI   C1B  781   3.794   9.180   9.921  0.0037  0.1906 -0.0826
   49loPI   C2B  782   3.690   9.197   9.528 -0.0273 -0.2058  0.1845
   49loPI   C3B  783   3.640   9.160   9.140 -0.0038 -0.0545  0.1238
   49loPI   C4B  784   3.570   9.258   8.717 -0.1697  0.2496  0.0036
   50loPI    C1  785  12.895  15.249  10.991 -0.0882 -0.0239 -0.0345
   50loPI    C2  786  13.078  15.300  11.343  0.0382  0.0580 -0.1113
   50loPI    C3  787  13.012  14.931  11.204 -0.0684  0.0240  0.0265
   50loPI   PO4  788  13.029  15.513  10.774 -0.1385  0.1155  0.1275
   50loPI   GL1  789  13.058  15.822  10.375 -0.2204 -0.2620 -0.1592
   50loPI   GL2  790  13.003  15.523  10.257  0.0912 -0.1445  0.2223
   50loPI   C1A  791  13.396  15.807  10.120 -0.0644 -0.1907 -0.0146
   50loPI   C2A  792  13.642  16.013   9.843 -0.0020 -0.1402  0.1719
   50loPI   C3A  793  13.708  16.178   9.506  0.2763 -0.1263 -0.3426
   50loPI   C4A  794  13.722  16.404   9.171 -0.0613 -0.0669 -0.2087
   50loPI   C5A  795  13.704  16.486   8.773 -0.0301 -0.2629 -0.2956
   50loPI   C6A  796  13.265  16.513   8.535 -0.1054 -0.1117 -0.0113
   50loPI   C1B  797  13.086  15.291   9.839  0.0606 -0.0482  0.1314
   50loPI   C2B  798  13.162  15.376   9.343  0.0920 -0.2292 -0.0006
   50loPI   C3B  799  13.193  15.578   8.912  0.1476  0.2549 -0.0376
   50loPI   C4B  800  12.827  15.509   8.646  0.0770 -0.1199  0.0576
   51loPI    C1  801   9.195  11.467  10.890 -0.0140  0.0612  0.1659
   51loPI    C2  802   8.959  11.690  11.123 -0.2628  0.1226 -0.1384
   51loPI    C3  803   9.073  11.826  10.765  0.3026  0.1258  0.0342
   51loPI   PO4  804   9.106  11.255  10.915  0.0662 -0.1421 -0.0035
   51loPI   GL1  805   9.172  11.014  10.480 -0.2025 -0.1318  0.0080
   51loPI   GL2  806   9.297  11.318  10.451 -0.1678  0.2376  0.1078
   51loPI   C1A  807   9.190  10.703  10.239 -0.0430 -0.1876  0.1540
   51loPI   C2A  808   9.318  10.556   9.932  0.0897  0.1784 -0.0270
   51loPI   C3A  809   9.240  10.578   9.499 -0.1531 -0.1126  0.3044
   51loPI   C4A  810   9.336  10.687   9.028  0.0404  0.0163  0.3468
   51loPI   C5A  811   9.496  10.691   8.647 -0.1911 -0.0383 -0.2534
   51loPI   C6A  812   9.903  10.837   8.503  0.1377 -0.0885 -0.3767
   51loPI   C1B  813   9.293  11.214  10.011 -0.0703  0.0967  0.0336
   51loPI   C2B  814   9.372  11.352   9.578  0.1257  0.0437  0.0258
   51loPI   C3B  815   9.334  11.150   9.177  0.2022  0.0381  0.3867
   51loPI   C4B  816   9.162  11.164   8.773 -0.3280  0.0759 -0.1686
   52loPI    C1  817   6.797   2.002  11.279 -0.0504  0.0992 -0.0955
   52loPI    C2  818   6.970   1.971  11.638 -0.2168 -0.1555 -0.0347
   52loPI    C3  819   6.711   2.267  11.566  0.0156  0.0525 -0.0321
   52loPI   PO4  820   6.986   1.962  11.048  0.0360 -0.2321  0.2281
   52loPI   GL1  821   7.150   2.006  10.563  0.0014 -0.3568  0.1618
   52loPI   GL2  822   7.414   2.196  10.359 -0.3288 -0.2213 -0.2662
   52loPI   C1A  823   7.246   1.730  10.205 -0.2166  0.2850  0.1979
   52loPI   C2A  824   7.039   1.683   9.750 -0.0450  0.0716  0.1166
   52loPI   C3A  825   6.689   1.819   9.483 -0.0288 -0.0252 -0.0211
   52loPI   C4A  826   6.659   1.983   9.100  0.0433 -0.1413  0.1915
   52loPI   C5A  827   6.662   1.995   8.656 -0.0628 -0.2955 -0.1910
   52loPI   C6A  828   6.717   2.251   8.307 -0.0308 -0.0083 -0.0619
   52loPI   C1B  829   7.121   2.126  10.019  0.0994 -0.2266  0.1160
   52loPI   C2B  830   6.824   2.252   9.676 -0.0673 -0.0402  0.0000
   52loPI   C3B  831   6.888   2.402   9.232 -0.1742  0.3852  0.2398
   52loPI   C4B  832   7.044   2.320   8.795 -0.0439  0.1620 -0.2275
   53loPI    C1  833   8.097  10.915  11.090 -0.0605 -0.0727  0.0247
   53loPI    C2  834   7.791  11.089  10.900  0.1405 -0.1135 -0.3446
   53loPI    C3  835   7.937  11.251  11.235 -0.1673  0.0040 -0.2642
   53loPI   PO4  836   8.277  10.789  10.884 -0.1561 -0.1182 -0.0013
   53loPI   GL1  837   8.567  10.848  10.609  0.0526 -0.1183  0.0895
   53loPI   GL2  838   8.268  10.756  10.398 -0.1758 -0.0467  0.1601
   53loPI   C1A  839   8.775  10.966  10.255 -0.0635 -0.2737 -0.1434
   53loPI   C2A  840   8.952  10.900   9.781 -0.1564  0.0730  0.1137
   53loPI   C3A  841   8.821  10.892   9.469  0.0049 -0.1323 -0.1404
   53loPI   C4A  842   8.870  10.842   9.017  0.1142  0.1749  0.2499
   53loPI   C5A  843   9.053  10.720   8.509  0.3223 -0.0024  0.1809
   53loPI   C6A  844   9.231  10.327   8.358 -0.1247 -0.2119  0.0457
   53loPI   C1B  845   8.445  10.628   9.966  0.1186 -0.1411  0.1975
   53loPI   C2B  846   8.350  10.693   9.579 -0.2063  0.2463 -0.2042
   53loPI   C3B  847   8.283  10.716   9.139 -0.2722  0.2247  0.1419
   53loPI   C4B  848   8.308  10.765   8.710 -0.0014  0.1863  0.1329
   54loPI    C1  849   1.806  14.955  11.055  0.2382 -0.0426 -0.0243
   54loPI    C2  850   1.991  14.603  11.009  0.0541 -0.1678  0.1768
   54loPI    C3  851   1.724  14.652  11.303 -0.0399  0.0916  0.0512
   54loPI   PO4  852   1.745  14.979  10.773 -0.4796 -0.2017 -0.0618
   54loPI   GL1  853   1.497  14.762  10.361  0.0727  0.1492  0.2549
   54loPI   GL2  854   1.792  14.524  10.376  0.1545  0.0619 -0.0048
   54loPI   C1A  855   1.496  14.713   9.803 -0.0409 -0.2648  0.0749
   54loPI   C2A  856   1.464  14.611   9.352  0.1943  0.1928  0.2100
   54loPI   C3A  857   1.163  14.576   9.054  0.2236  0.0691 -0.0480
   54loPI   C4A  858   1.059  14.669   8.609  0.2295  0.0805  0.1238
   54loPI   C5A  859   0.795  15.012   8.627 -0.1441  0.0673  0.0648
   54loPI   C6A  860   0.686  15.434   8.694  0.1045 -0.1931 -0.1938
   54loPI   C1B  861   1.892  14.475   9.984 -0.2228  0.2117 -0.0036
   54loPI   C2B  862   1.868  14.181   9.530  0.0310  0.2595  0.0306
   54loPI   C3B  863   1.874  14.378   9.171  0.3675  0.1966  0.2573
   54loPI   C4B  864   1.929  14.378   8.728  0.1674  0.0802 -0.1044
   55loPI    C1  865   7.173  12.604  10.810 -0.1709  0.1462 -0.1730
   55loPI    C2  866   7.191  12.881  11.098  0.0692  0.1420 -0.1820
   55loPI    C3  867   6.981  12.546  11.156  0.2561  0.0631  0.0574
   55loPI   PO4  868   7.500  12.523  10.748  0.0250  0.1036 -0.4392
   55loPI   GL1  869   7.657  12.587  10.369  0.0153 -0.0765 -0.1566
   55loPI   GL2  870   7.835  12.893  10.312 -0.0523  0.3776 -0.2633
   55loPI   C1A  871   7.606  12.517   9.961 -0.1813 -0.2777 -0.1443
   55loPI   C2A  872   7.869  12.458   9.595  0.2027  0.0404 -0.4785
   55loPI   C3A  873   7.935  12.700   9.217  0.2309 -0.1196  0.0448
   55loPI   C4A  874   7.997  12.583   8.798  0.0433  0.2157  0.0725
   55loPI   C5A  875   7.802  12.568   8.525  0.1611 -0.1085 -0.2194
   55loPI   C6A  876   7.717  12.293   8.253 -0.0314 -0.1263 -0.2505
   55loPI   C1B  877   7.997  12.961   9.875 -0.1122 -0.1918  0.1183
   55loPI   C2B  878   8.277  12.709   9.618  0.0482 -0.0025 -0.3278
   55loPI   C3B  879   8.428  12.640   9.244 -0.0583  0.1251 -0.0442
   55loPI   C4B  880   8.512  12.575   8.826 -0.0806 -0.0678 -0.1763
   56loPI    C1  881   7.410   8.119  11.495 -0.2860  0.0672  0.0082
   56loPI    C2  882   7.121   7.854  11.414 -0.0332 -0.2265  0.0458
   56loPI    C3  883   7.205   7.949  11.794 -0.0900 -0.1283  0.0343
   56loPI   PO4  884   7.622   8.011  11.262  0.1455  0.5512  0.2442
   56loPI   GL1  885   7.763   8.057  10.856  0.0054  0.2615 -0.1228
   56loPI   GL2  886   7.823   8.398  10.695  0.1009  0.1845 -0.2145
   56loPI   C1A  887   7.700   7.972  10.460  0.0182  0.3692 -0.0039
   56loPI   C2A  888   7.622   7.996  10.058  0.3505  0.4000  0.3303
   56loPI   C3A  889   7.571   7.974   9.631  0.1019  0.1241 -0.0338
   56loPI   C4A  890   7.570   8.049   9.160  0.3336  0.0738  0.2050
   56loPI   C5A  891   7.279   8.271   8.832 -0.0284 -0.0109 -0.1566
   56loPI   C6A  892   7.084   8.312   8.370  0.2355  0.1757  0.1235
   56loPI   C1B  893   7.686   8.469  10.223  0.1970  0.2639 -0.0595
   56loPI   C2B  894   7.640   8.513   9.779  0.0497  0.0524  0.1697
   56loPI   C3B  895   7.648   8.532   9.343  0.1363  0.0076  0.0387
   56loPI   C4B  896   7.711   8.551   8.977  0.0138 -0.2642 -0.3502
   57loPI    C1  897   0.319   7.432  11.258 -0.0367  0.1557 -0.2003
   57loPI    C2  898   0.440   7.104  11.451 -0.1934 -0.0176 -0.3926
   57loPI    C3  899   0.104   7.290  11.563  0.2241  0.4553  0.1319
   57loPI   PO4  900   0.318   7.287  10.980  0.2300  0.1050 -0.1212
   57loPI   GL1  901   0.284   7.425  10.628  0.2349 -0.3564  0.1182
   57loPI   GL2  902   0.046   7.425  10.423  0.1159  0.0504 -0.1652
   57loPI   C1A  903   0.491   7.133  10.254 -0.2541  0.2968 -0.2009
   57loPI   C2A  904   0.623   7.006   9.890 -0.2366  0.0002  0.0735
   57loPI   C3A  905   0.586   7.049   9.397  0.0457 -0.1665  0.3447
   57loPI   C4A  906   0.454   6.944   8.957  0.2655  0.1905 -0.1259
   57loPI   C5A  907   0.135   6.784   8.697  0.1648  0.0294  0.1698
   57loPI   C6A  908   0.260   6.457   8.415  0.0496 -0.2100  0.3428
   57loPI   C1B  909   0.264   7.437   9.942  0.1856 -0.0161 -0.1973
   57loPI   C2B  910   0.170   7.246   9.549 -0.0140  0.0892  0.1447
   57loPI   C3B  911   0.147   7.282   9.135 -0.0943 -0.0389  0.3994
   57loPI   C4B  912   0.164   7.272   8.727 -0.1853  0.3130 -0.1193
   58loPI    C1  913   4.371   0.086  10.781  0.1198 -0.0125  0.0306
   58loPI    C2  914   4.746  -0.052  10.811  0.0590 -0.1656  0.0974
   58loPI    C3  915   4.590   0.171  11.105  0.1137 -0.0613  0.0478
   58loPI   PO4  916   4.244  -0.080  10.450 -0.0178  0.4461 -0.3138
   58loPI   GL1  917   4.407  -0.166   9.985  0.0727  0.3864 -0.0873
   58loPI   GL2  918   4.311   0.030   9.763 -0.1985  0.1504  0.2134
   58loPI   C1A  919   4.446  -0.434   9.701  0.0238  0.2157 -0.0123
   58loPI   C2A  920   4.366  -0.468   9.270  0.2644 -0.3183 -0.1199
   58loPI   C3A  921   4.338  -0.549   8.899  0.1396 -0.3454  0.1268
   58loPI   C4A  922   4.447  -0.696   8.440  0.0753  0.0148 -0.2467
   58loPI   C5A  923   4.240  -0.560   8.090 -0.1877 -0.2858 -0.0035
   58loPI   C6A  924   4.345  -0.249   7.791  0.2364  0.0823  0.5335
   58loPI   C1B  925   4.071   0.047   9.488 -0.3604 -0.0258 -0.3930
   58loPI   C2B  926   3.894  -0.257   9.199  0.0439 -0.0969 -0.1371
   58loPI   C3B  927   3.828  -0.587   8.981  0.2298  0.2354  0.1361
   58loPI   C4B  928   3.989  -0.492   8.511 -0.0104 -0.0091 -0.0520
   59loPI    C1  929   0.609   5.238  11.146  0.1270  0.0623 -0.0788
   59loPI    C2  930   0.485   4.981  11.426 -0.0936  0.0189 -0.2137
   59loPI    C3  931   0.767   5.251  11.513 -0.0136 -0.1277 -0.0100
   59loPI   PO4  932   0.648   5.073  10.949 -0.1693  0.0181  0.0242
   59loPI   GL1  933   0.490   4.811  10.628  0.0564  0.1460  0.3523
   59loPI   GL2  934   0.634   4.531  10.499  0.0500  0.0524 -0.0741
   59loPI   C1A  935   0.304   4.912  10.181 -0.0976 -0.2054  0.0383
   59loPI   C2A  936   0.307   4.960   9.746 -0.0875  0.3667  0.1378
   59loPI   C3A  937   0.366   4.981   9.354  0.0319  0.2434 -0.0452
   59loPI   C4A  938   0.306   4.930   8.894 -0.2452  0.1457  0.0199
   59loPI   C5A  939   0.165   4.927   8.501  0.1140 -0.2478 -0.1782
   59loPI   C6A  940   0.081   4.818   8.127 -0.0636  0.2184  0.2848
   59loPI   C1B  941   0.677   4.578  10.051 -0.3761  0.1134  0.0255
   59loPI   C2B  942   0.741   4.647   9.618  0.1007 -0.0367  0.1733
   59loPI   C3B  943   0.680   4.685   9.165  0.0817  0.0100 -0.1852
   59loPI   C4B  944   0.769   4.738   8.733  0.0818  0.0204  0.1267
   60loPI    C1  945  16.230   9.864  11.342  0.0804  0.0698 -0.1175
   60loPI    C2  946  16.435   9.975  11.667 -0.1549  0.0079  0.0539
   60loPI    C3  947  16.075  10.134  11.593 -0.2260 -0.1864 -0.0247
   60loPI   PO4  948  16.504   9.861  11.088 -0.0229 -0.4796 -0.1021
   60loPI   GL1  949  16.498   9.803  10.685 -0.4263  0.0944 -0.4903
   60loPI   GL2  950  16.506   9.509  10.525 -0.1798 -0.2759  0.2825
   60loPI   C1A  951  16.275   9.939  10.329  0.0423 -0.0041 -0.0521
   60loPI   C2A  952  16.363   9.957   9.882  0.0255  0.0668  0.1530
   60loPI   C3A  953  16.304   9.775   9.441 -0.0156  0.1253 -0.0378
   60loPI   C4A  954  16.155   9.676   9.029 -0.1144 -0.0745 -0.1278
   60loPI   C5A  955  16.119   9.753   8.579  0.2430 -0.0829  0.0595
   60loPI   C6A  956  16.198  10.034   8.226 -0.1658 -0.0124 -0.0920
   60loPI   C1B  957  16.280   9.477  10.069  0.1599 -0.1923  0.0412
   60loPI   C2B  958  16.129   9.451   9.757 -0.0035  0.0187  0.0127
   60loPI   C3B  959  16.194   9.320   9.376  0.1508 -0.3241  0.0520
   60loPI   C4B  960  16.340   9.153   9.014  0.0704  0.2916  0.1717
   61loPI    C1  961   9.031   4.161  11.223  0.0899  0.0788 -0.0985
   61loPI    C2  962   9.218   3.854  11.400  0.1006  0.1829  0.0724
   61loPI    C3  963   8.967   4.084  11.611 -0.1437  0.1063 -0.1304
   61loPI   PO4  964   8.883   4.004  10.986  0.3936 -0.0736 -0.0202
   61loPI   GL1  965   8.743   4.087  10.572  0.1800  0.2751  0.3384
   61loPI   GL2  966   8.833   3.969  10.354 -0.3069  0.0950 -0.0639
   61loPI   C1A  967   8.482   4.397  10.317 -0.0741  0.3107  0.1369
   61loPI   C2A  968   8.372   4.461   9.894  0.0065  0.0625  0.2377
   61loPI   C3A  969   8.485   4.471   9.509  0.0567  0.0249  0.2840
   61loPI   C4A  970   8.443   4.494   9.008 -0.0017  0.1024 -0.1372
   61loPI   C5A  971   8.573   4.473   8.589 -0.0973 -0.1810  0.1081
   61loPI   C6A  972   8.356   4.160   8.363  0.0883 -0.0859 -0.0308
   61loPI   C1B  973   8.742   4.095   9.914 -0.0559  0.1705  0.0499
   61loPI   C2B  974   8.901   4.192   9.525  0.0647  0.0792  0.3026
   61loPI   C3B  975   8.985   4.317   9.049  0.0896 -0.0414  0.0849
   61loPI   C4B  976   9.107   4.513   8.653  0.1544 -0.0620 -0.0944
   62loPI    C1  977   7.804   7.551  11.467 -0.2121 -0.0542 -0.2268
   62loPI    C2  978   7.414   7.500  11.537 -0.1685  0.1254  0.1735
   62loPI    C3  979   7.664   7.572  11.841  0.1632  0.1113 -0.0903
   62loPI   PO4  980   7.782   7.527  11.201 -0.0664 -0.2915  0.0010
   62loPI   GL1  981   7.816   7.501  10.767 -0.0955  0.1327  0.0095
   62loPI   GL2  982   8.028   7.620  10.547  0.2906 -0.0051  0.2640
   62loPI   C1A  983   7.610   7.422  10.357 -0.1080  0.2525 -0.0076
   62loPI   C2A  984   7.615   7.435   9.953  0.2109  0.1666 -0.1494
   62loPI   C3A  985   7.628   7.531   9.551 -0.1140 -0.0973  0.0494
   62loPI   C4A  986   7.463   7.498   9.123 -0.1464 -0.2695  0.1438
   62loPI   C5A  987   7.505   7.669   8.854  0.2959  0.1237 -0.0925
   62loPI   C6A  988   7.601   7.970   8.632  0.1502 -0.1998  0.2312
   62loPI   C1B  989   7.993   7.710  10.089  0.2755 -0.1962 -0.1260
   62loPI   C2B  990   8.100   7.740   9.694  0.2142 -0.0397 -0.3636
   62loPI   C3B  991   7.972   7.705   9.255  0.2639 -0.0322  0.0881
   62loPI   C4B  992   7.954   7.706   8.881 -0.1284 -0.2145 -0.1321
   63loPI    C1  993   2.266  17.808  10.663 -0.0562 -0.2456  0.0865
   63loPI    C2  994   1.982  18.050  10.807  0.2353  0.2225 -0.1023
   63loPI    C3  995   2.231  17.864  11.058 -0.1177 -0.0513  0.0548
   63loPI   PO4  996   2.214  17.963  10.386  0.0086  0.1831  0.0018
   63loPI   GL1  997   2.125  17.909  10.003  0.0272  0.0967 -0.0266
   63loPI   GL2  998   1.749  17.959   9.934 -0.2701  0.3029 -0.0678
   63loPI   C1A  999   1.899  17.615   9.636 -0.0831 -0.0611 -0.0552
   63loPI   C2A 1000   1.820  17.551   9.206 -0.2530  0.1417 -0.1253
   63loPI   C3A 1001   1.627  17.622   8.762  0.1936 -0.0983  0.1612
   63loPI   C4A 1002   1.477  17.336   8.414  0.1015  0.0800 -0.2147
   63loPI   C5A 1003   1.374  17.328   7.960  0.2816 -0.4085  0.3131
   63loPI   C6A 1004   1.213  17.311   7.625 -0.1505 -0.1049  0.0605
   63loPI   C1B 1005   1.492  17.879   9.524 -0.0422  0.1487  0.2068
   63loPI   C2B 1006   1.487  17.986   9.086 -0.1831 -0.5418  0.3536
   63loPI   C3B 1007   1.491  18.149   8.720 -0.1180 -0.1140 -0.5485
   63loPI   C4B 1008   1.741  18.164   8.371 -0.3821 -0.1580 -0.0765
   64loPI    C1 1009  14.408   6.880  11.147 -0.3510 -0.1020 -0.1399
   64loPI    C2 1010  14.418   6.615  11.445 -0.0876 -0.0123 -0.0666
   64loPI    C3 1011  14.336   6.998  11.522 -0.0801 -0.0005 -0.1176
   64loPI   PO4 1012  14.644   6.841  10.971 -0.0022  0.1672  0.1860
   64loPI   GL1 1013  14.555   6.706  10.564  0.1491 -0.1603 -0.1946
   64loPI   GL2 1014  14.818   6.644  10.453  0.0196  0.1017  0.1293
   64loPI   C1A 1015  14.369   6.787  10.192 -0.0815 -0.0612  0.3127
   64loPI   C2A 1016  14.361   6.818   9.717  0.0240  0.0548 -0.4064
   64loPI   C3A 1017  14.350   6.848   9.287  0.0915 -0.2763  0.1348
   64loPI   C4A 1018  14.237   6.716   8.894  0.0026  0.4335 -0.0441
   64loPI   C5A 1019  14.357   6.848   8.438  0.1309  0.1039  0.2953
   64loPI   C6A 1020  14.637   6.927   8.166  0.0999  0.0005  0.3503
   64loPI   C1B 1021  14.711   6.489   9.987  0.1939  0.1374 -0.0181
   64loPI   C2B 1022  14.668   6.481   9.499  0.0778 -0.0632 -0.3062
   64loPI   C3B 1023  14.687   6.479   9.021  0.1696  0.0807  0.0923
   64loPI   C4B 1024  14.664   6.541   8.651 -0.1105 -0.5522 -0.1488
   65loPI    C1 1025   7.707   5.770  11.415 -0.4546 -0.0243 -0.1469
   65loPI    C2 1026   7.515   5.466  11.590 -0.3198  0.0194  0.0807
   65loPI    C3 1027   7.657   5.767  11.812  0.0060 -0.0090 -0.0827
   65loPI   PO4 1028   7.609   5.764  11.137  0.0292  0.2123  0.2348
   65loPI   GL1 1029   7.584   6.007  10.833 -0.0063 -0.1451 -0.0278
   65loPI   GL2 1030   7.537   6.328  10.695 -0.0931 -0.0040  0.1491
   65loPI   C1A 1031   7.780   6.053  10.395  0.0733 -0.1566  0.1476
   65loPI   C2A 1032   7.844   6.144   9.902 -0.2268 -0.0845 -0.1295
   65loPI   C3A 1033   7.842   6.235   9.540 -0.0194  0.2074 -0.2369
   65loPI   C4A 1034   7.849   6.254   9.091 -0.1442 -0.1291 -0.1494
   65loPI   C5A 1035   7.823   6.107   8.625 -0.0182 -0.0845 -0.0497
   65loPI   C6A 1036   8.099   5.927   8.326  0.0237 -0.3098 -0.0229
   65loPI   C1B 1037   7.415   6.425  10.206 -0.3093  0.1682  0.1848
   65loPI   C2B 1038   7.445   6.514   9.736 -0.0849  0.2564 -0.0366
   65loPI   C3B 1039   7.475   6.502   9.291 -0.1008 -0.0144 -0.0767
   65loPI   C4B 1040   7.544   6.639   8.823  0.0292 -0.1060  0.0170
   66loPI    C1 1041  13.381  17.169  10.938 -0.1712  0.3211 -0.3149
   66loPI    C2 1042  13.274  17.475  11.173  0.0588  0.0762  0.1226
   66loPI    C3 1043  13.039  17.152  11.145  0.1159  0.0317  0.1543
   66loPI   PO4 1044  13.537  17.173  10.712 -0.0165 -0.0707  0.1151
   66loPI   GL1 1045  13.331  17.114  10.291 -0.3791 -0.0248  0.1121
   66loPI   GL2 1046  13.197  16.853  10.196  0.0133  0.1075 -0.0525
   66loPI   C1A 1047  13.297  17.378   9.878  0.2109 -0.0996  0.0357
   66loPI   C2A 1048  13.345  17.646   9.635  0.0551  0.3361  0.0210
   66loPI   C3A 1049  13.289  17.794   9.204  0.1267  0.1860  0.3284
   66loPI   C4A 1050  13.035  18.019   8.958  0.4209  0.0133  0.1203
   66loPI   C5A 1051  13.066  18.376   8.659 -0.0226 -0.0657 -0.1394
   66loPI   C6A 1052  12.966  18.809   8.448 -0.2121 -0.0863 -0.0610
   66loPI   C1B 1053  13.095  16.942   9.780  0.1921  0.1201  0.3452
   66loPI   C2B 1054  13.131  16.973   9.395  0.1213  0.1895 -0.2052
   66loPI   C3B 1055  13.315  17.235   9.270 -0.0075 -0.1899 -0.0671
   66loPI   C4B 1056  13.136  17.500   8.879 -0.1003 -0.1017 -0.1669
   67loPI    C1 1057  17.026   5.572  11.174  0.1690  0.0180 -0.0781
   67loPI    C2 1058  17.287   5.338  11.365  0.3088  0.2570  0.0280
   67loPI    C3 1059  17.136   5.660  11.548 -0.1585  0.0538  0.0134
   67loPI   PO4 1060  17.095   5.544  10.896 -0.3665 -0.2221 -0.2494
   67loPI   GL1 1061  17.208   5.419  10.536  0.1084 -0.2745  0.1994
   67loPI   GL2 1062  17.116   5.079  10.394 -0.0515  0.0083  0.0824
   67loPI   C1A 1063  17.374   5.635  10.100  0.0040 -0.0779 -0.1490
   67loPI   C2A 1064  17.304   5.609   9.618 -0.2532 -0.1022  0.2598
   67loPI   C3A 1065  17.442   5.593   9.273 -0.1521  0.0078  0.1008
   67loPI   C4A 1066  17.456   5.572   8.918 -0.0616  0.3820  0.1217
   67loPI   C5A 1067  17.316   5.715   8.604  0.2492  0.3872  0.1157
   67loPI   C6A 1068  17.415   5.999   8.421 -0.1021 -0.1525  0.0441
   67loPI   C1B 1069  17.299   5.130  10.011 -0.1596 -0.1637 -0.0523
   67loPI   C2B 1070  17.248   5.095   9.595  0.1729 -0.1973  0.1639
   67loPI   C3B 1071  17.335   4.997   9.179 -0.3307 -0.2392 -0.0107
   67loPI   C4B 1072  17.451   5.090   8.710  0.1837 -0.0423  0.1522
   68loPI    C1 1073   2.168   7.921  11.006  0.0742  0.0067  0.0774
   68loPI    C2 1074   2.377   7.952  11.345  0.0722  0.2044  0.0615
   68loPI    C3 1075   1.981   8.011  11.348  0.0755  0.2287  0.0212
   68loPI   PO4 1076   2.309   7.718  10.856 -0.1293  0.2804 -0.0662
   68loPI   GL1 1077   2.482   7.715  10.449  0.1714  0.0900  0.0967
   68loPI   GL2 1078   2.811   7.812  10.544  0.2746  0.0792 -0.1016
   68loPI   C1A 1079   2.137   7.568  10.083  0.0590 -0.0962 -0.2151
   68loPI   C2A 1080   2.067   7.574   9.723  0.2734  0.1604 -0.0545
   68loPI   C3A 1081   1.975   7.621   9.331  0.0040  0.1228 -0.0130
   68loPI   C4A 1082   1.991   7.678   8.856  0.0775 -0.0925 -0.0398
   68loPI   C5A 1083   1.984   7.812   8.575  0.0285  0.0706  0.3391
   68loPI   C6A 1084   2.051   8.280   8.456 -0.0098 -0.0977  0.1390
   68loPI   C1B 1085   2.931   7.547  10.230  0.0004  0.2090 -0.1816
   68loPI   C2B 1086   2.980   7.579   9.800 -0.1074 -0.5455  0.3572
   68loPI   C3B 1087   3.106   7.580   9.389 -0.2514 -0.2160 -0.1085
   68loPI   C4B 1088   2.982   7.472   8.969  0.1362  0.3239 -0.1122
   69loPI    C1 1089   8.051   8.738  10.994  0.1276 -0.1154  0.0470
   69loPI    C2 1090   8.202   8.650  11.354 -0.1000 -0.1584  0.1336
   69loPI    C3 1091   8.052   8.360  11.124 -0.4405 -0.0626  0.2298
   69loPI   PO4 1092   8.235   8.930  10.911 -0.0096 -0.0666 -0.0100
   69loPI   GL1 1093   8.168   9.316  10.602  0.1230  0.0856  0.1549
   69loPI   GL2 1094   8.211   9.542  10.460 -0.1439  0.1378  0.1866
   69loPI   C1A 1095   8.255   9.163  10.203 -0.1972  0.2277  0.2071
   69loPI   C2A 1096   8.251   9.207   9.767  0.0162 -0.0276  0.2404
   69loPI   C3A 1097   8.201   9.218   9.357  0.1599 -0.0126 -0.1251
   69loPI   C4A 1098   8.249   9.126   8.984  0.2289 -0.1252  0.1505
   69loPI   C5A 1099   8.217   9.298   8.579  0.0854 -0.1672 -0.1127
   69loPI   C6A 1100   8.434   9.258   8.145  0.1289 -0.0563  0.0877
   69loPI   C1B 1101   8.308   9.633  10.040  0.0591 -0.0024  0.0230
   69loPI   C2B 1102   8.304   9.694   9.608  0.1429  0.2008 -0.0052
   69loPI   C3B 1103   8.266   9.705   9.198  0.0040  0.1822 -0.1751
   69loPI   C4B 1104   8.223   9.780   8.793  0.1215 -0.0188  0.0154
   70loPI    C1 1105  15.569   4.942  11.120  0.0209 -0.0554  0.0378
   70loPI    C2 1106  15.518   4.785  11.485  0.0852 -0.0750  0.0383
   70loPI    C3 1107  15.657   5.158  11.445  0.1649 -0.1051  0.0325
   70loPI   PO4 1108  15.413   4.752  10.906  0.0465 -0.0724  0.3232
   70loPI   GL1 1109  15.289   4.826  10.546  0.0085  0.2951 -0.1338
   70loPI   GL2 1110  15.073   4.994  10.430 -0.0445  0.0905 -0.2879
   70loPI   C1A 1111  15.469   4.839  10.148  0.1957 -0.2477 -0.0371
   70loPI   C2A 1112  15.333   4.715   9.737  0.0659  0.2990  0.0409
   70loPI   C3A 1113  15.597   4.615   9.312 -0.0855  0.1571 -0.2890
   70loPI   C4A 1114  15.798   4.593   8.958  0.0141  0.2167 -0.0659
   70loPI   C5A 1115  15.783   4.337   8.591  0.1913 -0.2642 -0.0068
   70loPI   C6A 1116  15.951   4.211   8.358 -0.0384 -0.4762  0.0090
   70loPI   C1B 1117  14.981   5.170  10.057 -0.3598 -0.1098  0.0462
   70loPI   C2B 1118  14.902   5.130   9.591  0.1282  0.2649 -0.2565
   70loPI   C3B 1119  14.910   5.166   9.194 -0.2052  0.2528 -0.0486
   70loPI   C4B 1120  14.815   5.172   8.787 -0.1499 -0.0693 -0.3495
   71loPI    C1 1121  17.334   5.963  11.182  0.0513  0.1271 -0.0443
   71loPI    C2 1122  17.175   6.172  11.484 -0.2500 -0.1467 -0.0079
   71loPI    C3 1123  17.564   6.080  11.487 -0.1416  0.2915  0.0408
   71loPI   PO4 1124  17.187   6.060  10.955  0.0100 -0.0428 -0.1473
   71loPI   GL1 1125  17.046   6.158  10.608  0.0451  0.0412 -0.2209
   71loPI   GL2 1126  16.928   5.863  10.483 -0.1438  0.0644 -0.0251
   71loPI   C1A 1127  17.054   6.460  10.339  0.1107  0.0653  0.0325
   71loPI   C2A 1128  16.959   6.510  10.026  0.2203 -0.2752  0.0055
   71loPI   C3A 1129  17.030   6.378   9.597 -0.2313 -0.2678  0.1912
   71loPI   C4A 1130  17.026   6.350   9.092 -0.1855  0.0678  0.1340
   71loPI   C5A 1131  17.100   6.312   8.687  0.2278 -0.1431 -0.0172
   71loPI   C6A 1132  17.199   6.405   8.277 -0.0076  0.0147 -0.0289
   71loPI   C1B 1133  17.024   6.017  10.147  0.0408  0.0233 -0.1266
   71loPI   C2B 1134  16.922   5.866   9.738  0.0244 -0.0063 -0.0171
   71loPI   C3B 1135  16.923   5.854   9.367 -0.3351  0.0341  0.2434
   71loPI   C4B 1136  17.040   5.834   8.984 -0.0620  0.2469 -0.1360
   72loPI    C1 1137  15.351  15.220  10.992 -0.3588 -0.0121 -0.0890
   72loPI    C2 1138  15.185  15.583  10.966  0.0440  0.1917  0.1125
   72loPI    C3 1139  15.551  15.519  10.818 -0.0251 -0.1347  0.0759
   72loPI   PO4 1140  15.156  15.097  10.844  0.0242  0.1207 -0.0657
   72loPI   GL1 1141  15.106  15.065  10.454 -0.0371 -0.2172  0.0411
   72loPI   GL2 1142  15.160  15.270  10.278  0.0076 -0.0704  0.0576
   72loPI   C1A 1143  14.789  14.818  10.121 -0.0326  0.2360  0.2990
   72loPI   C2A 1144  14.523  15.004   9.792  0.0662 -0.0009 -0.1460
   72loPI   C3A 1145  14.480  15.107   9.366 -0.1505 -0.3132 -0.0791
   72loPI   C4A 1146  14.576  15.373   9.008 -0.3819 -0.2194  0.4265
   72loPI   C5A 1147  14.739  15.509   8.704 -0.2048  0.0873  0.1399
   72loPI   C6A 1148  15.199  15.316   8.661 -0.1491  0.0089  0.2856
   72loPI   C1B 1149  14.931  15.279   9.923 -0.0003  0.2069 -0.0926
   72loPI   C2B 1150  14.913  15.406   9.432  0.0192 -0.0747 -0.0632
   72loPI   C3B 1151  15.093  15.553   9.075  0.1723  0.1358  0.0008
   72loPI   C4B 1152  15.289  15.839   8.729 -0.2564 -0.0137 -0.1568
   73loPI    C1 1153   8.162   7.279  11.012 -0.2194  0.4405  0.1188
   73loPI    C2 1154   8.333   7.108  11.331  0.2538  0.0934 -0.3048
   73loPI    C3 1155   7.963   7.003  11.224  0.1918  0.0188 -0.0260
   73loPI   PO4 1156   8.345   7.348  10.837  0.0024  0.0260  0.0070
   73loPI   GL1 1157   8.421   7.299  10.538  0.4214  0.2818  0.0949
   73loPI   GL2 1158   8.717   7.444  10.570 -0.0108  0.0585 -0.1823
   73loPI   C1A 1159   8.426   7.291  10.078 -0.1319 -0.1921  0.0344
   73loPI   C2A 1160   8.500   7.405   9.684 -0.1441  0.0686  0.0880
   73loPI   C3A 1161   8.436   7.418   9.214  0.0477 -0.1666 -0.0561
   73loPI   C4A 1162   8.471   7.377   8.729  0.1922 -0.1058  0.3144
   73loPI   C5A 1163   8.250   7.194   8.363  0.1517  0.1265  0.1529
   73loPI   C6A 1164   8.284   6.856   8.144  0.1021  0.0331 -0.0127
   73loPI   C1B 1165   8.904   7.481  10.162 -0.0071 -0.0317  0.1571
   73loPI   C2B 1166   8.946   7.619   9.802  0.3245 -0.0803  0.2368
   73loPI   C3B 1167   9.028   7.619   9.340 -0.0444 -0.1286 -0.0179
   73loPI   C4B 1168   8.956   7.589   8.931  0.4156 -0.1065  0.1043
   74loPI    C1 1169   3.479   5.154  10.807  0.0176  0.0984  0.0817
   74loPI    C2 1170   3.364   4.960  11.137  0.1024 -0.1187 -0.0145
   74loPI    C3 1171   3.641   5.247  11.161 -0.0297 -0.0008  0.1298
   74loPI   PO4 1172   3.313   5.104  10.658 -0.0760 -0.2272  0.3627
   74loPI   GL1 1173   3.135   4.862  10.387 -0.1891  0.1037  0.1053
   74loPI   GL2 1174   3.265   5.103  10.146 -0.1370 -0.1362 -0.4682
   74loPI   C1A 1175   2.844   4.951   9.980  0.2897  0.0820 -0.0162
   74loPI   C2A 1176   2.809   4.977   9.483  0.0991  0.0200  0.1721
   74loPI   C3A 1177   2.930   5.006   9.119 -0.0430 -0.0522 -0.1690
   74loPI   C4A 1178   3.026   5.300   8.833 -0.2001 -0.2567  0.1583
   74loPI   C5A 1179   2.874   5.642   8.603 -0.0822 -0.0580  0.1149
   74loPI   C6A 1180   2.561   5.859   8.424 -0.2277  0.0668 -0.3435
   74loPI   C1B 1181   3.240   4.926   9.721 -0.0644 -0.1703  0.3108
   74loPI   C2B 1182   3.343   4.818   9.266  0.1484 -0.0065  0.0271
   74loPI   C3B 1183   3.390   4.935   8.934  0.0000  0.0882  0.0457
   74loPI   C4B 1184   3.471   5.109   8.553 -0.0987  0.0895  0.1697
   75loPI    C1 1185   5.119   3.507  10.789 -0.1438  0.1982 -0.0292
   75loPI    C2 1186   5.428   3.480  10.535  0.0258  0.2146  0.1726
   75loPI    C3 1187   5.458   3.706  10.864 -0.0712 -0.0661  0.3789
   75loPI   PO4 1188   4.968   3.269  10.666  0.0545  0.0272 -0.1719
   75loPI   GL1 1189   5.113   3.100  10.309 -0.0955  0.0124 -0.1213
   75loPI   GL2 1190   4.958   3.480  10.262 -0.1245 -0.2537  0.1082
   75loPI   C1A 1191   5.145   2.997   9.840 -0.0746  0.3394 -0.1988
   75loPI   C2A 1192   5.083   3.180   9.482  0.1452 -0.1952 -0.1907
   75loPI   C3A 1193   4.862   3.294   9.070 -0.0900 -0.0861  0.0206
   75loPI   C4A 1194   4.639   3.368   8.701 -0.2383 -0.2717  0.0339
   75loPI   C5A 1195   4.427   3.382   8.301  0.2950  0.1120 -0.1849
   75loPI   C6A 1196   4.319   3.028   8.063  0.2464  0.2390 -0.0175
   75loPI   C1B 1197   4.894   3.548   9.807 -0.0215  0.1721  0.0269
   75loPI   C2B 1198   5.018   3.660   9.424 -0.1247 -0.0533  0.0445
   75loPI   C3B 1199   4.990   3.881   8.975  0.1079 -0.0228 -0.0389
   75loPI   C4B 1200   5.239   3.745   8.643 -0.0098 -0.1648 -0.5569
   76loPI    C1 1201  10.773   7.767  11.209  0.1352 -0.2456  0.0067
   76loPI    C2 1202  10.646   7.719  10.832  0.1275 -0.1795  0.0007
   76loPI    C3 1203  10.437   7.562  11.135  0.0572 -0.1123 -0.0127
   76loPI   PO4 1204  11.114   7.712  11.092 -0.2880 -0.0092 -0.0375
   76loPI   GL1 1205  11.238   7.693  10.785  0.0631 -0.0286  0.0209
   76loPI   GL2 1206  11.369   8.063  10.575  0.1625 -0.2380  0.1381
   76loPI   C1A 1207  11.341   7.622  10.407  0.3602  0.0839  0.5790
   76loPI   C2A 1208  11.245   7.590   9.992 -0.3506 -0.0714 -0.2428
   76loPI   C3A 1209  11.306   7.553   9.579 -0.0002 -0.0333  0.2400
   76loPI   C4A 1210  11.219   7.534   9.119 -0.1741 -0.1591  0.1575
   76loPI   C5A 1211  11.228   7.477   8.617  0.1955 -0.1521  0.0908
   76loPI   C6A 1212  11.578   7.557   8.293  0.2786  0.1645  0.0225
   76loPI   C1B 1213  11.435   8.046  10.200  0.0718  0.0273  0.2298
   76loPI   C2B 1214  11.313   8.037   9.800  0.0055 -0.3215  0.3340
   76loPI   C3B 1215  11.276   8.012   9.353 -0.0651  0.2565 -0.0822
   76loPI   C4B 1216  11.113   7.968   8.928 -0.0464 -0.0178 -0.1012
   77loPI    C1 1217   4.061  13.991  10.833  0.0232 -0.0065  0.0883
   77loPI    C2 1218   4.224  13.881  11.182  0.1786  0.1043  0.0512
   77loPI    C3 1219   3.940  14.163  11.174 -0.1679 -0.2347  0.1384
   77loPI   PO4 1220   4.090  13.715  10.727  0.1145  0.1127  0.1928
   77loPI   GL1 1221   3.986  13.678  10.277  0.1545  0.1579 -0.0426
   77loPI   GL2 1222   3.974  13.979  10.027  0.1123  0.3092 -0.1380
   77loPI   C1A 1223   4.014  13.422   9.936 -0.0538 -0.4272 -0.1877
   77loPI   C2A 1224   3.946  13.202   9.626 -0.0050  0.2958  0.2057
   77loPI   C3A 1225   4.010  13.178   9.294  0.0889  0.1911  0.2316
   77loPI   C4A 1226   3.887  13.106   8.818 -0.2362 -0.0868  0.2555
   77loPI   C5A 1227   3.962  13.101   8.391 -0.2296  0.2731 -0.0653
   77loPI   C6A 1228   4.116  12.950   7.879  0.0970 -0.0814  0.1274
   77loPI   C1B 1229   4.168  13.832   9.722  0.1184  0.4103  0.1648
   77loPI   C2B 1230   4.034  13.722   9.465 -0.0744  0.0437  0.0603
   77loPI   C3B 1231   4.075  13.691   9.037 -0.1378  0.2039 -0.1446
   77loPI   C4B 1232   3.918  13.636   8.600  0.1103  0.0288  0.1683
   78loPI    C1 1233  16.365   2.731  10.809 -0.2130 -0.1429  0.0905
   78loPI    C2 1234  16.706   2.566  10.937 -0.0423 -0.0139 -0.1901
   78loPI    C3 1235  16.361   2.474  11.116  0.1212 -0.2462  0.0129
   78loPI   PO4 1236  16.470   2.780  10.574 -0.3093 -0.1453 -0.1096
   78loPI   GL1 1237  16.441   2.730  10.176  0.1776 -0.2400  0.0585
   78loPI   GL2 1238  16.340   2.509  10.172 -0.0644 -0.2253 -0.1134
   78loPI   C1A 1239  16.405   2.917   9.786  0.2051 -0.0298  0.2168
   78loPI   C2A 1240  16.491   2.892   9.381  0.1089 -0.2440  0.2488
   78loPI   C3A 1241  16.531   2.800   9.004  0.1291 -0.4816 -0.1319
   78loPI   C4A 1242  16.437   2.819   8.532 -0.3090  0.0194 -0.2260
   78loPI   C5A 1243  16.192   2.778   8.125 -0.4067 -0.2158 -0.0762
   78loPI   C6A 1244  16.021   2.843   7.800  0.2806  0.0936  0.1738
   78loPI   C1B 1245  16.357   2.367   9.703  0.2573 -0.1351 -0.0056
   78loPI   C2B 1246  16.408   2.379   9.206  0.1245  0.0592  0.1217
   78loPI   C3B 1247  16.433   2.284   8.736  0.1956 -0.4868 -0.1934
   78loPI   C4B 1248  16.284   2.370   8.386  0.0279 -0.1909 -0.2363
   79loPI    C1 1249   0.161  12.939  10.591  0.1138 -0.0919 -0.0031
   79loPI    C2 1250   0.548  12.906  10.496  0.1850  0.3684  0.1013
   79loPI    C3 1251   0.440  12.963  10.876 -0.0000  0.0784  0.0955
   79loPI   PO4 1252   0.055  13.111  10.484  0.0468  0.1588  0.0547
   79loPI   GL1 1253   0.282  13.355  10.313 -0.2289  0.5457 -0.0487
   79loPI   GL2 1254   0.488  13.628  10.266 -0.2398 -0.1704  0.6266
   79loPI   C1A 1255   0.226  13.253   9.814 -0.3342  0.0221  0.3368
   79loPI   C2A 1256   0.027  13.320   9.422 -0.3921  0.0183 -0.1594
   79loPI   C3A 1257  -0.121  13.313   8.990 -0.0401 -0.0149 -0.1196
   79loPI   C4A 1258  -0.117  13.233   8.483  0.1357  0.0959  0.0925
   79loPI   C5A 1259  -0.178  12.844   8.216  0.1512  0.1923  0.2034
   79loPI   C6A 1260  -0.435  12.719   7.794  0.0155 -0.2579  0.2244
   79loPI   C1B 1261   0.602  13.605   9.763  0.2760 -0.3465 -0.0952
   79loPI   C2B 1262   0.501  13.379   9.314 -0.2546  0.2291 -0.0829
   79loPI   C3B 1263   0.339  13.451   8.896  0.1360  0.2413 -0.0619
   79loPI   C4B 1264   0.258  13.565   8.519 -0.4361 -0.1065  0.0135
   80loPI    C1 1265  13.891  10.275  11.243  0.0765  0.3756 -0.0742
   80loPI    C2 1266  14.135  10.347  11.551  0.0716 -0.0211  0.0280
   80loPI    C3 1267  13.741  10.322  11.611  0.0554  0.0640 -0.0405
   80loPI   PO4 1268  13.985  10.089  11.085  0.2202 -0.2940 -0.2303
   80loPI   GL1 1269  14.212  10.142  10.770 -0.0859  0.2316  0.0374
   80loPI   GL2 1270  13.990  10.345  10.653  0.0864  0.1207  0.0952
   80loPI   C1A 1271  14.301   9.873  10.336 -0.1116  0.5106  0.2073
   80loPI   C2A 1272  14.309   9.779   9.797  0.1502 -0.4972  0.0959
   80loPI   C3A 1273  14.320   9.702   9.370  0.3400  0.2061  0.5092
   80loPI   C4A 1274  14.308   9.607   8.989 -0.2295 -0.3733 -0.0905
   80loPI   C5A 1275  14.298   9.478   8.600 -0.2896 -0.0244  0.1869
   80loPI   C6A 1276  14.159   9.459   8.212 -0.1283 -0.1305 -0.0522
   80loPI   C1B 1277  13.896  10.180  10.244  0.3486  0.0452 -0.0418
   80loPI   C2B 1278  13.853  10.081   9.797 -0.3097  0.1159 -0.0375
   80loPI   C3B 1279  13.891   9.975   9.318  0.3493  0.0694 -0.2826
   80loPI   C4B 1280  13.956   9.940   8.892 -0.0030 -0.1262  0.1892
   81loPI    C1 1281   9.035  14.029  10.982  0.2505 -0.2755  0.1199
   81loPI    C2 1282   8.869  14.011  11.345 -0.1285  0.0641 -0.0282
   81loPI    C3 1283   9.197  14.232  11.286  0.0397 -0.1357  0.1410
   81loPI   PO4 1284   8.845  14.033  10.751  0.1526 -0.0978  0.1321
   81loPI   GL1 1285   8.743  14.262  10.440  0.0912 -0.1152  0.1242
   81loPI   GL2 1286   8.847  14.491  10.552 -0.0780  0.0271  0.3548
   81loPI   C1A 1287   8.837  14.019   9.980 -0.0774 -0.3442  0.1184
   81loPI   C2A 1288   8.943  13.779   9.682  0.0277 -0.2333  0.2558
   81loPI   C3A 1289   8.849  13.622   9.345 -0.0475 -0.0330  0.1492
   81loPI   C4A 1290   8.731  13.694   8.958 -0.4587  0.0775  0.2406
   81loPI   C5A 1291   8.411  13.532   8.743 -0.2580 -0.1251 -0.2609
   81loPI   C6A 1292   8.112  13.758   8.581 -0.0727 -0.1810 -0.1210
   81loPI   C1B 1293   8.957  14.517  10.081  0.2155 -0.0788  0.1468
   81loPI   C2B 1294   9.057  14.452   9.630 -0.0601  0.3305 -0.2006
   81loPI   C3B 1295   9.013  14.314   9.243  0.0030  0.2561 -0.0637
   81loPI   C4B 1296   8.992  14.298   8.795  0.2603 -0.2058  0.1157
   82loPI    C1 1297   5.330   8.034  10.912  0.2834  0.1550  0.0009
   82loPI    C2 1298   5.306   7.712  11.148  0.1275  0.0207 -0.1943
   82loPI    C3 1299   5.339   8.076  11.310 -0.0723 -0.0609  0.0361
   82loPI   PO4 1300   5.523   7.901  10.743 -0.0613 -0.0859 -0.0144
   82loPI   GL1 1301   5.671   7.546  10.441 -0.1140  0.0667  0.0546
   82loPI   GL2 1302   5.795   7.247  10.531 -0.0802  0.0700 -0.1496
   82loPI   C1A 1303   5.788   7.510  10.037 -0.2285  0.0910 -0.2074
   82loPI   C2A 1304   5.752   7.623   9.565 -0.2394  0.1429  0.4036
   82loPI   C3A 1305   5.800   7.709   9.126 -0.0186  0.2902 -0.1210
   82loPI   C4A 1306   5.882   7.669   8.656 -0.0382 -0.0794 -0.0437
   82loPI   C5A 1307   6.102   7.879   8.205 -0.1328 -0.1849 -0.3765
   82loPI   C6A 1308   6.430   8.002   7.936 -0.0890 -0.0705 -0.1101
   82loPI   C1B 1309   5.724   6.979  10.107  0.1354  0.4772  0.0605
   82loPI   C2B 1310   5.737   7.108   9.734  0.0154 -0.1316  0.3422
   82loPI   C3B 1311   5.765   7.170   9.284 -0.1239  0.0273 -0.1629
   82loPI   C4B 1312   5.724   7.257   8.942 -0.0315 -0.1802 -0.1910
   83loPI    C1 1313  13.565   9.931  11.387  0.0372  0.0762 -0.0716
   83loPI    C2 1314  13.359  10.267  11.316 -0.1026 -0.0160 -0.1063
   83loPI    C3 1315  13.290  10.057  11.650 -0.1922 -0.1415 -0.2026
   83loPI   PO4 1316  13.539   9.869  11.133 -0.0871 -0.2708  0.1477
   83loPI   GL1 1317  13.692   9.924  10.741  0.0062 -0.0669 -0.1939
   83loPI   GL2 1318  13.861   9.650  10.593 -0.4538  0.1391  0.0279
   83loPI   C1A 1319  13.461   9.884  10.355 -0.1424  0.0683  0.0159
   83loPI   C2A 1320  13.411   9.834   9.858 -0.0065 -0.0548  0.1304
   83loPI   C3A 1321  13.404   9.755   9.392  0.0129 -0.0900  0.2993
   83loPI   C4A 1322  13.359   9.755   8.912  0.2147  0.0179 -0.2112
   83loPI   C5A 1323  13.532   9.740   8.524 -0.3645  0.0419 -0.0928
   83loPI   C6A 1324  13.811   9.854   8.384 -0.0675 -0.3052  0.0982
   83loPI   C1B 1325  13.773   9.579  10.106 -0.0245  0.2716 -0.5667
   83loPI   C2B 1326  13.811   9.564   9.662  0.1433 -0.1245  0.0821
   83loPI   C3B 1327  13.824   9.494   9.289  0.0461 -0.2258 -0.1728
   83loPI   C4B 1328  13.849   9.455   8.823  0.1500 -0.0792 -0.1250
   84loPI    C1 1329  11.723   7.157  11.482 -0.0728 -0.3245 -0.1120
   84loPI    C2 1330  11.535   7.330  11.790  0.2203 -0.0342 -0.0898
   84loPI    C3 1331  11.325   7.193  11.479 -0.0507 -0.0225  0.0846
   84loPI   PO4 1332  11.987   7.296  11.361 -0.2055  0.1727 -0.2964
   84loPI   GL1 1333  12.088   7.422  11.004 -0.3523  0.1299 -0.2254
   84loPI   GL2 1334  11.926   7.122  10.858 -0.1613  0.0708  0.0305
   84loPI   C1A 1335  12.220   7.414  10.627  0.1903  0.1220 -0.0449
   84loPI   C2A 1336  12.274   7.438  10.170  0.0041  0.0631  0.0367
   84loPI   C3A 1337  12.113   7.408   9.722  0.1305 -0.2334 -0.1127
   84loPI   C4A 1338  12.162   7.442   9.322  0.0187 -0.0395 -0.2207
   84loPI   C5A 1339  12.012   7.428   8.949 -0.1444  0.1163  0.3000
   84loPI   C6A 1340  11.625   7.247   8.753 -0.1333  0.1648 -0.1057
   84loPI   C1B 1341  11.766   7.231  10.517  0.0786  0.0157 -0.1156
   84loPI   C2B 1342  11.730   7.246  10.061 -0.2081  0.1947 -0.1321
   84loPI   C3B 1343  11.667   7.234   9.659  0.4136  0.1077  0.4963
   84loPI   C4B 1344  11.597   7.182   9.240 -0.1560  0.1308 -0.2908
   85loPI    C1 1345   9.014   2.267  10.641 -0.2146 -0.0236  0.0369
   85loPI    C2 1346   8.844   2.423  10.968 -0.2631  0.0234 -0.0107
   85loPI    C3 1347   9.023   2.066  10.987 -0.0127  0.1542  0.1367
   85loPI   PO4 1348   8.848   2.333  10.428 -0.0791  0.2491  0.1061
   85loPI   GL1 1349   8.836   2.502  10.030  0.1771  0.1242  0.3554
   85loPI   GL2 1350   8.876   2.158   9.934  0.0973 -0.1260 -0.0484
   85loPI   C1A 1351   8.918   2.655   9.567 -0.2130 -0.2131 -0.2218
   85loPI   C2A 1352   8.791   2.896   9.301  0.1723  0.0180  0.0868
   85loPI   C3A 1353   8.679   3.198   9.009 -0.1621  0.1829 -0.1113
   85loPI   C4A 1354   8.758   3.467   8.694  0.1605  0.0343  0.3780
   85loPI   C5A 1355   8.622   3.678   8.431  0.2077 -0.1528  0.1438
   85loPI   C6A 1356   8.580   3.771   7.985  0.1218  0.0070  0.0635
   85loPI   C1B 1357   8.823   2.175   9.453 -0.1933 -0.0434  0.2146
   85loPI   C2B 1358   9.009   2.386   9.123 -0.1214  0.1231  0.0824
   85loPI   C3B 1359   9.237   2.468   8.765 -0.0389 -0.0731 -0.1160
   85loPI   C4B 1360   9.418   2.733   8.559 -0.0250 -0.3648 -0.0641
   86loPI    C1 1361   9.994  10.535  10.988 -0.0384  0.1974 -0.0864
   86loPI    C2 1362   9.927  10.415  11.363 -0.1924  0.3005 -0.0801
   86loPI    C3 1363  10.251  10.634  11.278 -0.0175  0.0556 -0.0555
   86loPI   PO4 1364   9.938  10.269  10.812  0.4452 -0.0893  0.0831
   86loPI   GL1 1365   9.921  10.140  10.474  0.0263 -0.1065 -0.0250
   86loPI   GL2 1366   9.864  10.413  10.303  0.1020  0.0878 -0.2909
   86loPI   C1A 1367  10.137  10.032  10.104  0.1178  0.1104  0.2603
   86loPI   C2A 1368  10.174  10.026   9.689  0.3620  0.0064  0.2984
   86loPI   C3A 1369  10.122  10.033   9.354  0.0589 -0.0627  0.1294
   86loPI   C4A 1370  10.175  10.093   8.929 -0.4137  0.0354  0.2211
   86loPI   C5A 1371  10.371  10.009   8.570 -0.0915  0.1888  0.2364
   86loPI   C6A 1372  10.141   9.964   8.175 -0.1333  0.2748  0.0867
   86loPI   C1B 1373   9.743  10.320   9.883 -0.0875  0.1807 -0.3234
   86loPI   C2B 1374   9.713  10.301   9.452 -0.3067 -0.4556  0.0188
   86loPI   C3B 1375   9.760  10.347   9.044  0.1974  0.0507 -0.0969
   86loPI   C4B 1376   9.633  10.250   8.629 -0.0342  0.1664 -0.1439
   87loPI    C1 1377   0.910   6.471  11.245 -0.1777 -0.2003 -0.1498
   87loPI    C2 1378   0.867   6.838  11.399  0.1256 -0.1636 -0.1472
   87loPI    C3 1379   0.950   6.528  11.639  0.1541 -0.1836 -0.1827
   87loPI   PO4 1380   0.817   6.417  10.977  0.1884 -0.0906  0.0717
   87loPI   GL1 1381   0.801   6.369  10.490  0.0317 -0.4263 -0.1494
   87loPI   GL2 1382   0.570   6.623  10.508  0.2850 -0.1264 -0.3732
   87loPI   C1A 1383   0.995   6.676  10.259 -0.1258  0.2334  0.1137
   87loPI   C2A 1384   1.100   6.794   9.909  0.4013 -0.0327  0.0116
   87loPI   C3A 1385   0.948   6.728   9.558  0.0400 -0.1141  0.1341
   87loPI   C4A 1386   1.008   6.707   9.080 -0.1786  0.3014  0.0025
   87loPI   C5A 1387   0.903   6.712   8.625  0.1347  0.0121  0.1385
   87loPI   C6A 1388   1.056   6.861   8.233  0.1914  0.2280  0.1345
   87loPI   C1B 1389   0.532   6.505  10.117 -0.2294  0.0830 -0.0953
   87loPI   C2B 1390   0.460   6.519   9.682 -0.3159 -0.1304 -0.2764
   87loPI   C3B 1391   0.509   6.518   9.314  0.0113 -0.0669 -0.2347
   87loPI   C4B 1392   0.551   6.476   8.903 -0.2763 -0.0113  0.0490
   88loPI    C1 1393   5.086  17.419  10.548  0.2443 -0.1044 -0.1496
   88loPI    C2 1394   4.945  17.209  10.858  0.2874 -0.1991 -0.1936
   88loPI    C3 1395   5.261  17.450  10.907 -0.0251  0.1922 -0.0386
   88loPI   PO4 1396   5.088  17.275  10.274 -0.0673 -0.1074 -0.0675
   88loPI   GL1 1397   4.939  17.434   9.991 -0.2367 -0.0685  0.1419
   88loPI   GL2 1398   4.962  17.711   9.851 -0.0031  0.0691 -0.0281
   88loPI   C1A 1399   4.851  17.147   9.610  0.1862 -0.1338  0.2514
   88loPI   C2A 1400   4.754  17.011   9.173 -0.1600 -0.2350 -0.3377
   88loPI   C3A 1401   4.650  16.923   8.863 -0.2967 -0.1770 -0.3343
   88loPI   C4A 1402   4.514  16.585   8.629 -0.2941 -0.2497  0.3728
   88loPI   C5A 1403   4.402  16.235   8.497 -0.3097  0.0328  0.1274
   88loPI   C6A 1404   4.091  16.039   8.368  0.0239  0.1136 -0.1868
   88loPI   C1B 1405   5.158  17.934   9.510  0.1804 -0.3574  0.3322
   88loPI   C2B 1406   5.072  18.052   9.034  0.1408  0.3108 -0.0922
   88loPI   C3B 1407   4.989  18.020   8.643  0.2057 -0.0449 -0.0096
   88loPI   C4B 1408   4.863  18.214   8.277 -0.0796  0.0261 -0.2760
   89loPI    C1 1409  10.539   8.154  11.443 -0.1876  0.0819 -0.0858
   89loPI    C2 1410  10.400   7.821  11.616  0.1234  0.0546  0.1194
   89loPI    C3 1411  10.718   8.008  11.769 -0.0051  0.4091 -0.0359
   89loPI   PO4 1412  10.319   8.064  11.190  0.0124 -0.0442 -0.0288
   89loPI   GL1 1413  10.041   8.047  10.822  0.0365 -0.1941  0.0290
   89loPI   GL2 1414  10.112   7.837  10.675 -0.1667  0.3065 -0.3922
   89loPI   C1A 1415   9.904   8.009  10.298  0.0251 -0.1610 -0.1031
   89loPI   C2A 1416   9.953   7.910   9.829  0.1088  0.0519 -0.1035
   89loPI   C3A 1417   9.912   7.974   9.407  0.2996  0.0419 -0.5954
   89loPI   C4A 1418   9.913   7.928   8.969  0.1291 -0.2784 -0.2731
   89loPI   C5A 1419   9.756   8.028   8.557  0.0102  0.2911  0.0410
   89loPI   C6A 1420   9.805   7.928   8.125  0.0030  0.1161 -0.1889
   89loPI   C1B 1421  10.414   7.811  10.383  0.1112 -0.1692 -0.0179
   89loPI   C2B 1422  10.408   7.674   9.989 -0.1557  0.0785 -0.3327
   89loPI   C3B 1423  10.326   7.687   9.525  0.1196  0.1457  0.0560
   89loPI   C4B 1424  10.293   7.636   9.143 -0.3995  0.0794 -0.1825
   90loPI    C1 1425   7.980   0.313  10.849 -0.1595  0.0749 -0.0560
   90loPI    C2 1426   7.803   0.288  11.207 -0.1463  0.1926 -0.0412
   90loPI    C3 1427   7.997   0.622  11.101 -0.1159  0.1434 -0.1424
   90loPI   PO4 1428   7.855   0.332  10.668 -0.1824 -0.0273 -0.0326
   90loPI   GL1 1429   7.775   0.344  10.336  0.1512 -0.2710  0.0942
   90loPI   GL2 1430   7.568   0.622  10.382  0.0341  0.3891 -0.2574
   90loPI   C1A 1431   7.639   0.329   9.854  0.1969  0.1274  0.2144
   90loPI   C2A 1432   7.787   0.357   9.439  0.1404 -0.3729 -0.1450
   90loPI   C3A 1433   7.889   0.333   9.009  0.1597 -0.1556 -0.0956
   90loPI   C4A 1434   8.148   0.559   8.778 -0.3093  0.1116  0.0830
   90loPI   C5A 1435   8.240   0.569   8.441  0.1831 -0.0212  0.1545
   90loPI   C6A 1436   8.050   0.916   8.159  0.1768 -0.0014 -0.0939
   90loPI   C1B 1437   7.880   0.723   9.982  0.0250 -0.0280  0.1797
   90loPI   C2B 1438   7.950   0.852   9.697  0.1482 -0.0937  0.2107
   90loPI   C3B 1439   7.900   0.807   9.194 -0.0935  0.0122 -0.1820
   90loPI   C4B 1440   7.851   1.087   8.948  0.1114 -0.2637  0.2411
   91loPI    C1 1441  17.777   6.506  11.370  0.2474 -0.2113  0.0051
   91loPI    C2 1442  17.553   6.563  11.696  0.2598 -0.1745  0.0073
   91loPI    C3 1443  17.915   6.732  11.670  0.0918  0.1645 -0.1997
   91loPI   PO4 1444  17.591   6.542  11.174 -0.1762 -0.0569 -0.0016
   91loPI   GL1 1445  17.638   6.657  10.773  0.0353  0.1121  0.2401
   91loPI   GL2 1446  17.499   6.293  10.670 -0.3544 -0.1226  0.0633
   91loPI   C1A 1447  17.514   6.667  10.355 -0.1001 -0.3235  0.1922
   91loPI   C2A 1448  17.454   6.600   9.943  0.2052 -0.0162  0.0762
   91loPI   C3A 1449  17.497   6.609   9.483  0.0444  0.1595 -0.3489
   91loPI   C4A 1450  17.467   6.577   9.021  0.1047  0.0157  0.2631
   91loPI   C5A 1451  17.567   6.485   8.606 -0.0707 -0.0281  0.1452
   91loPI   C6A 1452  17.731   6.549   8.106  0.0640 -0.0553 -0.0470
   91loPI   C1B 1453  17.464   6.165  10.234  0.1104  0.1420  0.1506
   91loPI   C2B 1454  17.411   6.092   9.804  0.2165  0.2751  0.2108
   91loPI   C3B 1455  17.381   6.135   9.312 -0.1266  0.0890  0.0843
   91loPI   C4B 1456  17.478   6.077   8.893 -0.1418  0.1876  0.2127
   92loPI    C1 1457   9.180   4.848  11.264 -0.0506 -0.0651 -0.2084
   92loPI    C2 1458   8.867   4.629  11.383  0.0201 -0.0912 -0.0670
   92loPI    C3 1459   9.153   4.727  11.645  0.0761  0.0242 -0.1702
   92loPI   PO4 1460   9.296   4.723  11.082  0.4659 -0.0963  0.1583
   92loPI   GL1 1461   9.249   4.814  10.665 -0.0771 -0.0097 -0.3023
   92loPI   GL2 1462   8.963   4.891  10.514 -0.0438  0.1376 -0.0018
   92loPI   C1A 1463   9.249   4.531  10.340 -0.1247  0.2110 -0.0721
   92loPI   C2A 1464   8.964   4.479  10.203  0.1980  0.0624  0.1182
   92loPI   C3A 1465   8.876   4.579   9.850 -0.0804  0.1332  0.0331
   92loPI   C4A 1466   8.980   4.674   9.400  0.0217 -0.0009  0.0759
   92loPI   C5A 1467   8.899   4.822   8.948 -0.0183 -0.3329 -0.0865
   92loPI   C6A 1468   9.215   5.021   8.680  0.0567 -0.2624 -0.0205
   92loPI   C1B 1469   9.039   5.130  10.238  0.1267  0.0691  0.1845
   92loPI   C2B 1470   9.008   5.119   9.743  0.1341 -0.1111  0.0671
   92loPI   C3B 1471   9.003   5.333   9.404 -0.1989 -0.1194  0.3133
   92loPI   C4B 1472   9.070   5.304   9.036 -0.2166 -0.1553  0.1582
   93loPI    C1 1473  10.481   9.048  11.431 -0.0672  0.1591  0.0025
   93loPI    C2 1474  10.412   8.675  11.556 -0.0592  0.0887 -0.1999
   93loPI    C3 1475  10.494   8.963  11.822 -0.0305 -0.0603 -0.0456
   93loPI   PO4 1476  10.528   9.043  11.202  0.0811 -0.0480 -0.0191
   93loPI   GL1 1477  10.741   9.246  10.937  0.1067 -0.0561  0.1821
   93loPI   GL2 1478  10.497   9.379  10.810  0.4914  0.0260  0.1609
   93loPI   C1A 1479  10.811   9.113  10.470 -0.1153 -0.1429 -0.2667
   93loPI   C2A 1480  10.941   8.960  10.060  0.2328 -0.1637  0.1677
   93loPI   C3A 1481  10.891   8.936   9.559 -0.1889 -0.0702  0.1163
   93loPI   C4A 1482  10.944   8.990   9.189  0.0091  0.0463 -0.0810
   93loPI   C5A 1483  10.992   8.940   8.772 -0.0662 -0.1756  0.0122
   93loPI   C6A 1484  11.288   9.066   8.465 -0.1291 -0.1876 -0.1295
   93loPI   C1B 1485  10.384   9.288  10.302 -0.0088 -0.2910 -0.2993
   93loPI   C2B 1486  10.552   9.265   9.865 -0.0128 -0.2186  0.0524
   93loPI   C3B 1487  10.530   9.262   9.404  0.1678  0.3697  0.0126
   93loPI   C4B 1488  10.402   9.237   9.015  0.3053  0.0574 -0.0090
   94loPI    C1 1489  15.505   4.123  10.877  0.0336  0.2020 -0.1129
   94loPI    C2 1490  15.431   4.356  11.193  0.1060 -0.1142  0.1433
   94loPI    C3 1491  15.312   3.974  11.194  0.1950 -0.1457 -0.1723
   94loPI   PO4 1492  15.429   4.260  10.648 -0.2389 -0.2907  0.0120
   94loPI   GL1 1493  15.283   4.364  10.310  0.1124 -0.5619 -0.0412
   94loPI   GL2 1494  14.935   4.154  10.277  0.0019 -0.3396  0.2552
   94loPI   C1A 1495  15.293   4.256   9.929  0.0962  0.1283  0.0455
   94loPI   C2A 1496  15.253   4.305   9.478  0.0599 -0.1044 -0.0832
   94loPI   C3A 1497  15.366   4.308   9.007  0.2214  0.2021  0.0785
   94loPI   C4A 1498  15.241   4.350   8.595 -0.1092 -0.0441  0.1347
   94loPI   C5A 1499  15.230   4.778   8.406 -0.0350  0.0895  0.0622
   94loPI   C6A 1500  15.212   5.079   8.568  0.1268 -0.2893  0.0944
   94loPI   C1B 1501  14.786   4.134   9.823 -0.2017 -0.2727 -0.1854
   94loPI   C2B 1502  14.809   4.115   9.496  0.0202  0.4505 -0.0355
   94loPI   C3B 1503  14.856   4.142   8.987 -0.0343 -0.0878  0.0273
   94loPI   C4B 1504  14.702   4.038   8.574  0.1850  0.1740  0.0163
   95loPI    C1 1505  15.751   9.802  11.412 -0.1341 -0.1326  0.0509
   95loPI    C2 1506  15.958   9.460  11.385  0.1912  0.0715 -0.1070
   95loPI    C3 1507  15.942   9.658  11.733 -0.1205 -0.1743  0.0241
   95loPI   PO4 1508  15.700   9.914  11.172 -0.0440  0.0818  0.0765
   95loPI   GL1 1509  15.725  10.124  10.718  0.1872 -0.0281  0.1068
   95loPI   GL2 1510  15.805   9.903  10.518 -0.1367 -0.0829 -0.1267
   95loPI   C1A 1511  15.619  10.295  10.260  0.0846  0.2036 -0.2757
   95loPI   C2A 1512  15.596  10.358   9.871  0.0560  0.2000 -0.2795
   95loPI   C3A 1513  15.690  10.478   9.458 -0.0128 -0.1032 -0.1666
   95loPI   C4A 1514  15.579  10.396   9.118  0.3069 -0.0548  0.2525
   95loPI   C5A 1515  15.389  10.266   8.691 -0.1722 -0.2993  0.5653
   95loPI   C6A 1516  15.351  10.650   8.368 -0.0303  0.0399 -0.1408
   95loPI   C1B 1517  15.876   9.801  10.015  0.0318 -0.1196  0.2297
   95loPI   C2B 1518  15.751   9.872   9.591 -0.0784 -0.0491  0.0948
   95loPI   C3B 1519  15.843   9.972   9.228  0.1469 -0.0413  0.2228
   95loPI   C4B 1520  15.866  10.164   8.708 -0.0682  0.1043 -0.0424
   96loPI    C1 1521  10.929  14.971  10.636  0.4064 -0.2667 -0.0912
   96loPI    C2 1522  11.193  15.172  10.859 -0.1534  0.2988  0.0922
   96loPI    C3 1523  10.895  14.973  11.035  0.1808 -0.4123 -0.1078
   96loPI   PO4 1524  11.108  14.948  10.423 -0.0195 -0.2429  0.0709
   96loPI   GL1 1525  11.109  15.052  10.078  0.1794 -0.1130 -0.1438
   96loPI   GL2 1526  11.078  15.256   9.989  0.0631 -0.1873 -0.2866
   96loPI   C1A 1527  10.716  14.914   9.862  0.3682 -0.0047  0.0282
   96loPI   C2A 1528  10.699  14.620   9.503 -0.1891 -0.1214 -0.3264
   96loPI   C3A 1529  10.569  14.381   9.165 -0.0071  0.4665  0.3244
   96loPI   C4A 1530  10.573  14.127   8.768  0.0794  0.0205 -0.1127
   96loPI   C5A 1531  10.630  13.811   8.425  0.2241  0.1190  0.1619
   96loPI   C6A 1532  10.771  13.357   8.278  0.0879 -0.1103  0.1494
   96loPI   C1B 1533  10.820  15.387   9.684  0.0096 -0.1297  0.1743
   96loPI   C2B 1534  10.719  15.617   9.225  0.2092  0.0553 -0.3428
   96loPI   C3B 1535  10.704  15.979   9.000  0.2029  0.0277 -0.2640
   96loPI   C4B 1536  10.797  16.152   8.625 -0.2070  0.0330 -0.2476
   97loPI    C1 1537  14.068   7.269  11.200  0.0476 -0.0015 -0.0584
   97loPI    C2 1538  13.689   7.152  11.252  0.1120 -0.1427  0.1001
   97loPI    C3 1539  13.914   7.249  11.568  0.2418 -0.1658  0.0155
   97loPI   PO4 1540  14.063   7.431  11.008 -0.3174  0.0018  0.0561
   97loPI   GL1 1541  13.965   7.743  10.612  0.1260 -0.1312  0.1973
   97loPI   GL2 1542  13.745   7.526  10.511  0.1079 -0.0732  0.1770
   97loPI   C1A 1543  14.081   7.729  10.245 -0.2360  0.2994  0.1563
   97loPI   C2A 1544  13.980   7.664   9.823  0.2462 -0.0350 -0.1321
   97loPI   C3A 1545  13.953   7.610   9.381 -0.3075 -0.0699  0.0520
   97loPI   C4A 1546  13.934   7.572   8.966  0.1623 -0.1433  0.3442
   97loPI   C5A 1547  13.891   7.360   8.620 -0.2733  0.1109  0.0271
   97loPI   C6A 1548  13.792   7.115   8.505  0.0280  0.1446  0.2002
   97loPI   C1B 1549  13.608   7.445  10.140  0.2499  0.1967 -0.0152
   97loPI   C2B 1550  13.583   7.334   9.741  0.0956  0.0125 -0.0027
   97loPI   C3B 1551  13.493   7.428   9.365 -0.1260 -0.1305  0.0522
   97loPI   C4B 1552  13.470   7.437   9.044 -0.3468  0.0005 -0.0361
   98loPI    C1 1553  12.914  17.710  10.997  0.1077  0.1936 -0.0146
   98loPI    C2 1554  12.761  17.950  11.279 -0.2375 -0.0825  0.0408
   98loPI    C3 1555  12.787  17.557  11.344  0.3968 -0.0611 -0.0175
   98loPI   PO4 1556  12.822  17.758  10.756  0.0959 -0.1674  0.0356
   98loPI   GL1 1557  12.638  17.850  10.436 -0.2394 -0.2274  0.1358
   98loPI   GL2 1558  12.786  18.186  10.364  0.0588  0.3193  0.1303
   98loPI   C1A 1559  12.410  17.576  10.212 -0.0168 -0.0972  0.2298
   98loPI   C2A 1560  12.415  17.176   9.994  0.3298  0.0674 -0.0481
   98loPI   C3A 1561  12.568  16.953   9.671 -0.1744 -0.1214  0.0699
   98loPI   C4A 1562  12.637  16.862   9.239  0.1444  0.0990  0.0532
   98loPI   C5A 1563  12.825  17.137   9.003 -0.1839  0.1359  0.0616
   98loPI   C6A 1564  12.733  17.328   8.642  0.1674 -0.3581  0.1073
   98loPI   C1B 1565  12.894  18.398   9.928  0.0720 -0.0788  0.1166
   98loPI   C2B 1566  12.866  18.410   9.593  0.0442 -0.0520  0.0567
   98loPI   C3B 1567  12.774  18.499   9.176 -0.1108  0.0420  0.1241
   98loPI   C4B 1568  12.645  18.550   8.674 -0.0253 -0.2909  0.0016
   99loPI    C1 1569  10.714  12.712  10.946  0.1613 -0.2695 -0.2398
   99loPI    C2 1570  10.911  12.962  11.188 -0.1589 -0.0749 -0.1745
   99loPI    C3 1571  11.003  12.573  11.185 -0.1098 -0.0700  0.2159
   99loPI   PO4 1572  10.748  12.807  10.699 -0.0016 -0.0949 -0.0747
   99loPI   GL1 1573  10.660  12.584  10.364 -0.2058 -0.0656 -0.1647
   99loPI   GL2 1574  10.685  12.318  10.256 -0.1505 -0.2480  0.0525
   99loPI   C1A 1575  10.454  12.617   9.846  0.0360 -0.1413  0.1902
   99loPI   C2A 1576  10.482  12.422   9.375 -0.1632 -0.2620 -0.1113
   99loPI   C3A 1577  10.552  12.066   9.101 -0.2765  0.0591 -0.0160
   99loPI   C4A 1578  10.477  11.810   8.661 -0.0502  0.2953 -0.3080
   99loPI   C5A 1579  10.780  11.539   8.460  0.0817 -0.1837 -0.2915
   99loPI   C6A 1580  10.967  11.167   8.633  0.2217 -0.1273  0.1314
   99loPI   C1B 1581  10.332  12.174  10.089 -0.1027  0.0309  0.1390
   99loPI   C2B 1582   9.986  11.935   9.904 -0.2686 -0.0249 -0.0995
   99loPI   C3B 1583   9.618  11.985   9.583 -0.2046 -0.1566  0.1245
   99loPI   C4B 1584   9.711  12.221   9.153  0.3458  0.1070  0.2224
  100loPI    C1 1585  14.197   8.958  11.371  0.1135  0.1047 -0.0034
  100loPI    C2 1586  14.353   9.080  11.718  0.3814 -0.3225  0.0345
  100loPI    C3 1587  14.341   8.690  11.630 -0.4551 -0.2917 -0.0765
  100loPI   PO4 1588  14.193   9.116  11.202 -0.3008 -0.1087  0.1576
  100loPI   GL1 1589  14.073   9.139  10.740  0.2583 -0.3468  0.0481
  100loPI   GL2 1590  14.107   8.873  10.530  0.0051  0.0092  0.0344
  100loPI   C1A 1591  14.300   9.368  10.522  0.0123 -0.2408  0.1461
  100loPI   C2A 1592  14.207   9.392  10.080  0.0088  0.0450  0.1341
  100loPI   C3A 1593  14.174   9.295   9.681  0.0540  0.1489 -0.4137
  100loPI   C4A 1594  14.211   9.116   9.302 -0.1482 -0.2280 -0.3662
  100loPI   C5A 1595  14.249   9.065   8.869  0.1834  0.3011  0.2339
  100loPI   C6A 1596  14.138   8.906   8.410 -0.0498 -0.1110 -0.3880
  100loPI   C1B 1597  14.161   8.767  10.088 -0.0855  0.0287  0.0089
  100loPI   C2B 1598  14.115   8.727   9.631  0.0479  0.2765 -0.1552
  100loPI   C3B 1599  14.078   8.620   9.213 -0.0855 -0.1037 -0.1073
  100loPI   C4B 1600  14.073   8.585   8.795  0.0366  0.1277  0.2048
  101loPI    C1 1601   4.754  13.358  10.665 -0.0868 -0.0467 -0.1166
  101loPI    C2 1602   4.430  13.451  10.450 -0.0662  0.1716 -0.0561
  101loPI    C3 1603   4.395  13.374  10.841 -0.0616  0.0709 -0.0751
  101loPI   PO4 1604   4.903  13.541  10.563 -0.0254 -0.2245  0.0871
  101loPI   GL1 1605   5.191  13.568  10.285  0.0204  0.0463 -0.1219
  101loPI   GL2 1606   5.308  13.901  10.199 -0.1385 -0.0207 -0.1888
  101loPI   C1A 1607   5.056  13.466   9.906 -0.0970  0.1390 -0.2105
  101loPI   C2A 1608   4.852  13.618   9.571 -0.0902 -0.0927 -0.3371
  101loPI   C3A 1609   4.991  13.619   9.227  0.0388  0.0608  0.2891
  101loPI   C4A 1610   4.966  13.458   8.833  0.0146 -0.1756 -0.0635
  101loPI   C5A 1611   5.031  13.486   8.378 -0.1482  0.0882  0.2591
  101loPI   C6A 1612   5.012  13.189   8.054 -0.2214  0.2355  0.0121
  101loPI   C1B 1613   5.211  13.940   9.790 -0.1275  0.1154 -0.1540
  101loPI   C2B 1614   4.996  14.137   9.432 -0.4332 -0.0452  0.0832
  101loPI   C3B 1615   5.151  14.091   9.080 -0.0092 -0.1974  0.0917
  101loPI   C4B 1616   5.094  13.979   8.699 -0.0377 -0.0218  0.2727
  102loPI    C1 1617  16.027  16.707  10.729  0.2454 -0.0890 -0.2808
  102loPI    C2 1618  15.884  16.380  10.910  0.1168  0.1529  0.0650
  102loPI    C3 1619  16.275  16.411  10.831  0.1290 -0.0842  0.0265
  102loPI   PO4 1620  15.814  16.687  10.504  0.0080  0.0429 -0.6251
  102loPI   GL1 1621  15.657  16.527  10.150  0.0528 -0.1820  0.1579
  102loPI   GL2 1622  15.671  16.234  10.096  0.0215  0.0806 -0.2707
  102loPI   C1A 1623  15.328  16.732  10.026  0.1709 -0.2226  0.1108
  102loPI   C2A 1624  15.120  17.064   9.788 -0.2562  0.2572 -0.1093
  102loPI   C3A 1625  15.068  17.260   9.380 -0.2171 -0.3832  0.2757
  102loPI   C4A 1626  15.003  17.325   8.997 -0.0261 -0.0836  0.0571
  102loPI   C5A 1627  15.157  17.262   8.705 -0.0619 -0.1980 -0.1007
  102loPI   C6A 1628  15.064  17.389   8.356  0.0921  0.1015 -0.1238
  102loPI   C1B 1629  15.875  16.153   9.783  0.3319 -0.0455 -0.0347
  102loPI   C2B 1630  15.918  15.863   9.452  0.3082  0.0789 -0.0810
  102loPI   C3B 1631  15.940  15.539   9.067  0.0670 -0.1375  0.1311
  102loPI   C4B 1632  16.133  15.304   8.589  0.1595  0.0078  0.0484
  103loPI    C1 1633  14.526   6.067  11.296 -0.1905  0.0678 -0.0286
  103loPI    C2 1634  14.663   6.158  11.661  0.2648 -0.2654 -0.1065
  103loPI    C3 1635  14.389   5.870  11.616 -0.1529  0.1029  0.0093
  103loPI   PO4 1636  14.653   5.947  11.045  0.0511 -0.1654 -0.2128
  103loPI   GL1 1637  14.845   6.190  10.780  0.1330  0.0898  0.0899
  103loPI   GL2 1638  14.573   6.030  10.541 -0.3820  0.2021 -0.2189
  103loPI   C1A 1639  15.008   6.216  10.302 -0.1649 -0.2115 -0.0362
  103loPI   C2A 1640  15.122   6.235   9.792 -0.0278  0.0502  0.0027
  103loPI   C3A 1641  15.199   6.194   9.364 -0.1407 -0.3151  0.2970
  103loPI   C4A 1642  15.231   6.155   8.914  0.2807  0.0518 -0.0594
  103loPI   C5A 1643  15.065   6.188   8.575 -0.4224  0.2105  0.1912
  103loPI   C6A 1644  14.715   6.059   8.377 -0.2824 -0.1700  0.1118
  103loPI   C1B 1645  14.364   6.254  10.256 -0.0305  0.1215  0.0474
  103loPI   C2B 1646  14.167   6.286   9.900  0.2816  0.0535 -0.0043
  103loPI   C3B 1647  14.175   6.281   9.532  0.1319  0.0723 -0.1793
  103loPI   C4B 1648  14.257   6.301   9.143  0.4627  0.1043  0.3358
  104loPI    C1 1649   4.094  10.154  10.855  0.0573 -0.0745  0.0632
  104loPI    C2 1650   3.757  10.009  11.016 -0.0311 -0.0204 -0.0717
  104loPI    C3 1651   3.917  10.347  11.158  0.1363 -0.2084  0.1961
  104loPI   PO4 1652   4.072  10.174  10.628  0.0561  0.2960  0.0537
  104loPI   GL1 1653   4.091  10.459  10.388 -0.0726 -0.0237  0.0547
  104loPI   GL2 1654   4.380  10.604  10.337  0.2968 -0.0113  0.0444
  104loPI   C1A 1655   3.891  10.391  10.068 -0.0766  0.1313 -0.0066
  104loPI   C2A 1656   3.900  10.375   9.603 -0.1343 -0.3018 -0.2934
  104loPI   C3A 1657   3.874  10.241   9.198 -0.0043 -0.0205 -0.2834
  104loPI   C4A 1658   3.728  10.198   8.765 -0.1830  0.1666 -0.1076
  104loPI   C5A 1659   3.620  10.209   8.306  0.1140  0.0359 -0.0110
  104loPI   C6A 1660   3.949  10.214   8.015  0.2333 -0.0325  0.1896
  104loPI   C1B 1661   4.354  10.478   9.900  0.3426  0.0398 -0.0463
  104loPI   C2B 1662   4.313  10.478   9.372  0.0025 -0.1009 -0.0173
  104loPI   C3B 1663   4.286  10.447   8.974 -0.2747  0.1563  0.2286
  104loPI   C4B 1664   4.089  10.299   8.496 -0.0396  0.1465  0.2525
  105loPI    C1 1665   3.184  16.587  10.398  0.0256 -0.2453  0.0151
  105loPI    C2 1666   3.223  16.867  10.116 -0.0593 -0.2265  0.0218
  105loPI    C3 1667   3.544  16.665  10.242  0.0121 -0.0909  0.0597
  105loPI   PO4 1668   2.971  16.477  10.328 -0.0160 -0.0532 -0.2356
  105loPI   GL1 1669   2.995  16.194   9.963 -0.1597  0.2704 -0.4989
  105loPI   GL2 1670   3.235  16.444   9.800 -0.1780 -0.3485  0.0104
  105loPI   C1A 1671   2.879  16.026   9.474  0.1495  0.1416 -0.0120
  105loPI   C2A 1672   2.939  16.049   8.973  0.2101  0.2007  0.1452
  105loPI   C3A 1673   3.171  15.776   8.794 -0.0533  0.1073  0.0529
  105loPI   C4A 1674   3.498  15.506   8.871  0.2082 -0.0062  0.1294
  105loPI   C5A 1675   3.896  15.674   9.070 -0.0082 -0.3800 -0.1688
  105loPI   C6A 1676   3.855  15.693   9.554 -0.1631  0.0167  0.1649
  105loPI   C1B 1677   3.299  16.528   9.359  0.0270  0.0572 -0.2716
  105loPI   C2B 1678   3.306  16.532   8.918  0.2077  0.1606 -0.4689
  105loPI   C3B 1679   3.190  16.294   8.564 -0.0208 -0.0790  0.0076
  105loPI   C4B 1680   2.864  16.247   8.430  0.0915 -0.1384 -0.3082
  106loPI    C1 1681   1.538   0.791  11.217 -0.0682 -0.1227  0.2589
  106loPI    C2 1682   1.712   0.431  11.218  0.0784 -0.0526  0.3864
  106loPI    C3 1683   1.857   0.724  11.449  0.0940  0.1529  0.1206
  106loPI   PO4 1684   1.280   0.775  10.948 -0.1241  0.3998 -0.0373
  106loPI   GL1 1685   1.261   1.029  10.554 -0.0242  0.0248  0.1835
  106loPI   GL2 1686   1.666   1.219  10.499  0.0492  0.1790  0.0609
  106loPI   C1A 1687   1.067   1.032  10.256  0.1826  0.2179  0.3265
  106loPI   C2A 1688   0.929   0.914   9.862 -0.1492  0.0511  0.0150
  106loPI   C3A 1689   1.121   0.889   9.467 -0.2605  0.1459  0.1470
  106loPI   C4A 1690   1.046   1.022   8.989  0.3393 -0.0961 -0.2919
  106loPI   C5A 1691   1.152   0.957   8.577 -0.2882 -0.1687 -0.1989
  106loPI   C6A 1692   1.279   0.735   8.262  0.1477 -0.0562 -0.1681
  106loPI   C1B 1693   1.528   1.103  10.032  0.0728  0.2485 -0.0946
  106loPI   C2B 1694   1.623   1.104   9.617 -0.4074 -0.3102  0.1503
  106loPI   C3B 1695   1.575   1.169   9.158 -0.0579 -0.2916 -0.1431
  106loPI   C4B 1696   1.732   1.212   8.810  0.0758  0.0800 -0.4240
  107loPI    C1 1697   4.154  11.775  11.150 -0.0820  0.1112 -0.1157
  107loPI    C2 1698   3.814  11.953  11.266 -0.0597  0.1265 -0.0735
  107loPI    C3 1699   3.902  11.585  11.396 -0.1205  0.0717 -0.1852
  107loPI   PO4 1700   4.198  11.872  10.736 -0.0494  0.0326 -0.0093
  107loPI   GL1 1701   4.326  11.827  10.272  0.1774  0.1848 -0.0498
  107loPI   GL2 1702   4.419  12.114  10.284  0.0254  0.0106 -0.0436
  107loPI   C1A 1703   4.140  11.906   9.892  0.1807  0.1527 -0.3028
  107loPI   C2A 1704   4.129  11.843   9.439  0.1960  0.0522 -0.0063
  107loPI   C3A 1705   4.058  11.803   8.961  0.2863 -0.0994  0.2067
  107loPI   C4A 1706   4.118  11.641   8.627 -0.0615  0.2491  0.2948
  107loPI   C5A 1707   4.180  11.622   8.193 -0.4617  0.2170  0.0454
  107loPI   C6A 1708   4.247  11.385   7.772 -0.0727  0.0689  0.3642
  107loPI   C1B 1709   4.567  12.129   9.829 -0.0421 -0.0674  0.0562
  107loPI   C2B 1710   4.573  12.080   9.306 -0.3001 -0.0454  0.1349
  107loPI   C3B 1711   4.545  11.924   8.968 -0.1647  0.0420  0.0113
  107loPI   C4B 1712   4.543  11.879   8.458 -0.0942  0.0507 -0.1836
  108loPI    C1 1713   0.559  13.455  10.979 -0.0033  0.3796  0.1666
  108loPI    C2 1714   0.179  13.343  11.035 -0.0195  0.3665  0.0331
  108loPI    C3 1715   0.314  13.682  11.199 -0.0333  0.2695  0.2475
  108loPI   PO4 1716   0.644  13.378  10.713 -0.0935  0.0264 -0.1707
  108loPI   GL1 1717   0.995  13.473  10.518 -0.0339  0.1345  0.1189
  108loPI   GL2 1718   1.168  13.665  10.561  0.2262  0.1432 -0.1536
  108loPI   C1A 1719   0.962  13.207  10.252  0.0730 -0.1489 -0.0956
  108loPI   C2A 1720   0.650  13.093   9.979 -0.1998  0.1543 -0.0610
  108loPI   C3A 1721   1.019  13.025   9.770  0.1522 -0.0686  0.1117
  108loPI   C4A 1722   1.100  13.164   9.334  0.2025 -0.2306 -0.0373
  108loPI   C5A 1723   1.151  13.201   8.841  0.0883 -0.1771  0.1826
  108loPI   C6A 1724   1.140  13.088   8.404 -0.1303 -0.1383 -0.1474
  108loPI   C1B 1725   1.305  13.747  10.136 -0.1264  0.2787 -0.0505
  108loPI   C2B 1726   1.094  13.589   9.762 -0.1779 -0.2089 -0.2000
  108loPI   C3B 1727   1.051  13.668   9.409  0.0792  0.1846  0.1232
  108loPI   C4B 1728   1.278  13.638   9.055  0.1967 -0.1666  0.5146
  109loPI    C1 1729  15.324   0.434  10.921  0.0991 -0.0338  0.0833
  109loPI    C2 1730  15.398   0.067  11.061 -0.0923 -0.1274 -0.0563
  109loPI    C3 1731  15.059   0.254  11.161  0.0889  0.0891  0.1650
  109loPI   PO4 1732  15.411   0.408  10.692 -0.1326  0.0959  0.1271
  109loPI   GL1 1733  15.267   0.572  10.329  0.1208  0.4649 -0.3170
  109loPI   GL2 1734  15.053   0.746  10.250  0.0897 -0.0377  0.4402
  109loPI   C1A 1735  15.499   0.554   9.960 -0.1482  0.2897  0.1096
  109loPI   C2A 1736  15.701   0.634   9.581  0.2508 -0.0080 -0.0553
  109loPI   C3A 1737  15.667   0.619   9.167  0.0615 -0.1161 -0.0864
  109loPI   C4A 1738  15.830   0.463   8.735 -0.0789  0.2006 -0.2223
  109loPI   C5A 1739  16.011   0.493   8.300  0.0356  0.1224 -0.1614
  109loPI   C6A 1740  16.197   0.372   7.934 -0.2506 -0.1517 -0.0186
  109loPI   C1B 1741  15.076   0.774   9.855 -0.0402  0.1066  0.2346
  109loPI   C2B 1742  15.233   0.933   9.460 -0.0063 -0.2074 -0.2191
  109loPI   C3B 1743  15.280   0.921   9.013 -0.4242  0.0953  0.0103
  109loPI   C4B 1744  15.461   0.791   8.728  0.1443 -0.2887  0.0111
  110loPI    C1 1745  11.407  13.493  10.906 -0.1169  0.0564 -0.0182
  110loPI    C2 1746  11.502  13.560  11.289 -0.1096 -0.0604  0.0008
  110loPI    C3 1747  11.359  13.203  11.178  0.0410 -0.0800 -0.1332
  110loPI   PO4 1748  11.555  13.519  10.711 -0.0976  0.0921 -0.2288
  110loPI   GL1 1749  11.480  13.628  10.314 -0.1741  0.3965  0.0690
  110loPI   GL2 1750  11.240  13.483  10.369 -0.0469 -0.1399 -0.0941
  110loPI   C1A 1751  11.621  13.774   9.966 -0.2152 -0.2906  0.0124
  110loPI   C2A 1752  11.694  13.660   9.565  0.1825  0.2212  0.0664
  110loPI   C3A 1753  11.785  13.752   9.212  0.0677 -0.2664  0.2803
  110loPI   C4A 1754  11.588  13.730   8.789  0.0814 -0.0409  0.1006
  110loPI   C5A 1755  11.814  13.737   8.353  0.1313 -0.1478  0.1032
  110loPI   C6A 1756  12.038  13.832   8.007  0.2770 -0.0045  0.1426
  110loPI   C1B 1757  11.141  13.397   9.927  0.1558  0.2405 -0.0227
  110loPI   C2B 1758  11.209  13.191   9.595 -0.0261 -0.0109 -0.0481
  110loPI   C3B 1759  11.204  12.939   9.114  0.0608  0.1649  0.2111
  110loPI   C4B 1760  11.104  12.733   8.756  0.0427  0.1201  0.1320
  111loPI    C1 1761  13.947   6.730  11.384  0.0483  0.0554 -0.1114
  111loPI    C2 1762  13.629   6.813  11.611  0.1851  0.0978  0.0673
  111loPI    C3 1763  13.981   6.733  11.782  0.2179 -0.1768 -0.1223
  111loPI   PO4 1764  13.863   6.748  11.122 -0.1640 -0.0264 -0.1340
  111loPI   GL1 1765  14.037   6.906  10.854 -0.3058 -0.2392 -0.0120
  111loPI   GL2 1766  14.293   7.062  10.726  0.2547  0.1244  0.0977
  111loPI   C1A 1767  14.035   6.666  10.502  0.0277  0.1467 -0.2018
  111loPI   C2A 1768  13.870   6.603  10.113  0.0062  0.2821  0.0341
  111loPI   C3A 1769  13.856   6.669   9.682 -0.0074 -0.2890 -0.3608
  111loPI   C4A 1770  13.816   6.565   9.247 -0.1001  0.2544  0.1457
  111loPI   C5A 1771  13.699   6.675   8.766 -0.1108 -0.0819  0.3760
  111loPI   C6A 1772  13.387   6.931   8.641  0.0196 -0.1240  0.1558
  111loPI   C1B 1773  14.124   7.176  10.403  0.2202  0.1940  0.1213
  111loPI   C2B 1774  13.994   7.114   9.966  0.0150 -0.0107  0.2851
  111loPI   C3B 1775  14.015   7.128   9.479  0.1268 -0.1397 -0.0388
  111loPI   C4B 1776  13.854   7.055   9.037  0.0579 -0.0898  0.1149
  112loPI    C1 1777   1.430  10.548  11.190 -0.0620 -0.1466  0.3563
  112loPI    C2 1778   1.734  10.289  11.160 -0.2847 -0.3571 -0.2226
  112loPI    C3 1779   1.403  10.187  11.361 -0.1642 -0.3111  0.0023
  112loPI   PO4 1780   1.328  10.671  10.969 -0.0111  0.1773  0.0334
  112loPI   GL1 1781   1.088  10.610  10.657  0.0499  0.0588 -0.1525
  112loPI   GL2 1782   1.397  10.823  10.503  0.1271 -0.1017  0.0077
  112loPI   C1A 1783   0.992  10.609  10.158 -0.1289  0.2716 -0.0975
  112loPI   C2A 1784   0.996  10.687   9.718  0.0475 -0.2269 -0.3307
  112loPI   C3A 1785   1.130  10.722   9.358  0.0935 -0.0315  0.0842
  112loPI   C4A 1786   1.037  10.564   8.921 -0.0450  0.0671 -0.2640
  112loPI   C5A 1787   0.995  10.116   8.641  0.1707  0.1538 -0.0874
  112loPI   C6A 1788   1.079   9.678   8.465 -0.2238 -0.2608  0.1499
  112loPI   C1B 1789   1.353  11.030  10.184 -0.2223 -0.2124  0.0880
  112loPI   C2B 1790   1.423  10.928   9.849  0.0115 -0.2095 -0.1514
  112loPI   C3B 1791   1.651  10.737   9.583  0.1045  0.3470  0.0829
  112loPI   C4B 1792   1.621  10.692   9.187 -0.0333  0.2471  0.0293
  113loPI    C1 1793  13.105   7.230  11.442  0.0217  0.0292  0.0327
  113loPI    C2 1794  13.375   7.216  11.737 -0.2199 -0.3343  0.2447
  113loPI    C3 1795  13.004   7.349  11.810 -0.2288 -0.2551  0.0604
  113loPI   PO4 1796  13.195   7.371  11.243 -0.2754  0.1117 -0.2348
  113loPI   GL1 1797  13.203   7.162  10.881 -0.1447  0.1757  0.1206
  113loPI   GL2 1798  13.512   7.199  10.800 -0.2143  0.0092  0.2101
  113loPI   C1A 1799  13.138   6.921  10.548 -0.0144  0.0712  0.0345
  113loPI   C2A 1800  13.007   6.834  10.145 -0.2271  0.0456 -0.0410
  113loPI   C3A 1801  12.909   6.743   9.732 -0.0162 -0.1952  0.0403
  113loPI   C4A 1802  12.824   6.822   9.285 -0.2902  0.1261 -0.0809
  113loPI   C5A 1803  12.943   6.948   8.907 -0.1658 -0.0228 -0.1070
  113loPI   C6A 1804  12.942   7.396   8.781  0.2650  0.0540  0.4315
  113loPI   C1B 1805  13.614   6.954  10.450 -0.1946  0.0413  0.2582
  113loPI   C2B 1806  13.487   6.936  10.013 -0.1408 -0.1856  0.1452
  113loPI   C3B 1807  13.363   6.909   9.573 -0.1174  0.3877  0.0590
  113loPI   C4B 1808  13.415   6.890   9.136  0.4466 -0.2050  0.0451
  114loPI    C1 1809   2.088   2.482  10.825 -0.0003  0.2441  0.2395
  114loPI    C2 1810   2.409   2.245  10.799  0.0134  0.2857  0.0069
  114loPI    C3 1811   2.452   2.627  10.908  0.0597  0.3239 -0.1424
  114loPI   PO4 1812   1.948   2.416  10.598  0.0694 -0.2404  0.0133
  114loPI   GL1 1813   1.802   2.535  10.285 -0.1584 -0.1596  0.0905
  114loPI   GL2 1814   1.551   2.689  10.358 -0.1369  0.1900 -0.2565
  114loPI   C1A 1815   1.828   2.583   9.812  0.0803 -0.1875  0.0362
  114loPI   C2A 1816   2.193   2.378   9.446 -0.0116  0.2592 -0.1415
  114loPI   C3A 1817   2.461   2.661   9.158 -0.1925 -0.0925  0.0509
  114loPI   C4A 1818   2.309   3.077   8.871 -0.0422 -0.0396  0.0266
  114loPI   C5A 1819   2.174   3.194   8.467 -0.0913 -0.1349  0.0805
  114loPI   C6A 1820   1.846   3.052   8.357  0.0551 -0.0916  0.2927
  114loPI   C1B 1821   1.434   2.882  10.083  0.1221  0.1964  0.0659
  114loPI   C2B 1822   1.537   3.052   9.696  0.1264  0.2377 -0.0762
  114loPI   C3B 1823   1.452   3.011   9.235 -0.1568 -0.1416  0.1859
  114loPI   C4B 1824   1.311   2.955   8.784 -0.0287 -0.1020 -0.0141
  115loPI    C1 1825  16.762   8.251  11.170 -0.0611 -0.2284 -0.0397
  115loPI    C2 1826  16.907   8.453  11.483 -0.2701 -0.0901 -0.0301
  115loPI    C3 1827  16.795   8.071  11.525  0.0349 -0.1812 -0.0244
  115loPI   PO4 1828  16.969   8.445  10.867  0.1862 -0.0381 -0.0172
  115loPI   GL1 1829  16.967   8.612  10.463  0.0665  0.3012  0.0039
  115loPI   GL2 1830  17.061   8.409  10.351 -0.1731  0.2371 -0.1038
  115loPI   C1A 1831  17.040   8.733   9.996 -0.0298  0.2077  0.2286
  115loPI   C2A 1832  16.924   8.750   9.603  0.0098  0.0937  0.0854
  115loPI   C3A 1833  16.855   8.753   9.099  0.1714 -0.3645 -0.0021
  115loPI   C4A 1834  16.714   8.739   8.712  0.2295  0.3101 -0.2853
  115loPI   C5A 1835  16.908   8.805   8.372  0.0411 -0.0579 -0.1382
  115loPI   C6A 1836  17.378   9.064   8.380 -0.2146  0.0086 -0.1836
  115loPI   C1B 1837  16.921   8.232  10.064 -0.0004  0.1140  0.1624
  115loPI   C2B 1838  16.830   8.272   9.667 -0.3227 -0.1475  0.0315
  115loPI   C3B 1839  16.799   8.263   9.250 -0.2386  0.0779  0.1487
  115loPI   C4B 1840  16.770   8.200   8.796  0.5258 -0.0625  0.0449
  116loPI    C1 1841   2.255  10.573  11.071  0.0122 -0.1138  0.0533
  116loPI    C2 1842   2.147  10.956  11.030  0.0113 -0.1020  0.1628
  116loPI    C3 1843   1.946  10.717  11.279 -0.1734 -0.2510 -0.1236
  116loPI   PO4 1844   2.322  10.486  10.806  0.0076 -0.0251 -0.1708
  116loPI   GL1 1845   2.383  10.247  10.527  0.1726 -0.0745 -0.2396
  116loPI   GL2 1846   2.122  10.310  10.285  0.0858  0.1612 -0.0056
  116loPI   C1A 1847   2.607  10.313  10.184 -0.1127 -0.3271  0.2215
  116loPI   C2A 1848   2.554  10.219   9.756  0.2009  0.4646 -0.1393
  116loPI   C3A 1849   2.453  10.242   9.310  0.0807  0.2340 -0.1109
  116loPI   C4A 1850   2.485  10.244   8.892 -0.0763 -0.1304 -0.0698
  116loPI   C5A 1851   2.381  10.080   8.491  0.2362  0.2716  0.0251
  116loPI   C6A 1852   2.218  10.071   8.072 -0.0421 -0.0255 -0.0867
  116loPI   C1B 1853   2.239   9.896  10.146  0.0419 -0.1908  0.2096
  116loPI   C2B 1854   2.478   9.716   9.804 -0.1177  0.0109  0.0853
  116loPI   C3B 1855   2.447   9.700   9.372 -0.1585 -0.0262 -0.0719
  116loPI   C4B 1856   2.389   9.623   8.997 -0.3227 -0.1497 -0.1679
  117loPI    C1 1857   1.521   9.681  11.251 -0.2597 -0.0677  0.0111
  117loPI    C2 1858   1.139   9.797  11.239 -0.2017  0.1517  0.2221
  117loPI    C3 1859   1.275   9.587  11.551 -0.1666  0.0101  0.1125
  117loPI   PO4 1860   1.566   9.717  10.904  0.0926 -0.1795  0.0166
  117loPI   GL1 1861   1.447   9.776  10.455  0.0409  0.1101  0.0996
  117loPI   GL2 1862   1.686   9.761  10.381  0.0454  0.1911  0.0543
  117loPI   C1A 1863   1.331   9.903   9.979  0.0572 -0.0314 -0.4372
  117loPI   C2A 1864   1.495   9.754   9.629 -0.0781 -0.1110 -0.1581
  117loPI   C3A 1865   1.514   9.665   9.228  0.3012  0.1484  0.1589
  117loPI   C4A 1866   1.417   9.756   8.859 -0.2266 -0.0988 -0.0825
  117loPI   C5A 1867   1.550   9.905   8.469  0.3551 -0.0919 -0.0368
  117loPI   C6A 1868   1.884  10.158   8.449  0.0665  0.1174 -0.0162
  117loPI   C1B 1869   1.855   9.592   9.923  0.1517 -0.0131 -0.0894
  117loPI   C2B 1870   2.000   9.441   9.493 -0.2541 -0.4304  0.1237
  117loPI   C3B 1871   1.895   9.399   9.065  0.3579 -0.0057  0.3671
  117loPI   C4B 1872   1.713   9.389   8.578  0.1567  0.0826 -0.0073
  118loPI    C1 1873   8.597   7.942  11.302 -0.0796  0.1336 -0.3753
  118loPI    C2 1874   8.697   7.603  11.115 -0.2057  0.0377 -0.2710
  118loPI    C3 1875   8.443   7.593  11.423 -0.0820  0.2074 -0.1622
  118loPI   PO4 1876   8.559   8.119  11.104 -0.1759  0.0514  0.0756
  118loPI   GL1 1877   8.282   8.148  10.666  0.0753 -0.1284  0.0230
  118loPI   GL2 1878   8.470   7.851  10.678  0.0974 -0.2810  0.2599
  118loPI   C1A 1879   8.083   8.218  10.307  0.0017  0.1206  0.0414
  118loPI   C2A 1880   8.087   8.175   9.955 -0.2653 -0.1839 -0.1232
  118loPI   C3A 1881   8.069   8.200   9.538 -0.0876 -0.0960  0.3080
  118loPI   C4A 1882   8.057   8.178   9.100 -0.0788 -0.1059 -0.0276
  118loPI   C5A 1883   8.004   8.280   8.699 -0.1407  0.0960 -0.1003
  118loPI   C6A 1884   7.625   8.436   8.502  0.0381 -0.0357  0.0342
  118loPI   C1B 1885   8.487   7.801  10.251  0.0622  0.0761  0.0986
  118loPI   C2B 1886   8.520   7.900   9.794 -0.0887  0.0537 -0.3138
  118loPI   C3B 1887   8.444   7.953   9.397 -0.0605  0.1761 -0.1834
  118loPI   C4B 1888   8.473   7.843   8.927  0.1919 -0.0781 -0.0063
  119loPI    C1 1889  14.601   4.622  11.118 -0.0565 -0.2591 -0.0978
  119loPI    C2 1890  14.282   4.591  11.357  0.0784 -0.1873  0.0940
  119loPI    C3 1891  14.646   4.507  11.498  0.1576 -0.1619 -0.0926
  119loPI   PO4 1892  14.499   4.556  10.934 -0.1054  0.1035 -0.1120
  119loPI   GL1 1893  14.476   4.305  10.642  0.2562  0.0277 -0.2372
  119loPI   GL2 1894  14.118   4.265  10.566 -0.0143 -0.0695  0.0048
  119loPI   C1A 1895  14.490   4.385  10.147 -0.0257 -0.0104  0.1751
  119loPI   C2A 1896  14.399   4.516   9.817 -0.1697 -0.2865  0.1148
  119loPI   C3A 1897  14.361   4.460   9.467 -0.1753 -0.3845  0.0571
  119loPI   C4A 1898  14.340   4.444   8.945  0.2583 -0.1363  0.0552
  119loPI   C5A 1899  14.281   4.497   8.527 -0.0034 -0.2603 -0.2317
  119loPI   C6A 1900  14.374   4.242   8.232  0.3020  0.0440  0.0030
  119loPI   C1B 1901  13.924   4.189  10.164 -0.2422 -0.1653 -0.1234
  119loPI   C2B 1902  13.902   4.292   9.680  0.1258 -0.0838 -0.0163
  119loPI   C3B 1903  13.956   4.243   9.231 -0.0343 -0.0513 -0.2168
  119loPI   C4B 1904  13.871   4.285   8.832 -0.1698 -0.1913  0.1394
  120loPI    C1 1905   1.668   8.287  10.971 -0.3196  0.1789 -0.0346
  120loPI    C2 1906   1.503   8.063  11.258  0.0109 -0.1788 -0.1143
  120loPI    C3 1907   1.657   8.421  11.348 -0.0735 -0.1971  0.1123
  120loPI   PO4 1908   1.788   8.172  10.837  0.1069  0.0448 -0.0440
  120loPI   GL1 1909   1.707   7.985  10.454 -0.1111  0.1572 -0.1625
  120loPI   GL2 1910   1.988   7.900  10.459 -0.0826  0.1125  0.0771
  120loPI   C1A 1911   1.747   7.904  10.006 -0.0479 -0.0370  0.0040
  120loPI   C2A 1912   1.703   7.943   9.547 -0.0095 -0.1942  0.1299
  120loPI   C3A 1913   1.607   7.938   9.024  0.2026  0.0467  0.3361
  120loPI   C4A 1914   1.498   7.901   8.644  0.0222  0.1242 -0.0069
  120loPI   C5A 1915   1.582   8.126   8.346 -0.0277  0.0006  0.0171
  120loPI   C6A 1916   1.346   8.434   8.116  0.1570 -0.0072  0.2615
  120loPI   C1B 1917   2.159   8.068  10.163 -0.0753 -0.2664  0.2519
  120loPI   C2B 1918   2.191   8.139   9.791 -0.0207  0.0447  0.2440
  120loPI   C3B 1919   2.223   8.203   9.334 -0.5022 -0.1630 -0.0422
  120loPI   C4B 1920   2.145   8.157   8.908 -0.2327  0.3154 -0.2842
  121loPI    C1 1921  10.563  13.438  11.103 -0.0059 -0.0842 -0.0263
  121loPI    C2 1922  10.938  13.567  11.154 -0.0446  0.0623 -0.1088
  121loPI    C3 1923  10.678  13.581  11.458  0.0112 -0.0222 -0.0569
  121loPI   PO4 1924  10.597  13.258  10.883 -0.0871  0.3765 -0.2180
  121loPI   GL1 1925  10.343  13.047  10.613  0.2627  0.0420  0.2550
  121loPI   GL2 1926  10.207  13.361  10.575 -0.1143 -0.2171 -0.2317
  121loPI   C1A 1927  10.391  12.979  10.223  0.0411  0.0270 -0.1662
  121loPI   C2A 1928  10.371  13.172   9.839 -0.2725  0.2863 -0.1354
  121loPI   C3A 1929  10.759  13.317   9.566  0.3415  0.2050  0.0396
  121loPI   C4A 1930  10.740  13.328   9.197  0.0128  0.1684  0.1655
  121loPI   C5A 1931  10.751  13.196   8.732  0.3120  0.1674 -0.2310
  121loPI   C6A 1932  10.597  12.872   8.542  0.0661 -0.2489 -0.1281
  121loPI   C1B 1933  10.011  13.479  10.082  0.0593 -0.2800 -0.0465
  121loPI   C2B 1934   9.925  13.387   9.659 -0.0162 -0.0584  0.1711
  121loPI   C3B 1935   9.745  13.235   9.398 -0.0227 -0.1871  0.2932
  121loPI   C4B 1936   9.803  13.064   9.099 -0.0205 -0.0488 -0.2205
  122loPI    C1 1937  11.657  10.760  11.286 -0.1251  0.1252 -0.2087
  122loPI    C2 1938  11.355  10.501  11.328  0.0303 -0.0107  0.1061
  122loPI    C3 1939  11.287  10.894  11.358 -0.1094 -0.0421  0.2099
  122loPI   PO4 1940  11.700  10.785  11.079  0.1015  0.2038 -0.1948
  122loPI   GL1 1941  11.834  10.851  10.678  0.2391  0.1402 -0.0391
  122loPI   GL2 1942  11.700  10.471  10.703  0.1062  0.1008 -0.2630
  122loPI   C1A 1943  11.621  10.641  10.285 -0.0748 -0.0324 -0.3197
  122loPI   C2A 1944  11.584  10.675   9.802  0.0911 -0.0149 -0.2293
  122loPI   C3A 1945  11.638  10.639   9.370  0.1102  0.2773  0.1293
  122loPI   C4A 1946  11.666  10.664   8.895 -0.2283 -0.1274 -0.4185
  122loPI   C5A 1947  11.537  10.540   8.593  0.1461 -0.0765  0.3906
  122loPI   C6A 1948  11.390  10.056   8.558  0.1899 -0.0052 -0.4434
  122loPI   C1B 1949  11.434  10.208  10.484 -0.0514 -0.0702  0.0550
  122loPI   C2B 1950  11.544  10.162  10.011 -0.1975 -0.1594  0.3006
  122loPI   C3B 1951  11.661  10.177   9.494 -0.1543  0.0788 -0.1495
  122loPI   C4B 1952  11.572  10.102   9.062  0.2942 -0.0453 -0.0144
  123loPI    C1 1953  17.654   2.950  10.824 -0.0188 -0.0802  0.2015
  123loPI    C2 1954  17.409   3.136  11.078 -0.0796 -0.0146  0.0954
  123loPI    C3 1955  17.768   3.011  11.202 -0.1406 -0.0537  0.2342
  123loPI   PO4 1956  17.429   2.835  10.578  0.0147 -0.0410 -0.2289
  123loPI   GL1 1957  17.217   2.992  10.277 -0.1642  0.3258 -0.0403
  123loPI   GL2 1958  17.049   3.114  10.261  0.2302  0.2208 -0.1036
  123loPI   C1A 1959  17.343   2.818   9.876  0.0235  0.2378 -0.0343
  123loPI   C2A 1960  17.386   2.658   9.494 -0.1804 -0.2798  0.1733
  123loPI   C3A 1961  17.338   2.716   9.007  0.1669 -0.0213 -0.0408
  123loPI   C4A 1962  17.394   2.737   8.515  0.1886 -0.1208 -0.1017
  123loPI   C5A 1963  17.310   3.065   8.217  0.0047  0.0560  0.0374
  123loPI   C6A 1964  16.902   3.130   8.138  0.0963  0.1374 -0.2507
  123loPI   C1B 1965  16.926   3.073   9.808  0.3420  0.0475  0.1026
  123loPI   C2B 1966  16.984   3.029   9.496  0.0783 -0.0320  0.1334
  123loPI   C3B 1967  16.993   3.016   9.048 -0.2884  0.2199 -0.1452
  123loPI   C4B 1968  16.948   2.971   8.573  0.3749 -0.0321 -0.2365
  124loPI    C1 1969   3.675   0.628  10.646  0.1103  0.0662 -0.0051
  124loPI    C2 1970   3.598   1.019  10.608 -0.1813  0.0179  0.0649
  124loPI    C3 1971   3.334   0.780  10.790 -0.0391 -0.2258 -0.0440
  124loPI   PO4 1972   3.682   0.559  10.401  0.1720 -0.1854  0.0177
  124loPI   GL1 1973   3.794   0.195  10.027  0.0931  0.0371  0.2053
  124loPI   GL2 1974   3.895  -0.097   9.976  0.0313  0.0235 -0.1278
  124loPI   C1A 1975   3.574   0.114   9.561 -0.2683  0.1518 -0.2760
  124loPI   C2A 1976   3.579   0.158   9.077  0.0619  0.5655  0.1039
  124loPI   C3A 1977   3.678   0.077   8.751 -0.1559 -0.0777 -0.1986
  124loPI   C4A 1978   3.761   0.293   8.319 -0.4555  0.0305  0.0223
  124loPI   C5A 1979   3.568   0.695   8.263 -0.0588 -0.4068  0.1631
  124loPI   C6A 1980   3.472   1.174   8.293  0.1961 -0.0338 -0.2101
  124loPI   C1B 1981   3.966  -0.420   9.664 -0.0764  0.0783  0.0404
  124loPI   C2B 1982   4.016  -0.812   9.384 -0.1819  0.1435 -0.0446
  124loPI   C3B 1983   4.200  -0.997   9.089  0.0165  0.1389 -0.0793
  124loPI   C4B 1984   4.061  -0.940   8.643 -0.1536 -0.0267 -0.0847
  125loPI    C1 1985   6.503  16.350  10.681  0.1667  0.0976  0.1532
  125loPI    C2 1986   6.124  16.355  10.807  0.0744  0.0886 -0.1178
  125loPI    C3 1987   6.423  16.379  11.071 -0.1120 -0.0240  0.1072
  125loPI   PO4 1988   6.529  16.142  10.462  0.1437 -0.2848  0.0668
  125loPI   GL1 1989   6.601  16.237  10.018 -0.0556  0.0407 -0.0184
  125loPI   GL2 1990   6.628  16.470   9.879  0.0402  0.0650 -0.1726
  125loPI   C1A 1991   6.569  16.064   9.598  0.2033 -0.3522  0.0386
  125loPI   C2A 1992   6.544  15.872   9.187  0.3046  0.0799  0.2718
  125loPI   C3A 1993   6.698  15.802   8.797 -0.1322 -0.0688  0.3061
  125loPI   C4A 1994   6.955  16.014   8.398  0.0376  0.0807 -0.1398
  125loPI   C5A 1995   7.090  16.066   7.949  0.2412 -0.0158 -0.0818
  125loPI   C6A 1996   7.223  16.086   7.587  0.0147 -0.0404 -0.0347
  125loPI   C1B 1997   6.808  16.553   9.534 -0.1080  0.2062 -0.2117
  125loPI   C2B 1998   6.784  16.418   9.116 -0.0885 -0.1925 -0.0569
  125loPI   C3B 1999   6.696  16.343   8.638  0.1753 -0.1095 -0.0568
  125loPI   C4B 2000   6.606  16.467   8.238 -0.1699 -0.1060 -0.2451
  126loPI    C1 2001  16.474   9.327  11.299 -0.0440 -0.1794  0.0062
  126loPI    C2 2002  16.329   9.075  11.573  0.0854  0.0170  0.2598
  126loPI    C3 2003  16.409   9.454  11.672 -0.1024  0.1601 -0.1158
  126loPI   PO4 2004  16.413   9.225  11.051  0.1471  0.2032  0.2239
  126loPI   GL1 2005  16.237   9.066  10.726 -0.0611  0.2314 -0.2898
  126loPI   GL2 2006  15.965   8.878  10.648  0.1621  0.0798 -0.0393
  126loPI   C1A 2007  16.367   9.035  10.325  0.0799 -0.0091  0.1364
  126loPI   C2A 2008  16.542   9.099   9.877 -0.1772 -0.4783 -0.0453
  126loPI   C3A 2009  16.665   9.140   9.472  0.0356 -0.0883  0.3141
  126loPI   C4A 2010  16.987   9.247   9.155  0.1429 -0.1704 -0.0774
  126loPI   C5A 2011  16.876   9.292   8.757 -0.3068  0.2266 -0.1238
  126loPI   C6A 2012  16.516   9.223   8.489 -0.0419  0.0075  0.4085
  126loPI   C1B 2013  15.581   8.907  10.284 -0.1686  0.1587 -0.2931
  126loPI   C2B 2014  15.420   8.790   9.820  0.1168  0.2795  0.0379
  126loPI   C3B 2015  15.538   8.777   9.430  0.2449  0.0307  0.1266
  126loPI   C4B 2016  15.550   8.681   9.005  0.1936  0.0432  0.1186
  127loPI    C1 2017   4.859  10.513  10.798 -0.3551  0.1735 -0.0926
  127loPI    C2 2018   4.577  10.246  10.701 -0.0700 -0.1862  0.0467
  127loPI    C3 2019   4.625  10.356  11.083 -0.2737  0.1710 -0.0267
  127loPI   PO4 2020   5.027  10.425  10.767  0.0182 -0.0225 -0.2023
  127loPI   GL1 2021   5.150  10.332  10.380 -0.0198 -0.2099  0.0340
  127loPI   GL2 2022   4.965  10.649  10.320  0.2738 -0.0904 -0.0185
  127loPI   C1A 2023   5.238  10.394   9.936 -0.0654 -0.0050 -0.1104
  127loPI   C2A 2024   5.227  10.347   9.499 -0.4526  0.2019  0.0229
  127loPI   C3A 2025   5.126  10.371   9.029  0.1532 -0.2041 -0.1942
  127loPI   C4A 2026   5.056  10.221   8.600  0.0934  0.2729  0.2777
  127loPI   C5A 2027   4.916   9.982   8.185  0.1004 -0.0674  0.2666
  127loPI   C6A 2028   4.491  10.056   8.068 -0.0019 -0.2108  0.2185
  127loPI   C1B 2029   4.771  10.716   9.986  0.3154 -0.1100 -0.0919
  127loPI   C2B 2030   4.785  10.649   9.576 -0.0916  0.1638  0.1808
  127loPI   C3B 2031   4.739  10.670   9.158  0.0405  0.0729  0.1815
  127loPI   C4B 2032   4.738  10.571   8.684  0.1224 -0.2375 -0.1805
  128loPI    C1 2033   2.937   9.118  11.003 -0.1706 -0.0246  0.1946
  128loPI    C2 2034   2.968   9.502  11.108  0.0767 -0.0659  0.2794
  128loPI    C3 2035   3.152   9.221  11.324  0.3378 -0.1818 -0.0856
  128loPI   PO4 2036   2.658   9.183  10.826  0.0404 -0.3682  0.2572
  128loPI   GL1 2037   2.556   9.332  10.451  0.0357 -0.1359 -0.1374
  128loPI   GL2 2038   2.628   9.657  10.293 -0.2924  0.1113  0.2006
  128loPI   C1A 2039   2.581   8.988  10.114 -0.1575  0.1611 -0.1080
  128loPI   C2A 2040   2.775   8.876   9.735 -0.2238  0.0096  0.2761
  128loPI   C3A 2041   2.784   8.887   9.307 -0.1118  0.0034  0.0739
  128loPI   C4A 2042   2.713   8.850   8.901 -0.0209  0.0238 -0.0483
  128loPI   C5A 2043   2.617   8.792   8.487  0.0327 -0.0158  0.1208
  128loPI   C6A 2044   2.476   9.070   8.162 -0.2561 -0.0415 -0.0903
  128loPI   C1B 2045   2.910   9.505   9.949  0.0664 -0.0573  0.0663
  128loPI   C2B 2046   2.896   9.372   9.563  0.1410  0.0173 -0.2282
  128loPI   C3B 2047   2.793   9.331   9.078  0.0393 -0.0118 -0.1043
  128loPI   C4B 2048   2.762   9.330   8.648  0.1391  0.1400 -0.0612
  129loPI    C1 2049  15.259   5.267  10.932 -0.2014  0.1859 -0.1080
  129loPI    C2 2050  15.367   5.541  11.204 -0.0561  0.1102 -0.0885
  129loPI    C3 2051  15.159   5.218  11.317 -0.0751  0.1247 -0.0823
  129loPI   PO4 2052  15.184   5.373  10.746 -0.1101 -0.1507  0.0036
  129loPI   GL1 2053  15.138   5.529  10.394  0.1964  0.1030 -0.0440
  129loPI   GL2 2054  14.925   5.748  10.388 -0.1704 -0.0767 -0.0701
  129loPI   C1A 2055  15.139   5.742   9.969  0.1540 -0.0398 -0.1158
  129loPI   C2A 2056  15.112   5.690   9.597 -0.4271  0.0709 -0.2359
  129loPI   C3A 2057  15.046   5.665   9.196 -0.2071 -0.0948  0.1876
  129loPI   C4A 2058  15.130   5.605   8.752  0.2309  0.3097 -0.1391
  129loPI   C5A 2059  14.918   5.407   8.346  0.4060 -0.1655 -0.0983
  129loPI   C6A 2060  14.496   5.190   8.333  0.0569 -0.2044 -0.3192
  129loPI   C1B 2061  14.710   5.928  10.069 -0.3087 -0.0202 -0.0303
  129loPI   C2B 2062  14.595   6.025   9.718  0.0276  0.1115 -0.1077
  129loPI   C3B 2063  14.708   6.008   9.283 -0.0055  0.1564  0.1491
  129loPI   C4B 2064  14.657   6.037   8.873 -0.3429  0.2443 -0.1733
  130loPI    C1 2065   5.093  11.485  10.844  0.1532 -0.0683  0.3446
  130loPI    C2 2066   5.484  11.567  10.844  0.2521 -0.5099  0.1625
  130loPI    C3 2067   5.334  11.307  11.108  0.0220 -0.1083  0.4385
  130loPI   PO4 2068   4.940  11.423  10.661  0.2181  0.2170 -0.1942
  130loPI   GL1 2069   4.843  11.475  10.313 -0.0115 -0.1507  0.0659
  130loPI   GL2 2070   4.892  11.151  10.191  0.1757 -0.4472 -0.0449
  130loPI   C1A 2071   4.626  11.594   9.913 -0.1114 -0.1657  0.0328
  130loPI   C2A 2072   4.532  11.544   9.520  0.0758  0.2519 -0.1677
  130loPI   C3A 2073   4.465  11.442   9.052 -0.0216 -0.0224 -0.3567
  130loPI   C4A 2074   4.455  11.285   8.554  0.2498  0.0501 -0.2221
  130loPI   C5A 2075   4.292  11.076   8.148  0.2286  0.0108 -0.1239
  130loPI   C6A 2076   3.972  10.964   7.855  0.1066 -0.1909 -0.0527
  130loPI   C1B 2077   4.858  11.203   9.834 -0.0732  0.1668  0.0969
  130loPI   C2B 2078   4.897  11.194   9.377  0.1555 -0.1955 -0.0653
  130loPI   C3B 2079   4.863  11.138   8.911  0.0450 -0.0338  0.2570
  130loPI   C4B 2080   4.899  11.073   8.574 -0.0485 -0.2100 -0.1167
  131loPI    C1 2081   0.688   3.748  10.888 -0.1440 -0.1929 -0.0272
  131loPI    C2 2082   0.934   3.643  11.185  0.0374  0.2766 -0.0031
  131loPI    C3 2083   0.579   3.806  11.268  0.0224  0.2646 -0.0435
  131loPI   PO4 2084   0.700   3.517  10.683 -0.1335  0.4999  0.0409
  131loPI   GL1 2085   0.614   3.452  10.291  0.0068  0.0196 -0.2417
  131loPI   GL2 2086   0.519   3.163  10.184  0.0251 -0.0445  0.2469
  131loPI   C1A 2087   0.605   3.632   9.863 -0.0580 -0.3765  0.2272
  131loPI   C2A 2088   0.485   3.522   9.463 -0.2379 -0.2407  0.1639
  131loPI   C3A 2089   0.499   3.634   8.964  0.2853 -0.0049  0.0730
  131loPI   C4A 2090   0.461   3.776   8.531  0.0978 -0.3280 -0.2647
  131loPI   C5A 2091   0.097   3.950   8.251  0.1468  0.0226 -0.0329
  131loPI   C6A 2092  -0.161   4.318   8.183  0.0189  0.0434 -0.2285
  131loPI   C1B 2093   0.554   2.988   9.846 -0.0286  0.2612 -0.0298
  131loPI   C2B 2094   0.406   3.005   9.498 -0.1883 -0.0169  0.0862
  131loPI   C3B 2095   0.443   3.114   9.007 -0.0721  0.0032  0.0915
  131loPI   C4B 2096   0.387   3.196   8.587 -0.0203  0.0539  0.0649
  132loPI    C1 2097   7.643  11.986  11.284 -0.0435 -0.0584  0.0313
  132loPI    C2 2098   7.972  11.762  11.325 -0.1230 -0.1915 -0.0470
  132loPI    C3 2099   7.624  11.636  11.477 -0.1388 -0.0513  0.0355
  132loPI   PO4 2100   7.677  12.061  11.057 -0.2585  0.1463  0.0220
  132loPI   GL1 2101   7.702  12.113  10.624 -0.1466  0.0865  0.1849
  132loPI   GL2 2102   7.988  12.109  10.511 -0.0400  0.0374 -0.1191
  132loPI   C1A 2103   7.462  11.893  10.255 -0.3141 -0.0936  0.1438
  132loPI   C2A 2104   7.410  11.969   9.832  0.0058  0.3463  0.3236
  132loPI   C3A 2105   7.311  11.955   9.383  0.0251  0.1758 -0.1879
  132loPI   C4A 2106   7.279  11.813   8.996 -0.0980  0.0407  0.0451
  132loPI   C5A 2107   7.283  11.568   8.568 -0.2345 -0.1577 -0.1773
  132loPI   C6A 2108   7.403  11.350   8.183  0.2753  0.0944  0.1343
  132loPI   C1B 2109   7.890  12.121  10.102  0.0042  0.1582 -0.1221
  132loPI   C2B 2110   7.838  11.988   9.637 -0.0663 -0.2459  0.1685
  132loPI   C3B 2111   7.761  11.948   9.138  0.2302 -0.0168  0.0134
  132loPI   C4B 2112   7.610  12.196   8.772  0.1785 -0.2086 -0.1748
  133loPI    C1 2113   4.938   6.899  11.061 -0.2793  0.1257 -0.0320
  133loPI    C2 2114   5.063   7.232  11.244 -0.0363 -0.0022  0.0395
  133loPI    C3 2115   5.127   6.875  11.413 -0.1774 -0.0949 -0.0998
  133loPI   PO4 2116   4.967   6.975  10.763 -0.3238  0.0254 -0.0208
  133loPI   GL1 2117   5.353   6.952  10.460  0.0709 -0.0114  0.3105
  133loPI   GL2 2118   5.236   6.788  10.236  0.2102 -0.0438  0.1441
  133loPI   C1A 2119   5.333   7.268  10.049 -0.2951 -0.0903 -0.5436
  133loPI   C2A 2120   5.335   7.485   9.770  0.5622 -0.3001  0.1722
  133loPI   C3A 2121   5.389   7.442   9.313  0.5884 -0.1625  0.0487
  133loPI   C4A 2122   5.255   7.520   8.903 -0.0350  0.0626  0.1674
  133loPI   C5A 2123   5.508   7.379   8.501  0.2644 -0.1155 -0.3315
  133loPI   C6A 2124   5.706   7.463   8.160 -0.1295  0.2391  0.2006
  133loPI   C1B 2125   5.161   6.817   9.693 -0.0290  0.0582 -0.2733
  133loPI   C2B 2126   5.300   6.972   9.336 -0.1780 -0.0786  0.0101
  133loPI   C3B 2127   5.324   6.943   8.898 -0.2008 -0.0338 -0.1543
  133loPI   C4B 2128   5.265   6.886   8.456 -0.1813  0.0004  0.1076
  134loPI    C1 2129  10.970  14.152  11.054 -0.0516  0.0005 -0.0853
  134loPI    C2 2130  10.851  14.087  11.430  0.0675 -0.0646 -0.0585
  134loPI    C3 2131  11.231  14.020  11.326  0.0755  0.1172 -0.1495
  134loPI   PO4 2132  10.758  14.058  10.983  0.0792  0.2209  0.3037
  134loPI   GL1 2133  10.713  14.085  10.449  0.3116  0.3518  0.2997
  134loPI   GL2 2134  10.978  13.917  10.299  0.2949 -0.3162 -0.3688
  134loPI   C1A 2135  10.690  14.128   9.947 -0.0792 -0.0086 -0.0833
  134loPI   C2A 2136  10.771  14.050   9.522  0.2022  0.1295  0.2338
  134loPI   C3A 2137  11.005  14.076   9.097  0.1010 -0.1723  0.2025
  134loPI   C4A 2138  11.070  13.878   8.703  0.2206 -0.0620  0.3241
  134loPI   C5A 2139  11.287  13.681   8.269  0.0155  0.2293  0.1728
  134loPI   C6A 2140  11.553  13.664   7.909  0.3193  0.2004 -0.0186
  134loPI   C1B 2141  11.112  13.897   9.984 -0.6176  0.1345  0.1977
  134loPI   C2B 2142  11.124  13.709   9.566 -0.0328 -0.1203 -0.1865
  134loPI   C3B 2143  11.295  13.608   9.202 -0.1288 -0.2865 -0.2405
  134loPI   C4B 2144  11.230  13.411   8.728  0.1726 -0.0615  0.0398
  135loPI    C1 2145  10.347   2.259  10.773  0.2902  0.0069  0.1121
  135loPI    C2 2146  10.004   2.191  10.968  0.1685 -0.0319 -0.1126
  135loPI    C3 2147  10.345   2.028  11.101  0.0858 -0.0661  0.0608
  135loPI   PO4 2148  10.366   2.210  10.528  0.0335  0.0947  0.2052
  135loPI   GL1 2149  10.290   2.409  10.247  0.2097  0.6358  0.0718
  135loPI   GL2 2150  10.064   2.583  10.222 -0.1860 -0.3303  0.1763
  135loPI   C1A 2151  10.468   2.403   9.870  0.0470 -0.0896 -0.0941
  135loPI   C2A 2152  10.500   2.238   9.462  0.2814 -0.2705 -0.0000
  135loPI   C3A 2153  10.473   2.100   8.943 -0.2979 -0.1548  0.2344
  135loPI   C4A 2154  10.666   2.235   8.566  0.1738  0.0362  0.2991
  135loPI   C5A 2155  10.799   2.617   8.468  0.0239 -0.0421 -0.0369
  135loPI   C6A 2156  10.890   3.022   8.347 -0.4381 -0.1820  0.0165
  135loPI   C1B 2157  10.022   2.900   9.899  0.0049  0.0342 -0.0050
  135loPI   C2B 2158   9.746   3.030   9.692 -0.0200  0.0258  0.2959
  135loPI   C3B 2159   9.632   3.064   9.260  0.0541 -0.0969  0.0866
  135loPI   C4B 2160   9.635   3.083   8.869 -0.2607  0.0023  0.1231
  136loPI    C1 2161   1.538  17.430  10.737 -0.0240  0.5118  0.0017
  136loPI    C2 2162   1.233  17.350  10.983  0.2079 -0.0300  0.1262
  136loPI    C3 2163   1.603  17.231  11.078  0.3451 -0.0096 -0.3584
  136loPI   PO4 2164   1.398  17.283  10.384  0.1200  0.1723  0.0544
  136loPI   GL1 2165   1.034  17.472  10.080  0.0406 -0.1063  0.2492
  136loPI   GL2 2166   0.895  17.642  10.082  0.0326 -0.0901  0.0642
  136loPI   C1A 2167   1.022  17.293   9.784 -0.1733 -0.1688  0.2868
  136loPI   C2A 2168   0.956  17.253   9.319 -0.1032  0.1006 -0.1046
  136loPI   C3A 2169   0.917  16.986   9.103 -0.1133 -0.0775 -0.2015
  136loPI   C4A 2170   0.753  16.813   8.742 -0.0640  0.2976 -0.4049
  136loPI   C5A 2171   0.570  16.813   8.320  0.0135  0.2679 -0.1167
  136loPI   C6A 2172   0.426  16.538   8.080  0.0869  0.1014  0.0345
  136loPI   C1B 2173   0.908  17.686   9.596 -0.3463  0.0853 -0.0492
  136loPI   C2B 2174   1.093  17.757   9.231 -0.1346  0.0906 -0.0372
  136loPI   C3B 2175   1.116  17.754   8.794 -0.0433 -0.2323  0.1978
  136loPI   C4B 2176   1.065  17.593   8.381 -0.0596  0.0821 -0.0146
  137loPI    C1 2177   6.190   5.263  10.993  0.0047 -0.1618  0.0295
  137loPI    C2 2178   6.279   5.538  11.269  0.0395  0.1414 -0.2778
  137loPI    C3 2179   5.913   5.379  11.257  0.0972 -0.0265  0.0685
  137loPI   PO4 2180   6.338   5.394  10.755  0.2728 -0.1231  0.4952
  137loPI   GL1 2181   6.437   5.240  10.396  0.3786 -0.2365 -0.4033
  137loPI   GL2 2182   6.712   4.986  10.364  0.2064 -0.2118 -0.0560
  137loPI   C1A 2183   6.381   5.391  10.068  0.0649 -0.0307  0.2662
  137loPI   C2A 2184   6.379   5.522   9.700 -0.2483 -0.0040 -0.2294
  137loPI   C3A 2185   6.429   5.544   9.237 -0.2714 -0.1266 -0.2333
  137loPI   C4A 2186   6.494   5.642   8.838  0.2091  0.0220  0.2604
  137loPI   C5A 2187   6.311   5.481   8.422 -0.0513  0.0509 -0.0730
  137loPI   C6A 2188   6.006   5.302   8.401  0.2213  0.1005  0.1184
  137loPI   C1B 2189   6.799   5.180   9.968  0.0746  0.1020  0.1372
  137loPI   C2B 2190   6.732   5.188   9.585 -0.0554  0.1131  0.0705
  137loPI   C3B 2191   6.899   5.302   9.213 -0.1276 -0.1292  0.0569
  137loPI   C4B 2192   6.902   5.343   8.833  0.1863 -0.1811 -0.1835
  138loPI    C1 2193   5.374   3.097  10.858  0.0604 -0.0732 -0.0729
  138loPI    C2 2194   5.074   3.045  11.117  0.0738 -0.1049 -0.0638
  138loPI    C3 2195   5.366   3.306  11.199  0.1079 -0.1564 -0.0205
  138loPI   PO4 2196   5.521   2.922  10.728 -0.3250 -0.0502  0.1045
  138loPI   GL1 2197   5.704   2.630  10.421 -0.0422 -0.0798  0.0127
  138loPI   GL2 2198   5.684   2.339  10.348  0.1594  0.0260  0.0109
  138loPI   C1A 2199   5.612   2.802  10.010  0.2071 -0.1363  0.0312
  138loPI   C2A 2200   5.549   2.972   9.535 -0.1837  0.0181 -0.0614
  138loPI   C3A 2201   5.440   2.953   9.099  0.0673  0.2259  0.4205
  138loPI   C4A 2202   5.589   2.829   8.810  0.1518 -0.0944  0.3220
  138loPI   C5A 2203   5.734   2.662   8.380 -0.2328  0.1331  0.0523
  138loPI   C6A 2204   5.900   2.608   7.928  0.1176  0.1853  0.2930
  138loPI   C1B 2205   5.626   2.267   9.981 -0.4968 -0.2446 -0.0211
  138loPI   C2B 2206   5.749   2.344   9.568 -0.3128  0.1535 -0.0553
  138loPI   C3B 2207   5.788   2.534   9.178 -0.1561  0.0320  0.1363
  138loPI   C4B 2208   6.075   2.692   8.969 -0.1520  0.2214  0.3519
  139loPI    C1 2209   9.307  17.786  10.794 -0.0823  0.0204 -0.1605
  139loPI    C2 2210   9.162  17.543  11.076 -0.1612  0.2946  0.0391
  139loPI    C3 2211   9.518  17.718  11.126  0.1158 -0.1450 -0.3173
  139loPI   PO4 2212   9.221  17.622  10.599 -0.1712 -0.0516  0.3538
  139loPI   GL1 2213   9.226  17.535  10.187  0.2085 -0.0673 -0.2984
  139loPI   GL2 2214   9.311  17.370  10.051 -0.0001 -0.0860  0.2234
  139loPI   C1A 2215   8.873  17.408   9.781 -0.0288  0.1606  0.0986
  139loPI   C2A 2216   8.928  17.468   9.383 -0.0011 -0.3924  0.1366
  139loPI   C3A 2217   8.971  17.579   8.962  0.0863  0.0065  0.1834
  139loPI   C4A 2218   9.138  17.706   8.589 -0.1948 -0.3185  0.2270
  139loPI   C5A 2219   9.455  17.881   8.339  0.1036 -0.1778 -0.1410
  139loPI   C6A 2220   9.536  18.248   8.117  0.1686  0.2299 -0.3106
  139loPI   C1B 2221   9.364  17.547   9.653 -0.2099  0.2824  0.0972
  139loPI   C2B 2222   9.404  17.287   9.302 -0.1199  0.0844  0.0325
  139loPI   C3B 2223   9.436  17.420   8.917 -0.0685 -0.1753 -0.1175
  139loPI   C4B 2224   9.485  17.362   8.498  0.3142  0.1032  0.0355
  140loPI    C1 2225   2.355  15.980  10.513  0.0524 -0.2326 -0.2293
  140loPI    C2 2226   2.490  16.271  10.274 -0.4749  0.1932 -0.0304
  140loPI    C3 2227   2.606  16.257  10.657 -0.1524 -0.0933 -0.1340
  140loPI   PO4 2228   2.123  15.978  10.462  0.0685 -0.1762  0.0391
  140loPI   GL1 2229   1.982  15.717  10.112 -0.0548  0.1196  0.0221
  140loPI   GL2 2230   2.358  15.648   9.998  0.0262 -0.2278  0.2687
  140loPI   C1A 2231   2.036  15.456   9.655 -0.1320 -0.0749  0.0627
  140loPI   C2A 2232   1.806  15.376   9.242  0.0728 -0.0481  0.2082
  140loPI   C3A 2233   1.701  15.425   8.741 -0.0007 -0.0717  0.1235
  140loPI   C4A 2234   1.799  15.415   8.332  0.1262  0.5611  0.1745
  140loPI   C5A 2235   2.059  15.096   8.085  0.2877 -0.1985 -0.1274
  140loPI   C6A 2236   1.958  14.644   8.068  0.1243  0.0211  0.2457
  140loPI   C1B 2237   2.401  16.014   9.727  0.2000 -0.3553  0.0699
  140loPI   C2B 2238   2.418  16.104   9.276 -0.0777 -0.0564 -0.0632
  140loPI   C3B 2239   2.487  16.274   8.818 -0.4223  0.0224 -0.0860
  140loPI   C4B 2240   2.377  16.561   8.652 -0.2466  0.4831  0.2102
  141loPI    C1 2241  14.714  10.953  11.193  0.1333  0.0882  0.2219
  141loPI    C2 2242  14.911  10.655  11.012 -0.1000  0.0553  0.0177
  141loPI    C3 2243  15.024  10.777  11.376  0.0568 -0.2181  0.0634
  141loPI   PO4 2244  14.549  11.013  10.974  0.1207  0.1951  0.0724
  141loPI   GL1 2245  14.478  10.768  10.688 -0.0455  0.1776  0.0138
  141loPI   GL2 2246  14.578  10.511  10.626  0.1779  0.2963 -0.0802
  141loPI   C1A 2247  14.264  10.928  10.299  0.0522 -0.2726 -0.2233
  141loPI   C2A 2248  14.393  10.928   9.860  0.2079  0.0246 -0.2467
  141loPI   C3A 2249  14.437  10.744   9.462 -0.0648  0.0666 -0.1741
  141loPI   C4A 2250  14.285  10.817   9.050  0.0520 -0.0495 -0.1448
  141loPI   C5A 2251  14.179  10.865   8.619  0.2574  0.0478  0.0996
  141loPI   C6A 2252  13.980  10.863   8.149  0.2663 -0.2794  0.2098
  141loPI   C1B 2253  14.362  10.417  10.371  0.0027 -0.1492 -0.0428
  141loPI   C2B 2254  14.263  10.400   9.940  0.0788  0.2752 -0.1248
  141loPI   C3B 2255  14.305  10.172   9.520 -0.0446 -0.1595  0.2046
  141loPI   C4B 2256  14.387  10.143   9.095  0.1971  0.0205  0.3458
  142loPI    C1 2257   7.838  14.661  10.830  0.1878 -0.0974  0.0177
  142loPI    C2 2258   7.620  14.383  11.017  0.0649  0.0390  0.0786
  142loPI    C3 2259   7.997  14.452  11.132  0.0852 -0.0789  0.0846
  142loPI   PO4 2260   7.636  14.829  10.727  0.0004 -0.0483 -0.1165
  142loPI   GL1 2261   7.655  14.680  10.318  0.1548  0.1597 -0.0529
  142loPI   GL2 2262   7.448  14.464  10.162  0.1166 -0.2518  0.3869
  142loPI   C1A 2263   7.728  14.877   9.834 -0.0575  0.0789  0.2938
  142loPI   C2A 2264   7.752  15.029   9.354 -0.0362  0.1089 -0.0068
  142loPI   C3A 2265   8.024  15.286   9.089 -0.0738  0.2450  0.1601
  142loPI   C4A 2266   8.043  15.367   8.654 -0.0059  0.1046 -0.1128
  142loPI   C5A 2267   8.159  15.412   8.151 -0.0470  0.0023  0.1612
  142loPI   C6A 2268   8.206  15.523   7.715 -0.0773 -0.1972 -0.0357
  142loPI   C1B 2269   7.232  14.750   9.900 -0.0428 -0.2080 -0.1774
  142loPI   C2B 2270   7.297  14.880   9.447 -0.0815 -0.2710 -0.2024
  142loPI   C3B 2271   7.368  14.991   9.003 -0.0999  0.0178  0.0463
  142loPI   C4B 2272   7.587  15.135   8.576  0.1211  0.0972 -0.1273
  143loPI    C1 2273  13.952   1.461  10.858  0.1797  0.0810  0.3679
  143loPI    C2 2274  14.208   1.741  10.730  0.2182 -0.0459  0.1633
  143loPI    C3 2275  14.071   1.752  11.106  0.0267  0.3899  0.0872
  143loPI   PO4 2276  13.731   1.491  10.718  0.0607  0.1459 -0.0821
  143loPI   GL1 2277  13.836   1.519  10.319 -0.1745 -0.0978  0.2265
  143loPI   GL2 2278  13.727   1.845  10.279  0.1370 -0.2449  0.3771
  143loPI   C1A 2279  13.533   1.466   9.990 -0.1892 -0.1397 -0.2082
  143loPI   C2A 2280  13.406   1.386   9.533  0.1271 -0.0074  0.0537
  143loPI   C3A 2281  13.307   1.406   9.104 -0.0244 -0.0042 -0.0827
  143loPI   C4A 2282  13.411   1.681   8.791  0.0381 -0.3083 -0.0550
  143loPI   C5A 2283  13.630   2.105   8.687 -0.1848 -0.1723 -0.2784
  143loPI   C6A 2284  13.450   2.464   8.517  0.1840  0.2510  0.1543
  143loPI   C1B 2285  13.440   2.079   9.973 -0.1948  0.0775 -0.0864
  143loPI   C2B 2286  13.473   2.184   9.600 -0.0057  0.2784  0.0740
  143loPI   C3B 2287  13.338   2.182   9.135 -0.2327  0.0732 -0.1379
  143loPI   C4B 2288  13.160   2.150   8.805  0.3482  0.1000  0.2392
  144loPI    C1 2289  15.791   5.912  11.221 -0.1167 -0.1406  0.1381
  144loPI    C2 2290  15.906   5.562  11.377 -0.0360 -0.1291  0.1052
  144loPI    C3 2291  15.672   5.808  11.589 -0.0585 -0.1842  0.1448
  144loPI   PO4 2292  15.656   5.874  11.031  0.0070 -0.2616 -0.2659
  144loPI   GL1 2293  15.587   5.790  10.669  0.0453  0.0019 -0.1153
  144loPI   GL2 2294  15.869   5.838  10.605 -0.3685  0.0528 -0.1400
  144loPI   C1A 2295  15.533   5.928  10.250  0.1140 -0.5263 -0.2180
  144loPI   C2A 2296  15.552   5.853   9.800 -0.1482 -0.0273  0.3189
  144loPI   C3A 2297  15.574   5.696   9.447 -0.2284 -0.2596 -0.0600
  144loPI   C4A 2298  15.652   5.747   8.985 -0.0189 -0.1986 -0.0376
  144loPI   C5A 2299  15.621   5.349   8.690  0.1124 -0.2270 -0.1613
  144loPI   C6A 2300  15.916   5.424   8.382  0.2569  0.2237  0.1020
  144loPI   C1B 2301  15.994   5.612  10.195 -0.1377  0.1384 -0.0492
  144loPI   C2B 2302  15.910   5.535   9.782  0.2014  0.0681 -0.1916
  144loPI   C3B 2303  16.008   5.465   9.279  0.0202 -0.0759  0.1278
  144loPI   C4B 2304  16.111   5.494   8.840  0.0469 -0.0878  0.2235
  145loPI    C1 2305   4.654   2.535  11.057  0.0792 -0.1567  0.0860
  145loPI    C2 2306   4.317   2.664  11.230  0.1122  0.1707 -0.0867
  145loPI    C3 2307   4.534   2.377  11.405 -0.3776 -0.2153 -0.0913
  145loPI   PO4 2308   4.521   2.627  10.757  0.1207  0.1268  0.1730
  145loPI   GL1 2309   4.662   2.868  10.450 -0.4127 -0.1254  0.0430
  145loPI   GL2 2310   4.511   3.262  10.413  0.0238 -0.0659 -0.1674
  145loPI   C1A 2311   4.730   2.767  10.061  0.1116 -0.0664  0.2083
  145loPI   C2A 2312   4.801   2.754   9.584 -0.0809 -0.0108 -0.2930
  145loPI   C3A 2313   4.926   2.818   9.163  0.0463 -0.0278  0.2345
  145loPI   C4A 2314   4.984   3.007   8.701  0.2050  0.1266  0.0024
  145loPI   C5A 2315   5.250   2.849   8.330 -0.0275  0.1719 -0.3543
  145loPI   C6A 2316   5.528   3.034   8.019 -0.1630 -0.2894 -0.3697
  145loPI   C1B 2317   4.522   3.271  10.060 -0.2043 -0.0804 -0.4028
  145loPI   C2B 2318   4.593   3.212   9.597 -0.0582  0.0225 -0.0830
  145loPI   C3B 2319   4.466   3.131   9.244 -0.0079  0.2763  0.1896
  145loPI   C4B 2320   4.397   2.851   8.851  0.1389 -0.3092 -0.2112
  146loPI    C1 2321  12.162   7.835  11.443 -0.1322  0.3835 -0.0303
  146loPI    C2 2322  11.848   7.705  11.654  0.0406 -0.0742 -0.0454
  146loPI    C3 2323  12.106   7.963  11.818 -0.0266 -0.1437  0.1734
  146loPI   PO4 2324  12.007   7.935  11.234  0.1247 -0.3489 -0.1269
  146loPI   GL1 2325  11.958   8.000  10.818  0.0834 -0.0526  0.3091
  146loPI   GL2 2326  11.751   7.675  10.730 -0.0477  0.2158  0.2890
  146loPI   C1A 2327  12.182   7.944  10.407 -0.2240 -0.0516 -0.3738
  146loPI   C2A 2328  12.200   7.919   9.933  0.0847  0.0172  0.3947
  146loPI   C3A 2329  12.208   7.956   9.507 -0.3844 -0.2866 -0.0993
  146loPI   C4A 2330  12.174   7.913   9.106 -0.0240  0.0697  0.1027
  146loPI   C5A 2331  12.011   7.874   8.715  0.0412  0.0035 -0.1554
  146loPI   C6A 2332  12.042   7.517   8.363  0.1271  0.1141  0.0043
  146loPI   C1B 2333  11.819   7.693  10.225 -0.0832  0.1008  0.0695
  146loPI   C2B 2334  11.735   7.792   9.826 -0.1090 -0.0831  0.0419
  146loPI   C3B 2335  11.717   7.776   9.405 -0.1219 -0.0369 -0.0687
  146loPI   C4B 2336  11.599   7.754   9.001  0.2341 -0.2643  0.4115
  147loPI    C1 2337   5.025  10.966  11.046 -0.0801  0.1985 -0.0940
  147loPI    C2 2338   4.628  10.919  11.073 -0.1066  0.3954 -0.1276
  147loPI    C3 2339   4.796  11.268  11.173  0.1103  0.1644  0.3476
  147loPI   PO4 2340   5.126  10.935  10.786  0.2376 -0.1608 -0.2433
  147loPI   GL1 2341   5.309  10.984  10.393  0.0899 -0.2100  0.0310
  147loPI   GL2 2342   5.463  10.673  10.418  0.2032 -0.2204  0.0556
  147loPI   C1A 2343   5.290  10.941   9.966  0.1431 -0.2282 -0.1828
  147loPI   C2A 2344   5.214  10.829   9.632 -0.0200 -0.0387  0.1637
  147loPI   C3A 2345   5.252  10.819   9.290  0.3434 -0.0698 -0.0859
  147loPI   C4A 2346   5.273  10.788   8.850 -0.3399  0.0133 -0.2079
  147loPI   C5A 2347   5.252  10.717   8.387  0.1052  0.0985  0.1093
  147loPI   C6A 2348   5.064  10.458   7.959  0.1473  0.1855 -0.0615
  147loPI   C1B 2349   5.678  10.551   9.978  0.4194 -0.2399  0.0447
  147loPI   C2B 2350   5.706  10.537   9.522 -0.1801  0.1990 -0.0362
  147loPI   C3B 2351   5.623  10.485   9.123 -0.0715  0.0529  0.1559
  147loPI   C4B 2352   5.617  10.462   8.665  0.1819  0.1289  0.0178
  148loPI    C1 2353   6.755  10.672  11.010  0.0861  0.1581  0.1085
  148loPI    C2 2354   7.089  10.739  11.220  0.1373  0.3777 -0.0396
  148loPI    C3 2355   6.735  10.856  11.365  0.1305  0.2045  0.0871
  148loPI   PO4 2356   6.886  10.706  10.718  0.0055  0.4019 -0.1120
  148loPI   GL1 2357   6.701  10.590  10.307 -0.4638  0.0917  0.1720
  148loPI   GL2 2358   6.563  10.418  10.315  0.1428 -0.4956 -0.2115
  148loPI   C1A 2359   6.966  10.675   9.923 -0.1875  0.3393  0.3314
  148loPI   C2A 2360   7.010  10.646   9.508  0.3556 -0.0912 -0.0397
  148loPI   C3A 2361   6.980  10.643   9.067  0.0638  0.2422 -0.1830
  148loPI   C4A 2362   6.896  10.640   8.639 -0.3471  0.1489 -0.0011
  148loPI   C5A 2363   6.564  10.849   8.447 -0.1508 -0.2763 -0.0014
  148loPI   C6A 2364   6.244  11.125   8.510  0.0880 -0.1428  0.0334
  148loPI   C1B 2365   6.539  10.452   9.851  0.1037  0.0173 -0.0429
  148loPI   C2B 2366   6.548  10.503   9.413  0.0019 -0.3580 -0.1601
  148loPI   C3B 2367   6.529  10.420   8.955 -0.1243 -0.1133  0.0103
  148loPI   C4B 2368   6.456  10.339   8.581  0.0800 -0.0614 -0.0833
  149loPI    C1 2369  16.087   4.076  11.030 -0.0015 -0.0942 -0.1833
  149loPI    C2 2370  15.817   3.957  11.299  0.0197  0.0812 -0.0829
  149loPI    C3 2371  16.171   3.773  11.276 -0.0871 -0.1151 -0.1795
  149loPI   PO4 2372  16.020   4.102  10.653  0.1380  0.2816  0.2593
  149loPI   GL1 2373  15.709   3.993  10.335 -0.1098 -0.0225 -0.1036
  149loPI   GL2 2374  15.387   3.815  10.420 -0.1745 -0.1309  0.0004
  149loPI   C1A 2375  15.731   3.962   9.897 -0.0265 -0.0503  0.1286
  149loPI   C2A 2376  15.686   4.042   9.407  0.1052  0.1536  0.1875
  149loPI   C3A 2377  15.772   4.034   8.954  0.3756  0.0027 -0.0198
  149loPI   C4A 2378  15.558   3.905   8.527  0.2658  0.4160  0.1239
  149loPI   C5A 2379  15.129   3.907   8.336 -0.2105  0.1209 -0.1621
  149loPI   C6A 2380  14.769   3.712   8.109 -0.0716  0.0676 -0.0175
  149loPI   C1B 2381  15.224   3.763  10.074 -0.1012 -0.3998 -0.0434
  149loPI   C2B 2382  15.159   3.797   9.677  0.2848 -0.1747 -0.0192
  149loPI   C3B 2383  15.274   3.844   9.215 -0.1800  0.2443 -0.0907
  149loPI   C4B 2384  15.195   3.833   8.857  0.2829  0.1360 -0.1493
  150loPI    C1 2385   4.717   7.433  11.014 -0.1394  0.0363 -0.0261
  150loPI    C2 2386   4.349   7.553  10.912 -0.1455 -0.0514 -0.1084
  150loPI    C3 2387   4.436   7.479  11.295 -0.1368  0.2310 -0.0537
  150loPI   PO4 2388   4.891   7.630  10.845  0.3196  0.2822  0.1036
  150loPI   GL1 2389   4.918   7.603  10.445 -0.3792  0.2082 -0.0782
  150loPI   GL2 2390   5.179   7.846  10.403  0.0192 -0.2007 -0.0550
  150loPI   C1A 2391   4.956   7.698   9.972 -0.0220 -0.2149  0.0256
  150loPI   C2A 2392   4.927   7.829   9.577  0.0860  0.2824  0.2315
  150loPI   C3A 2393   4.916   7.722   9.238 -0.1048  0.1148  0.1034
  150loPI   C4A 2394   4.857   7.745   8.774  0.3171 -0.0624 -0.1494
  150loPI   C5A 2395   4.601   7.789   8.417 -0.4174  0.0353  0.0398
  150loPI   C6A 2396   4.313   8.105   8.315  0.0059  0.1580  0.2201
  150loPI   C1B 2397   5.389   7.995  10.046  0.2256  0.2771  0.2049
  150loPI   C2B 2398   5.375   8.014   9.606 -0.2044  0.0652  0.0256
  150loPI   C3B 2399   5.357   8.059   9.267  0.0658  0.0038 -0.0468
  150loPI   C4B 2400   5.339   7.979   8.787 -0.1571  0.0192  0.5816
  151loPI    C1 2401  12.370  13.534  10.779  0.0758  0.0494  0.0293
  151loPI    C2 2402  12.014  13.430  10.929  0.0155  0.0906 -0.0841
  151loPI    C3 2403  12.340  13.416  11.160 -0.0004 -0.2908 -0.0779
  151loPI   PO4 2404  12.292  13.488  10.516 -0.1170 -0.0200 -0.0632
  151loPI   GL1 2405  12.305  13.304  10.149 -0.4036  0.0377 -0.1608
  151loPI   GL2 2406  12.538  13.155  10.229  0.1077 -0.0769 -0.0923
  151loPI   C1A 2407  12.270  13.068   9.800  0.0407 -0.0566  0.2489
  151loPI   C2A 2408  12.469  12.955   9.366  0.1404  0.2087 -0.0627
  151loPI   C3A 2409  12.791  12.891   9.021 -0.0999  0.4346 -0.0688
  151loPI   C4A 2410  13.022  12.890   8.554  0.2399  0.0086  0.0366
  151loPI   C5A 2411  13.379  12.980   8.388  0.1935  0.0289  0.3790
  151loPI   C6A 2412  13.786  12.962   8.497 -0.0216 -0.0002 -0.1042
  151loPI   C1B 2413  12.645  13.494   9.827  0.0667 -0.0340 -0.0545
  151loPI   C2B 2414  12.698  13.417   9.337 -0.0747 -0.2501  0.3316
  151loPI   C3B 2415  12.746  13.472   8.862 -0.2393 -0.2663 -0.0524
  151loPI   C4B 2416  12.631  13.219   8.537 -0.1212 -0.2055  0.0667
  152loPI    C1 2417   7.460   9.343  11.326 -0.0669 -0.2199 -0.0128
  152loPI    C2 2418   7.140   9.505  11.505 -0.0324 -0.0683 -0.0872
  152loPI    C3 2419   7.492   9.494  11.696 -0.0265 -0.0235 -0.0951
  152loPI   PO4 2420   7.371   9.447  11.059  0.0685  0.0838  0.0205
  152loPI   GL1 2421   7.607   9.553  10.650 -0.2126  0.1602 -0.1906
  152loPI   GL2 2422   7.240   9.322  10.535 -0.1012  0.0090  0.0329
  152loPI   C1A 2423   7.788   9.418  10.259  0.1217  0.0752 -0.1880
  152loPI   C2A 2424   7.789   9.485   9.873 -0.2205 -0.1914 -0.2702
  152loPI   C3A 2425   7.770   9.457   9.434  0.1364 -0.0589  0.1780
  152loPI   C4A 2426   7.739   9.497   9.048 -0.0943 -0.1012  0.1138
  152loPI   C5A 2427   7.790   9.539   8.638 -0.1253  0.0973 -0.3071
  152loPI   C6A 2428   7.722   9.404   8.261 -0.0308 -0.1718 -0.1098
  152loPI   C1B 2429   7.327   9.318  10.062 -0.3298  0.0972 -0.0903
  152loPI   C2B 2430   7.321   9.253   9.548  0.0779  0.0883  0.0379
  152loPI   C3B 2431   7.321   9.368   9.210 -0.2010  0.0519  0.1067
  152loPI   C4B 2432   7.354   9.264   8.826  0.0983 -0.1543 -0.2759
  153loPI    C1 2433  16.410   7.537  10.893  0.0377 -0.0317  0.0008
  153loPI    C2 2434  16.680   7.245  10.930 -0.0716 -0.1166  0.1367
  153loPI    C3 2435  16.417   7.312  11.224 -0.2211 -0.0575 -0.0093
  153loPI   PO4 2436  16.613   7.698  10.760 -0.0015 -0.1817 -0.1663
  153loPI   GL1 2437  16.637   7.727  10.386 -0.0870 -0.2061  0.1604
  153loPI   GL2 2438  16.816   7.365  10.493  0.3128 -0.0985  0.0561
  153loPI   C1A 2439  16.676   7.825   9.972  0.0375  0.0997  0.0467
  153loPI   C2A 2440  16.743   7.807   9.572  0.2557  0.0648 -0.2185
  153loPI   C3A 2441  16.757   7.631   9.161  0.1335 -0.1123  0.3832
  153loPI   C4A 2442  16.745   7.712   8.697 -0.2086  0.0989 -0.2027
  153loPI   C5A 2443  16.427   7.558   8.322 -0.1089  0.0591  0.1304
  153loPI   C6A 2444  16.421   7.674   7.966  0.0824 -0.1984  0.1333
  153loPI   C1B 2445  16.646   7.282  10.021  0.0715 -0.0074  0.1612
  153loPI   C2B 2446  16.544   7.270   9.610  0.0985 -0.2144  0.2461
  153loPI   C3B 2447  16.593   7.179   9.205 -0.3431  0.1101  0.1050
  153loPI   C4B 2448  16.680   7.125   8.787  0.0975 -0.2496 -0.1878
  154loPI    C1 2449   5.934   8.376  11.543  0.0943  0.1049 -0.0812
  154loPI    C2 2450   5.949   8.008  11.701  0.0112  0.0769 -0.1377
  154loPI    C3 2451   5.606   8.214  11.706  0.0463  0.1358 -0.1467
  154loPI   PO4 2452   6.028   8.367  11.340 -0.1634  0.0860  0.1165
  154loPI   GL1 2453   6.169   8.527  10.979  0.3378 -0.0110  0.3140
  154loPI   GL2 2454   6.423   8.377  10.760 -0.2145 -0.2405  0.1712
  154loPI   C1A 2455   6.470   8.814  10.599 -0.0695  0.2094 -0.1484
  154loPI   C2A 2456   6.405   8.826  10.145  0.1826  0.0830 -0.1175
  154loPI   C3A 2457   6.343   8.841   9.681  0.0718  0.1321 -0.2554
  154loPI   C4A 2458   6.284   8.918   9.302  0.0412 -0.0226 -0.3208
  154loPI   C5A 2459   6.405   8.914   8.911 -0.2332  0.0127  0.1297
  154loPI   C6A 2460   6.249   8.864   8.476 -0.2998  0.0577  0.0060
  154loPI   C1B 2461   6.264   8.218  10.369  0.0421  0.0423  0.0199
  154loPI   C2B 2462   6.205   8.359   9.892  0.0216  0.2572 -0.1300
  154loPI   C3B 2463   6.268   8.392   9.460  0.2042  0.2071 -0.1682
  154loPI   C4B 2464   6.243   8.489   9.037 -0.4693  0.1789 -0.1563
  155loPI    C1 2465  12.850  12.780  10.860 -0.3670 -0.0661 -0.1035
  155loPI    C2 2466  12.685  12.938  11.189 -0.0024 -0.1174  0.1091
  155loPI    C3 2467  13.083  12.926  11.150 -0.0351 -0.4310 -0.1787
  155loPI   PO4 2468  12.683  12.811  10.658 -0.1617  0.2895 -0.0011
  155loPI   GL1 2469  12.595  12.565  10.282  0.0537  0.0845  0.1644
  155loPI   GL2 2470  12.296  12.509  10.366  0.1458  0.2007 -0.1898
  155loPI   C1A 2471  12.551  12.652   9.876  0.2288 -0.2336 -0.1660
  155loPI   C2A 2472  12.436  12.455   9.481  0.0441  0.0140  0.1550
  155loPI   C3A 2473  12.328  12.518   9.019 -0.2274 -0.0163 -0.0859
  155loPI   C4A 2474  12.052  12.554   8.701  0.0202 -0.1820 -0.1251
  155loPI   C5A 2475  11.806  12.294   8.504 -0.0316  0.1186 -0.0245
  155loPI   C6A 2476  11.647  12.269   8.124 -0.0425  0.0815  0.0590
  155loPI   C1B 2477  12.140  12.372   9.928  0.1386  0.1319  0.1065
  155loPI   C2B 2478  11.963  12.724   9.603 -0.2399 -0.0033 -0.1582
  155loPI   C3B 2479  12.033  12.914   9.145 -0.1182  0.0895  0.0444
  155loPI   C4B 2480  12.306  12.973   8.831  0.1167  0.1323  0.1990
  156loPI    C1 2481  15.598  17.494  10.737  0.3267 -0.0897 -0.0299
  156loPI    C2 2482  15.435  17.386  11.086  0.0494 -0.1218 -0.1666
  156loPI    C3 2483  15.778  17.592  11.081  0.0353 -0.0867  0.1247
  156loPI   PO4 2484  15.403  17.672  10.653  0.0885 -0.0313  0.0695
  156loPI   GL1 2485  15.295  17.890  10.213  0.1238  0.1508  0.1735
  156loPI   GL2 2486  15.588  17.933  10.259 -0.0204 -0.0797  0.3066
  156loPI   C1A 2487  15.071  18.122   9.937 -0.0931  0.0967 -0.0495
  156loPI   C2A 2488  15.211  18.290   9.506  0.0092 -0.1045  0.0965
  156loPI   C3A 2489  15.244  18.339   9.157 -0.0901 -0.1234 -0.0208
  156loPI   C4A 2490  15.151  18.312   8.793 -0.2776 -0.0286  0.0015
  156loPI   C5A 2491  14.863  18.316   8.434 -0.1597  0.3631  0.0894
  156loPI   C6A 2492  14.658  18.667   8.143 -0.1015 -0.0436  0.0050
  156loPI   C1B 2493  15.501  17.957   9.761  0.2600  0.3226 -0.0583
  156loPI   C2B 2494  15.631  17.970   9.227  0.3016  0.1158 -0.1846
  156loPI   C3B 2495  15.735  17.852   8.809  0.1482  0.1665  0.1444
  156loPI   C4B 2496  15.718  17.933   8.388 -0.1635 -0.3011 -0.2707
  157loPI    C1 2497  13.612  12.072  11.198 -0.2029  0.2989 -0.0577
  157loPI    C2 2498  13.827  12.405  11.250 -0.1297  0.2279  0.1000
  157loPI    C3 2499  14.006  12.047  11.262 -0.2427  0.1725  0.1480
  157loPI   PO4 2500  13.548  12.098  10.878  0.0066  0.1044 -0.1630
  157loPI   GL1 2501  13.269  12.017  10.487  0.1053 -0.0932  0.0739
  157loPI   GL2 2502  13.511  12.309  10.384 -0.1688  0.1306 -0.0363
  157loPI   C1A 2503  13.287  11.863  10.020 -0.0395  0.2180  0.1802
  157loPI   C2A 2504  13.158  11.740   9.566 -0.2350 -0.0311 -0.2016
  157loPI   C3A 2505  13.143  11.884   9.128 -0.1023 -0.0947  0.1370
  157loPI   C4A 2506  13.247  12.159   8.685 -0.3586 -0.4086 -0.0118
  157loPI   C5A 2507  13.479  12.561   8.619  0.1759 -0.1013  0.3353
  157loPI   C6A 2508  13.752  12.809   9.016 -0.1121  0.1233  0.2312
  157loPI   C1B 2509  13.286  12.356   9.986  0.0295  0.1438  0.2784
  157loPI   C2B 2510  13.167  12.232   9.515  0.0819  0.0606  0.2306
  157loPI   C3B 2511  13.346  12.336   9.162  0.1311 -0.0943  0.0283
  157loPI   C4B 2512  13.264  12.706   9.045  0.0419 -0.2245 -0.2223
  158loPI    C1 2513   0.512  12.422  10.949  0.1070  0.0393  0.0889
  158loPI    C2 2514   0.706  12.675  11.191  0.0694  0.0415  0.1168
  158loPI    C3 2515   0.311  12.624  11.229  0.0788 -0.0310  0.1195
  158loPI   PO4 2516   0.580  12.453  10.672 -0.0390  0.1776  0.1538
  158loPI   GL1 2517   0.389  12.403  10.304 -0.2763  0.1010 -0.3049
  158loPI   GL2 2518   0.555  12.189  10.221  0.1809 -0.2023  0.0069
  158loPI   C1A 2519   0.478  12.615   9.886  0.1308 -0.0367 -0.1785
  158loPI   C2A 2520   0.605  12.904   9.465  0.1762  0.2357 -0.0565
  158loPI   C3A 2521   0.727  12.926   9.027  0.2464 -0.2699  0.0358
  158loPI   C4A 2522   0.701  13.243   8.677  0.2916  0.2590 -0.2622
  158loPI   C5A 2523   0.851  13.653   8.839  0.1770 -0.1251 -0.1275
  158loPI   C6A 2524   0.930  14.099   8.980  0.2367  0.0186  0.2777
  158loPI   C1B 2525   0.698  12.146   9.760  0.0378 -0.1719 -0.2591
  158loPI   C2B 2526   0.764  12.093   9.455  0.2723 -0.0732 -0.0034
  158loPI   C3B 2527   1.034  12.099   9.143  0.3144  0.0131 -0.1102
  158loPI   C4B 2528   0.853  12.306   8.758 -0.2292  0.0171  0.1007
  159loPI    C1 2529  10.507  15.622  10.363 -0.1767  0.0817  0.0118
  159loPI    C2 2530  10.459  15.590   9.967 -0.0952  0.1413 -0.0031
  159loPI    C3 2531  10.584  15.275  10.180  0.0764  0.1721 -0.0568
  159loPI   PO4 2532  10.663  15.844  10.450  0.0694 -0.0057  0.0125
  159loPI   GL1 2533  10.593  16.165  10.174  0.1378 -0.0334 -0.1026
  159loPI   GL2 2534  10.793  16.056  10.057 -0.1010  0.1926  0.0181
  159loPI   C1A 2535  10.434  16.271   9.729 -0.1903 -0.3014  0.0447
  159loPI   C2A 2536  10.489  16.305   9.301  0.2490 -0.1640  0.1589
  159loPI   C3A 2537  10.779  16.567   9.021 -0.0259 -0.1266  0.2583
  159loPI   C4A 2538  11.172  16.488   8.924 -0.0243  0.0529  0.3470
  159loPI   C5A 2539  11.600  16.484   8.959  0.0385  0.1241  0.0343
  159loPI   C6A 2540  11.930  16.540   8.784  0.1716 -0.0178 -0.3136
  159loPI   C1B 2541  10.675  15.882   9.617  0.1644  0.1758  0.2762
  159loPI   C2B 2542  10.328  15.874   9.424  0.3875 -0.2414  0.3362
  159loPI   C3B 2543  10.121  15.985   9.127 -0.2615  0.0954 -0.6647
  159loPI   C4B 2544  10.299  16.200   8.683 -0.2890  0.0688 -0.2739
  160loPI    C1 2545   2.135  12.263  10.857  0.0044  0.2679  0.2908
  160loPI    C2 2546   2.488  12.113  10.970  0.0297  0.1538  0.0663
  160loPI    C3 2547   2.201  12.174  11.242  0.1965  0.1805  0.2391
  160loPI   PO4 2548   2.141  12.382  10.604 -0.0976 -0.3155  0.0020
  160loPI   GL1 2549   2.396  12.296  10.264 -0.1501 -0.0582  0.0915
  160loPI   GL2 2550   2.264  12.598  10.155 -0.0884  0.0075  0.0803
  160loPI   C1A 2551   2.305  12.127   9.888 -0.2123  0.0469 -0.1544
  160loPI   C2A 2552   2.303  12.096   9.404 -0.1345  0.1330  0.0725
  160loPI   C3A 2553   2.343  12.155   9.007 -0.0405 -0.0627 -0.0467
  160loPI   C4A 2554   2.309  12.165   8.547  0.3645  0.0488  0.0913
  160loPI   C5A 2555   2.309  12.223   8.174 -0.0031 -0.0247 -0.1126
  160loPI   C6A 2556   2.185  12.406   7.719 -0.0142 -0.0617  0.0095
  160loPI   C1B 2557   2.310  12.641   9.691 -0.0698  0.1734  0.0775
  160loPI   C2B 2558   2.349  12.605   9.270  0.5209  0.1935 -0.0787
  160loPI   C3B 2559   2.392  12.698   8.947  0.1953  0.2548 -0.2129
  160loPI   C4B 2560   2.405  12.654   8.520  0.2504  0.2137  0.0918
  161loPI    C1 2561  13.006  11.223  11.257  0.0830  0.1257  0.0428
  161loPI    C2 2562  13.229  11.019  11.519  0.0979 -0.1218 -0.1587
  161loPI    C3 2563  13.005  11.327  11.644  0.0762 -0.2586  0.1499
  161loPI   PO4 2564  13.079  11.277  11.141 -0.0622  0.2036 -0.0575
  161loPI   GL1 2565  13.028  11.219  10.704 -0.3799 -0.1422  0.1136
  161loPI   GL2 2566  13.398  11.071  10.601 -0.0263 -0.3800  0.3042
  161loPI   C1A 2567  12.797  11.060  10.331 -0.1315  0.2375  0.0655
  161loPI   C2A 2568  12.717  11.028   9.855  0.0664  0.3647  0.0790
  161loPI   C3A 2569  12.663  10.914   9.443 -0.0846 -0.0553 -0.0093
  161loPI   C4A 2570  12.650  10.926   8.992 -0.0152  0.1347  0.2824
  161loPI   C5A 2571  12.682  10.874   8.567 -0.2501  0.1501 -0.0128
  161loPI   C6A 2572  12.452  11.050   8.236  0.1237 -0.0042 -0.2274
  161loPI   C1B 2573  13.568  11.136  10.261  0.1745 -0.2767 -0.0116
  161loPI   C2B 2574  13.520  10.972   9.844 -0.0144  0.0361 -0.0032
  161loPI   C3B 2575  13.471  10.868   9.425  0.1287 -0.0922  0.1459
  161loPI   C4B 2576  13.443  10.696   9.007 -0.1614 -0.0834  0.1423
  162loPI    C1 2577   8.252   2.379  10.993  0.4484 -0.2870 -0.2235
  162loPI    C2 2578   8.480   2.300  11.312  0.0273 -0.1390  0.1242
  162loPI    C3 2579   8.190   2.047  11.205 -0.0166 -0.0489  0.0273
  162loPI   PO4 2580   8.338   2.512  10.741  0.0568  0.2788 -0.3954
  162loPI   GL1 2581   8.312   2.313  10.396 -0.3166 -0.0375 -0.0754
  162loPI   GL2 2582   8.404   2.053  10.293 -0.1022 -0.1909  0.2137
  162loPI   C1A 2583   8.367   2.596  10.066 -0.2737  0.1672  0.1065
  162loPI   C2A 2584   8.423   2.483   9.617  0.2532  0.1604 -0.0254
  162loPI   C3A 2585   8.526   2.477   9.235 -0.2779 -0.0156 -0.0500
  162loPI   C4A 2586   8.706   2.615   8.826 -0.1838  0.2169  0.3148
  162loPI   C5A 2587   8.407   2.533   8.412  0.1570 -0.2283  0.2059
  162loPI   C6A 2588   8.078   2.377   8.259 -0.4284  0.0543  0.1524
  162loPI   C1B 2589   8.355   2.067   9.856 -0.0577 -0.0803 -0.1481
  162loPI   C2B 2590   8.288   2.024   9.400 -0.0610 -0.1644 -0.0677
  162loPI   C3B 2591   8.284   2.106   8.900 -0.1338  0.1196  0.3064
  162loPI   C4B 2592   7.883   2.001   8.696 -0.0535 -0.3011  0.4254
  163loPI    C1 2593   3.253  13.992  10.583  0.2307  0.1609  0.0818
  163loPI    C2 2594   3.612  13.817  10.599  0.0397 -0.2418  0.0903
  163loPI    C3 2595   3.368  13.803  10.916  0.0424  0.0944  0.1107
  163loPI   PO4 2596   3.163  13.898  10.322  0.2231 -0.2189  0.1404
  163loPI   GL1 2597   3.088  13.870   9.909 -0.3053  0.1928  0.1377
  163loPI   GL2 2598   2.797  14.133   9.931 -0.2712  0.1444 -0.4532
  163loPI   C1A 2599   3.105  13.899   9.375 -0.3731  0.2178  0.1878
  163loPI   C2A 2600   3.121  13.794   8.898 -0.1803 -0.1834  0.0519
  163loPI   C3A 2601   3.061  13.832   8.566 -0.2097  0.2035  0.0343
  163loPI   C4A 2602   3.110  13.687   8.136 -0.4709 -0.1737  0.0130
  163loPI   C5A 2603   3.336  13.502   7.924 -0.1745 -0.1561  0.2314
  163loPI   C6A 2604   3.376  13.519   7.522 -0.1506  0.0955  0.1132
  163loPI   C1B 2605   2.728  14.204   9.421 -0.0509 -0.1494 -0.1087
  163loPI   C2B 2606   2.682  14.155   9.005 -0.1031  0.2259  0.0363
  163loPI   C3B 2607   2.738  14.233   8.616  0.0903  0.0758  0.0683
  163loPI   C4B 2608   2.625  14.056   8.269 -0.2227 -0.1027  0.1985
  164loPI    C1 2609  13.250   9.486  11.539  0.0183  0.1030  0.0329
  164loPI    C2 2610  13.558   9.539  11.788  0.0019 -0.0037  0.0764
  164loPI    C3 2611  13.203   9.422  11.931 -0.0315  0.0202  0.0136
  164loPI   PO4 2612  13.319   9.456  11.308  0.1132 -0.1329  0.1970
  164loPI   GL1 2613  13.464   9.394  10.880  0.3306 -0.0355  0.0715
  164loPI   GL2 2614  13.193   9.653  10.740  0.2145  0.1496  0.0126
  164loPI   C1A 2615  13.286   9.271  10.409  0.1318  0.0710 -0.1685
  164loPI   C2A 2616  13.356   9.353   9.996 -0.1047  0.1769  0.2076
  164loPI   C3A 2617  13.342   9.283   9.611 -0.2600  0.3620  0.1142
  164loPI   C4A 2618  13.371   9.325   9.153 -0.1628  0.0236 -0.3840
  164loPI   C5A 2619  13.333   9.285   8.702 -0.2321 -0.0089 -0.2042
  164loPI   C6A 2620  13.092   9.509   8.367 -0.0809 -0.2321 -0.0114
  164loPI   C1B 2621  13.023   9.679  10.340 -0.0056 -0.3536 -0.0778
  164loPI   C2B 2622  12.923   9.577  10.029  0.1420  0.1059  0.1064
  164loPI   C3B 2623  12.925   9.638   9.606  0.4373  0.1534 -0.0628
  164loPI   C4B 2624  12.853   9.566   9.188  0.1081  0.4399 -0.3043
  165loPI    C1 2625  15.153   9.168  11.304  0.1477 -0.0088 -0.1020
  165loPI    C2 2626  15.542   9.198  11.390  0.0915 -0.1533  0.2143
  165loPI    C3 2627  15.362   8.841  11.402  0.0036 -0.1260 -0.1818
  165loPI   PO4 2628  15.098   9.334  11.116  0.1573 -0.0061  0.1437
  165loPI   GL1 2629  15.096   9.202  10.718 -0.3230 -0.1197  0.2228
  165loPI   GL2 2630  15.065   9.288  10.425 -0.1120 -0.1555  0.2053
  165loPI   C1A 2631  15.540   9.382  10.479 -0.3397  0.1150 -0.0048
  165loPI   C2A 2632  15.944   9.307  10.420  0.0553  0.0234  0.0615
  165loPI   C3A 2633  15.994   9.044  10.038  0.1823  0.0130 -0.0182
  165loPI   C4A 2634  15.990   8.958   9.612 -0.1588 -0.1836  0.0151
  165loPI   C5A 2635  16.013   8.826   9.150  0.0247 -0.1976  0.1556
  165loPI   C6A 2636  15.884   8.829   8.652 -0.0646 -0.0707 -0.1405
  165loPI   C1B 2637  15.068   9.222   9.948 -0.3278  0.2093  0.1017
  165loPI   C2B 2638  15.134   9.102   9.580  0.0745  0.1908 -0.0853
  165loPI   C3B 2639  15.071   9.086   9.120 -0.0173  0.1258  0.2401
  165loPI   C4B 2640  15.248   9.000   8.700 -0.0199 -0.1287  0.2112
  166loPI    C1 2641  15.699  14.984  10.707 -0.0214 -0.0713 -0.1948
  166loPI    C2 2642  15.890  15.237  10.950 -0.0773 -0.0240 -0.1999
  166loPI    C3 2643  15.753  14.889  11.091 -0.1616  0.0294 -0.1493
  166loPI   PO4 2644  15.609  15.083  10.540 -0.0342 -0.0470  0.1171
  166loPI   GL1 2645  15.643  15.439  10.249  0.0289  0.4108 -0.3195
  166loPI   GL2 2646  15.516  15.736  10.098 -0.0521  0.0501  0.0109
  166loPI   C1A 2647  15.406  15.313   9.873 -0.1059  0.1296 -0.1657
  166loPI   C2A 2648  15.383  15.315   9.493 -0.3727  0.0759  0.0465
  166loPI   C3A 2649  15.551  15.267   9.168  0.0227 -0.0329 -0.1675
  166loPI   C4A 2650  15.692  15.270   8.737 -0.2290 -0.1399 -0.1992
  166loPI   C5A 2651  15.744  15.036   8.361 -0.1291 -0.0223 -0.2849
  166loPI   C6A 2652  15.728  14.706   8.038 -0.0530 -0.1002 -0.1281
  166loPI   C1B 2653  15.478  15.808   9.694  0.0287 -0.1304 -0.1264
  166loPI   C2B 2654  15.485  15.835   9.196 -0.1244 -0.2596  0.1216
  166loPI   C3B 2655  15.813  15.978   8.893 -0.2238  0.2731 -0.0231
  166loPI   C4B 2656  15.732  15.999   8.492 -0.0985  0.1829  0.2560
  167loPI    C1 2657  12.273  11.759  10.713 -0.1149 -0.2719  0.1960
  167loPI    C2 2658  12.466  11.860  11.049  0.0445 -0.1781  0.0780
  167loPI    C3 2659  12.118  11.663  11.069  0.0331 -0.1382  0.2980
  167loPI   PO4 2660  12.388  11.803  10.538 -0.1743  0.0435  0.1561
  167loPI   GL1 2661  12.482  11.918  10.265  0.1096  0.0728 -0.1234
  167loPI   GL2 2662  12.804  12.047  10.311 -0.2371  0.0853 -0.0207
  167loPI   C1A 2663  12.290  11.800   9.815 -0.1799  0.0843 -0.1825
  167loPI   C2A 2664  12.232  11.715   9.405  0.0615  0.0429  0.0419
  167loPI   C3A 2665  11.870  11.681   9.075  0.0482  0.3281 -0.0257
  167loPI   C4A 2666  11.922  11.781   8.632  0.0152 -0.1317  0.1582
  167loPI   C5A 2667  12.177  11.848   8.408 -0.3190  0.0582  0.1175
  167loPI   C6A 2668  12.473  11.577   8.333 -0.2881 -0.0803 -0.3096
  167loPI   C1B 2669  12.767  12.185   9.902 -0.2092  0.1287  0.0515
  167loPI   C2B 2670  12.752  11.961   9.432  0.1124 -0.2443  0.1768
  167loPI   C3B 2671  12.517  12.027   9.130  0.0886 -0.0094 -0.0107
  167loPI   C4B 2672  12.318  11.687   8.909  0.1388 -0.1003 -0.0806
  168loPI    C1 2673  10.349  17.183  10.702  0.2320 -0.1038 -0.1822
  168loPI    C2 2674  10.325  16.816  10.545 -0.2608 -0.1197 -0.0833
  168loPI    C3 2675  10.174  16.889  10.908  0.0224  0.1358 -0.0130
  168loPI   PO4 2676  10.221  17.336  10.507 -0.1944 -0.0115 -0.0421
  168loPI   GL1 2677  10.174  17.393  10.076  0.1462  0.1065 -0.3380
  168loPI   GL2 2678   9.986  17.178   9.931  0.2403  0.1102  0.0508
  168loPI   C1A 2679  10.610  17.536   9.967  0.0787 -0.0303  0.0558
  168loPI   C2A 2680  10.858  17.505   9.563  0.4149 -0.4624 -0.3109
  168loPI   C3A 2681  10.923  17.577   9.142 -0.1923 -0.2741 -0.0767
  168loPI   C4A 2682  10.723  17.537   8.720 -0.2083 -0.2017 -0.0751
  168loPI   C5A 2683  10.342  17.563   8.601 -0.1748  0.0589 -0.3900
  168loPI   C6A 2684   9.913  17.279   8.677 -0.0154  0.2747 -0.1849
  168loPI   C1B 2685   9.841  17.106   9.483  0.0471 -0.1423  0.0154
  168loPI   C2B 2686   9.759  17.031   9.076 -0.1315  0.1272 -0.0417
  168loPI   C3B 2687   9.741  16.625   8.827  0.1978 -0.0157 -0.2595
  168loPI   C4B 2688   9.851  16.253   8.533  0.0759 -0.1483 -0.0319
  169loPI    C1 2689   7.591   3.706  11.105  0.0244 -0.1785  0.1577
  169loPI    C2 2690   7.586   3.458  10.791 -0.0259 -0.0354  0.0448
  169loPI    C3 2691   7.477   3.325  11.152 -0.1090 -0.1627 -0.0264
  169loPI   PO4 2692   7.819   3.908  10.911 -0.1994 -0.0287  0.1351
  169loPI   GL1 2693   7.786   4.265  10.619  0.2644 -0.0380  0.0025
  169loPI   GL2 2694   8.043   4.188  10.472  0.0938  0.1313  0.0665
  169loPI   C1A 2695   7.629   4.439  10.279  0.2692 -0.0286  0.1927
  169loPI   C2A 2696   7.567   4.537   9.819 -0.3744  0.0699 -0.3651
  169loPI   C3A 2697   7.661   4.661   9.359 -0.1192 -0.0576 -0.0985
  169loPI   C4A 2698   7.694   4.691   8.885 -0.1764 -0.3397  0.0166
  169loPI   C5A 2699   7.633   4.653   8.471  0.2416 -0.0301 -0.2543
  169loPI   C6A 2700   7.661   4.553   7.984  0.0447  0.2426  0.1238
  169loPI   C1B 2701   7.922   4.138  10.027 -0.4769 -0.2385  0.0308
  169loPI   C2B 2702   7.961   4.296   9.531  0.3927  0.1288  0.0545
  169loPI   C3B 2703   7.949   4.253   9.070 -0.1844 -0.0089  0.1800
  169loPI   C4B 2704   8.068   4.262   8.717  0.0714  0.2067 -0.1935
  170loPI    C1 2705   8.560   4.898  11.111  0.3713  0.1734  0.0521
  170loPI    C2 2706   8.323   5.166  11.291  0.0648 -0.0814  0.0379
  170loPI    C3 2707   8.410   4.820  11.473  0.4449  0.0152  0.0495
  170loPI   PO4 2708   8.804   5.030  10.961  0.3132 -0.1870 -0.2642
  170loPI   GL1 2709   8.895   5.460  10.803 -0.1806  0.2781  0.1199
  170loPI   GL2 2710   8.624   5.530  10.837  0.1193  0.0890 -0.1159
  170loPI   C1A 2711   9.070   5.599  10.434 -0.0554  0.0687 -0.0559
  170loPI   C2A 2712   9.155   5.541   9.957 -0.0085 -0.1164  0.2681
  170loPI   C3A 2713   9.012   5.772   9.603 -0.1095 -0.0468  0.1264
  170loPI   C4A 2714   9.186   5.816   9.176 -0.2374  0.0647  0.0125
  170loPI   C5A 2715   9.216   5.845   8.725  0.1618  0.0664 -0.2296
  170loPI   C6A 2716   9.072   5.931   8.321 -0.1344 -0.1862  0.2730
  170loPI   C1B 2717   8.637   5.376  10.363  0.3866  0.2035  0.3043
  170loPI   C2B 2718   8.643   5.396   9.979  0.0194 -0.2123 -0.0884
  170loPI   C3B 2719   8.580   5.482   9.605  0.0022 -0.1573  0.0078
  170loPI   C4B 2720   8.635   5.677   9.232  0.1045  0.0018  0.2046
  171loPI    C1 2721   2.915  13.599  10.913  0.2014  0.0506 -0.1445
  171loPI    C2 2722   2.834  13.990  10.906 -0.2655 -0.0393 -0.1257
  171loPI    C3 2723   2.890  13.804  11.255  0.2471  0.0603 -0.1470
  171loPI   PO4 2724   2.704  13.610  10.607 -0.1757 -0.3376  0.0800
  171loPI   GL1 2725   2.787  13.528  10.241  0.0118  0.1857 -0.4236
  171loPI   GL2 2726   2.581  13.672  10.005  0.1519  0.0440  0.1477
  171loPI   C1A 2727   2.960  13.354   9.838 -0.0317  0.0998 -0.1774
  171loPI   C2A 2728   2.964  13.301   9.446  0.0671 -0.1304 -0.1047
  171loPI   C3A 2729   2.972  13.313   8.996 -0.1763  0.1353 -0.2746
  171loPI   C4A 2730   2.990  13.225   8.603 -0.0129 -0.4412  0.1219
  171loPI   C5A 2731   2.878  13.191   8.176  0.0202  0.0416 -0.1643
  171loPI   C6A 2732   2.839  13.098   7.752  0.0479 -0.4175 -0.2175
  171loPI   C1B 2733   2.679  13.737   9.597  0.2435  0.0382  0.1631
  171loPI   C2B 2734   2.635  13.662   9.151 -0.1004 -0.0010  0.0598
  171loPI   C3B 2735   2.634  13.689   8.822 -0.0695 -0.2041 -0.0637
  171loPI   C4B 2736   2.580  13.567   8.353 -0.0153  0.0049  0.0432
  172loPI    C1 2737   5.500   5.477  10.974  0.0046  0.1669  0.3150
  172loPI    C2 2738   5.211   5.709  11.126 -0.0504  0.1852  0.1842
  172loPI    C3 2739   5.115   5.386  10.910  0.0256  0.0279  0.3822
  172loPI   PO4 2740   5.626   5.563  10.833  0.0577  0.1927  0.0830
  172loPI   GL1 2741   5.864   5.443  10.572 -0.0201 -0.4948  0.5362
  172loPI   GL2 2742   6.060   5.595  10.351 -0.2196  0.1993  0.1995
  172loPI   C1A 2743   5.522   5.378  10.160  0.1959  0.0788  0.0635
  172loPI   C2A 2744   5.399   5.070   9.879  0.1414  0.1310  0.1425
  172loPI   C3A 2745   5.221   4.771   9.523  0.0599  0.0764  0.1465
  172loPI   C4A 2746   5.000   4.810   9.164  0.1409 -0.2703  0.0156
  172loPI   C5A 2747   4.674   4.719   8.936 -0.1418  0.3430  0.0326
  172loPI   C6A 2748   4.351   4.746   8.772 -0.1502  0.0193  0.0500
  172loPI   C1B 2749   5.927   5.857  10.002  0.1317  0.0173  0.0561
  172loPI   C2B 2750   5.875   6.152   9.705  0.1138 -0.1000  0.2576
  172loPI   C3B 2751   5.901   6.287   9.325 -0.1050 -0.2257 -0.2364
  172loPI   C4B 2752   6.163   6.495   8.982  0.0037  0.1817 -0.2719
  173loPI    C1 2753   3.723  15.343  10.521 -0.0515 -0.1553  0.0996
  173loPI    C2 2754   3.398  15.296  10.750  0.0156 -0.2551  0.1753
  173loPI    C3 2755   3.707  15.512  10.883 -0.0537 -0.0880  0.0682
  173loPI   PO4 2756   3.612  15.291  10.288  0.0643  0.3456 -0.3047
  173loPI   GL1 2757   3.730  15.391   9.885  0.2112  0.0001 -0.1267
  173loPI   GL2 2758   3.913  15.190   9.664 -0.0848 -0.0911 -0.0766
  173loPI   C1A 2759   3.430  15.482   9.551 -0.1577  0.1382  0.2185
  173loPI   C2A 2760   3.085  15.611   9.260 -0.1027  0.2278  0.0937
  173loPI   C3A 2761   2.678  15.589   8.931  0.2669 -0.3805  0.2572
  173loPI   C4A 2762   2.553  15.842   8.595 -0.3476 -0.1925  0.1661
  173loPI   C5A 2763   2.347  16.140   8.339 -0.0328  0.0564  0.1980
  173loPI   C6A 2764   2.060  16.133   8.073  0.0623  0.0322  0.2341
  173loPI   C1B 2765   3.756  15.185   9.258 -0.1324 -0.0193  0.0410
  173loPI   C2B 2766   3.744  15.044   8.813  0.1821 -0.1608  0.0109
  173loPI   C3B 2767   3.698  14.901   8.388 -0.1027 -0.0566  0.1239
  173loPI   C4B 2768   3.640  14.619   7.984 -0.0331  0.0610 -0.3994
  174loPI    C1 2769   7.432  16.128  10.432  0.0578 -0.0016  0.0209
  174loPI    C2 2770   7.340  16.469  10.618 -0.0454 -0.0067 -0.0205
  174loPI    C3 2771   7.061  16.187  10.568 -0.1212  0.1464 -0.5085
  174loPI   PO4 2772   7.438  16.186  10.199 -0.1718 -0.0883  0.1233
  174loPI   GL1 2773   7.532  16.392   9.846  0.1671 -0.3153 -0.1984
  174loPI   GL2 2774   7.166  16.317   9.723 -0.0448  0.0669 -0.2060
  174loPI   C1A 2775   7.682  16.609   9.477 -0.2124  0.3067  0.2652
  174loPI   C2A 2776   7.481  16.911   9.216  0.0011 -0.2616  0.2769
  174loPI   C3A 2777   7.126  16.929   8.916  0.0587  0.2608  0.0426
  174loPI   C4A 2778   6.609  16.877   8.907  0.0226  0.0024 -0.0539
  174loPI   C5A 2779   6.410  16.826   8.553  0.4082  0.0864  0.1751
  174loPI   C6A 2780   6.114  17.126   8.438  0.4099  0.1063 -0.0400
  174loPI   C1B 2781   7.039  16.036   9.448  0.2257 -0.1223  0.0909
  174loPI   C2B 2782   7.258  15.863   9.093  0.0110 -0.1195  0.1715
  174loPI   C3B 2783   7.410  16.070   8.650  0.0309 -0.1818 -0.0443
  174loPI   C4B 2784   7.316  16.343   8.299 -0.0828  0.3695  0.0361
  175loPI    C1 2785   7.145  16.955  10.482 -0.0560 -0.2997  0.0036
  175loPI    C2 2786   7.492  16.986  10.678  0.0347 -0.2772 -0.1588
  175loPI    C3 2787   7.154  17.116  10.848  0.1311 -0.1409 -0.0692
  175loPI   PO4 2788   7.163  17.026  10.277 -0.0371 -0.1079 -0.0519
  175loPI   GL1 2789   7.490  16.982   9.933 -0.1495 -0.0126  0.0243
  175loPI   GL2 2790   7.908  17.113   9.817 -0.0154  0.0568 -0.0328
  175loPI   C1A 2791   7.238  16.810   9.621 -0.0825  0.0731  0.2729
  175loPI   C2A 2792   7.254  16.487   9.305 -0.3303  0.0576  0.1173
  175loPI   C3A 2793   7.137  16.462   8.770 -0.1348 -0.1649  0.3118
  175loPI   C4A 2794   6.948  16.748   8.433 -0.0669 -0.0845  0.1382
  175loPI   C5A 2795   7.062  17.145   8.368 -0.1012  0.2233  0.1027
  175loPI   C6A 2796   7.256  17.470   8.269  0.0709  0.3651  0.1889
  175loPI   C1B 2797   7.855  17.057   9.456 -0.0736  0.1577 -0.1799
  175loPI   C2B 2798   7.924  16.969   8.981 -0.0170 -0.0141  0.2182
  175loPI   C3B 2799   7.975  16.781   8.564 -0.0963  0.3533 -0.2861
  175loPI   C4B 2800   7.788  16.577   8.176  0.2439 -0.0735 -0.0388
  176loPI    C1 2801   3.909   3.415  10.984  0.0343  0.2060  0.1395
  176loPI    C2 2802   4.080   3.112  11.182 -0.0343 -0.0647 -0.2052
  176loPI    C3 2803   3.712   3.232  11.280  0.0384 -0.0128  0.0094
  176loPI   PO4 2804   4.091   3.415  10.716 -0.1519  0.1896  0.0695
  176loPI   GL1 2805   4.016   3.231  10.295  0.1256  0.3887  0.1656
  176loPI   GL2 2806   3.732   3.048  10.240  0.0649  0.0035  0.3308
  176loPI   C1A 2807   4.003   3.443   9.996 -0.3473 -0.1078  0.0302
  176loPI   C2A 2808   3.953   3.482   9.469 -0.1153  0.4587  0.2558
  176loPI   C3A 2809   3.962   3.467   9.025 -0.1613  0.2467 -0.4190
  176loPI   C4A 2810   4.155   3.241   8.741 -0.1589 -0.1525  0.1033
  176loPI   C5A 2811   3.819   3.314   8.493 -0.0551 -0.0189  0.4594
  176loPI   C6A 2812   3.532   3.275   8.119 -0.1279  0.2459  0.1981
  176loPI   C1B 2813   3.641   3.092   9.797  0.1935  0.1263 -0.2893
  176loPI   C2B 2814   3.432   3.128   9.432  0.1535 -0.2396 -0.0791
  176loPI   C3B 2815   3.322   2.941   9.075  0.1257 -0.1424 -0.1809
  176loPI   C4B 2816   3.423   2.983   8.650  0.1058 -0.3474  0.2115
  177loPI    C1 2817   8.543  15.648  11.014  0.2429 -0.0137  0.0795
  177loPI    C2 2818   8.593  15.251  11.020  0.1190 -0.0294  0.0832
  177loPI    C3 2819   8.295  15.419  11.229 -0.0527  0.0318 -0.2053
  177loPI   PO4 2820   8.636  15.701  10.801  0.2287 -0.3386 -0.1103
  177loPI   GL1 2821   8.625  15.603  10.328  0.2788 -0.1551 -0.1995
  177loPI   GL2 2822   8.274  15.665  10.229  0.1200 -0.1003  0.0389
  177loPI   C1A 2823   8.732  15.415   9.925 -0.0901  0.0899  0.0031
  177loPI   C2A 2824   8.764  15.307   9.492 -0.1349 -0.0484 -0.4379
  177loPI   C3A 2825   8.827  15.387   9.171  0.3379  0.0066  0.0819
  177loPI   C4A 2826   9.023  15.448   8.834 -0.2326  0.5276  0.1592
  177loPI   C5A 2827   9.138  15.743   8.492  0.3550  0.0046  0.3152
  177loPI   C6A 2828   9.347  15.972   8.202  0.1700  0.0975 -0.2410
  177loPI   C1B 2829   8.473  15.832   9.852 -0.1196 -0.0452  0.1190
  177loPI   C2B 2830   8.409  15.651   9.408  0.0279  0.0616 -0.3555
  177loPI   C3B 2831   8.418  15.600   8.968  0.2260  0.1642 -0.4157
  177loPI   C4B 2832   8.557  15.481   8.578  0.4934  0.1520  0.0231
  178loPI    C1 2833  17.778   9.424  11.401 -0.1405 -0.1617 -0.1928
  178loPI    C2 2834  17.540   9.220  11.650 -0.2203 -0.0072 -0.1415
  178loPI    C3 2835  17.609   9.609  11.712  0.1735 -0.0852 -0.0645
  178loPI   PO4 2836  17.776   9.149  11.192 -0.3493 -0.2035  0.1389
  178loPI   GL1 2837  17.957   9.022  10.698  0.3911  0.0377  0.0517
  178loPI   GL2 2838  17.912   8.678  10.634 -0.1037  0.0654 -0.1580
  178loPI   C1A 2839  17.913   9.224  10.318 -0.0342 -0.0557 -0.0347
  178loPI   C2A 2840  17.929   9.154   9.893 -0.1420  0.1153  0.0129
  178loPI   C3A 2841  17.838   9.015   9.482  0.1152 -0.0542 -0.0462
  178loPI   C4A 2842  17.822   9.103   9.098  0.1876  0.0664  0.1899
  178loPI   C5A 2843  17.835   9.014   8.648  0.2854 -0.2305  0.4152
  178loPI   C6A 2844  17.915   9.112   8.271  0.1977  0.0466  0.0624
  178loPI   C1B 2845  18.077   8.733  10.214  0.1620  0.4030  0.2165
  178loPI   C2B 2846  17.930   8.675   9.788 -0.2713  0.2334  0.0411
  178loPI   C3B 2847  17.836   8.534   9.466  0.1948 -0.1666  0.0324
  178loPI   C4B 2848  17.760   8.644   9.000 -0.1638 -0.3907  0.2371
  179loPI    C1 2849  12.281  13.019  10.856 -0.1178  0.0988  0.0377
  179loPI    C2 2850  12.318  12.622  10.888  0.2801  0.1087 -0.2289
  179loPI    C3 2851  12.174  12.835  11.195  0.0927 -0.2353 -0.0729
  179loPI   PO4 2852  12.190  13.016  10.607  0.0682  0.2007  0.3462
  179loPI   GL1 2853  11.832  13.185  10.475 -0.0062 -0.1855 -0.0434
  179loPI   GL2 2854  11.523  13.053  10.526 -0.1210 -0.0751 -0.1187
  179loPI   C1A 2855  11.822  13.323  10.040 -0.2047 -0.2633 -0.2525
  179loPI   C2A 2856  11.751  13.153   9.686  0.2195 -0.1294  0.2206
  179loPI   C3A 2857  11.608  13.225   9.253 -0.0842  0.1381 -0.2303
  179loPI   C4A 2858  11.583  13.023   8.815  0.0121 -0.2251 -0.3215
  179loPI   C5A 2859  11.569  12.781   8.494  0.0668  0.2819  0.3182
  179loPI   C6A 2860  11.206  12.443   8.344 -0.0327  0.4384  0.2079
  179loPI   C1B 2861  11.485  13.029  10.072  0.0264  0.0090 -0.1567
  179loPI   C2B 2862  11.436  12.798   9.732 -0.2415  0.1858 -0.2603
  179loPI   C3B 2863  11.577  12.719   9.338  0.3124 -0.0865  0.2195
  179loPI   C4B 2864  11.623  12.519   8.988 -0.1430 -0.0011  0.0402
  180loPI    C1 2865   6.148  14.454  10.349 -0.0007 -0.1195  0.1239
  180loPI    C2 2866   6.379  14.472  10.674 -0.0773  0.0515  0.1697
  180loPI    C3 2867   6.067  14.223  10.665 -0.1743  0.1670  0.2928
  180loPI   PO4 2868   6.303  14.415  10.103 -0.1692 -0.0938  0.0712
  180loPI   GL1 2869   6.059  14.456   9.753  0.0468 -0.0732 -0.2475
  180loPI   GL2 2870   5.984  14.712   9.651  0.2070  0.0506  0.0820
  180loPI   C1A 2871   5.949  14.134   9.418  0.1099  0.0873  0.2706
  180loPI   C2A 2872   5.947  13.978   9.005 -0.1838 -0.2937  0.1525
  180loPI   C3A 2873   6.003  13.726   8.745  0.0208  0.0642 -0.2423
  180loPI   C4A 2874   6.323  13.454   8.669  0.1152  0.0339  0.0334
  180loPI   C5A 2875   6.663  13.150   8.696  0.0508 -0.1456  0.0479
  180loPI   C6A 2876   6.941  12.803   8.736  0.1064 -0.2257 -0.2837
  180loPI   C1B 2877   5.956  14.604   9.220 -0.2405 -0.0209 -0.1506
  180loPI   C2B 2878   6.107  14.448   8.861  0.2767 -0.0621 -0.3355
  180loPI   C3B 2879   6.038  14.553   8.502 -0.2558 -0.0704  0.1632
  180loPI   C4B 2880   6.425  14.461   8.213 -0.1829  0.0459 -0.0702
  181loPI    C1 2881   4.499  15.075  10.573 -0.0208 -0.3314 -0.0465
  181loPI    C2 2882   4.397  14.818  10.862 -0.2801 -0.0716  0.0985
  181loPI    C3 2883   4.168  15.137  10.789  0.1559  0.2456  0.0762
  181loPI   PO4 2884   4.576  14.841  10.396 -0.6282 -0.1965  0.0437
  181loPI   GL1 2885   4.515  14.952   9.961 -0.3472  0.0267  0.0162
  181loPI   GL2 2886   4.261  14.885   9.862 -0.3219 -0.1534 -0.2555
  181loPI   C1A 2887   4.694  15.008   9.590  0.1607 -0.2053 -0.0083
  181loPI   C2A 2888   4.599  15.001   9.156 -0.0200  0.2354 -0.3222
  181loPI   C3A 2889   4.581  14.844   8.700  0.3651  0.0826  0.2100
  181loPI   C4A 2890   4.664  14.682   8.274  0.0976  0.3789  0.1655
  181loPI   C5A 2891   4.862  14.466   7.867 -0.2401  0.1469 -0.1026
  181loPI   C6A 2892   5.237  14.393   7.728  0.3056 -0.2444 -0.2016
  181loPI   C1B 2893   4.200  14.790   9.442 -0.1090 -0.3001 -0.1737
  181loPI   C2B 2894   4.207  14.734   9.006 -0.1893 -0.0938 -0.1573
  181loPI   C3B 2895   4.184  14.663   8.500 -0.0709  0.0618  0.1219
  181loPI   C4B 2896   4.178  14.548   8.108  0.2787 -0.1213 -0.0805
  182loPI    C1 2897   1.329   4.410  11.005 -0.0702  0.0404  0.1940
  182loPI    C2 2898   1.621   4.164  11.126  0.0166  0.0172 -0.0583
  182loPI    C3 2899   1.238   4.061  11.179  0.0532 -0.0545  0.0707
  182loPI   PO4 2900   1.398   4.376  10.734 -0.0569 -0.1497  0.2239
  182loPI   GL1 2901   1.457   4.484  10.361 -0.1458  0.3243 -0.0030
  182loPI   GL2 2902   1.140   4.407  10.300 -0.0335  0.1578 -0.0735
  182loPI   C1A 2903   1.553   4.478   9.942  0.1426  0.0170  0.0377
  182loPI   C2A 2904   1.565   4.579   9.575  0.2062  0.0474  0.0038
  182loPI   C3A 2905   1.677   4.576   9.220 -0.0031 -0.1840 -0.1186
  182loPI   C4A 2906   1.709   4.485   8.776 -0.0043 -0.2495  0.0847
  182loPI   C5A 2907   1.664   4.282   8.405  0.1302  0.1301  0.1785
  182loPI   C6A 2908   1.858   3.939   8.120  0.0801 -0.1042 -0.0061
  182loPI   C1B 2909   1.052   4.302   9.850  0.3018 -0.1091 -0.3900
  182loPI   C2B 2910   1.129   4.392   9.484  0.0316 -0.0978 -0.1889
  182loPI   C3B 2911   1.190   4.464   9.100  0.1276  0.0956  0.1238
  182loPI   C4B 2912   1.194   4.412   8.691  0.0467  0.2543  0.0959
  183loPI    C1 2913   9.111   5.778  11.474  0.0818  0.0984  0.0436
  183loPI    C2 2914   8.818   6.004  11.626  0.1334  0.1647  0.0445
  183loPI    C3 2915   8.870   5.630  11.756  0.1554  0.2096  0.1658
  183loPI   PO4 2916   9.011   5.786  11.176 -0.0333  0.0270 -0.6743
  183loPI   GL1 2917   8.957   5.979  10.777  0.0101  0.3539 -0.0697
  183loPI   GL2 2918   9.163   6.123  10.556  0.2241 -0.2245 -0.0039
  183loPI   C1A 2919   8.714   5.915  10.356  0.1031 -0.1921 -0.1009
  183loPI   C2A 2920   8.597   5.931   9.892 -0.2559  0.0140  0.0917
  183loPI   C3A 2921   8.728   6.114   9.469 -0.2136 -0.3690 -0.0702
  183loPI   C4A 2922   8.751   6.142   8.997 -0.0693 -0.0252 -0.1629
  183loPI   C5A 2923   8.671   5.804   8.702  0.1333  0.1417 -0.1054
  183loPI   C6A 2924   8.951   5.439   8.435  0.0652 -0.0536 -0.0033
  183loPI   C1B 2925   9.102   6.106  10.098 -0.1353 -0.0244  0.1078
  183loPI   C2B 2926   9.239   6.183   9.625  0.0351  0.0130 -0.3013
  183loPI   C3B 2927   9.150   6.321   9.287 -0.1460  0.0302 -0.0551
  183loPI   C4B 2928   9.270   6.371   8.906  0.1141 -0.0116 -0.0126
  184loPI    C1 2929  12.867   0.909  11.019 -0.0668 -0.0443  0.0883
  184loPI    C2 2930  12.866   0.659  11.331 -0.0731  0.2240  0.3065
  184loPI    C3 2931  13.010   1.030  11.372  0.2835  0.1400 -0.1106
  184loPI   PO4 2932  12.682   0.820  10.862  0.0165  0.5959  0.1085
  184loPI   GL1 2933  12.448   0.669  10.471 -0.0008  0.0127 -0.1085
  184loPI   GL2 2934  12.234   0.975  10.340 -0.0156  0.0242  0.2894
  184loPI   C1A 2935  12.407   0.669  10.001  0.0764  0.0230 -0.0236
  184loPI   C2A 2936  12.425   0.752   9.660 -0.1321 -0.1648  0.1983
  184loPI   C3A 2937  12.349   0.816   9.325 -0.0333  0.1498  0.1054
  184loPI   C4A 2938  12.272   0.849   8.921  0.0202  0.2788  0.1381
  184loPI   C5A 2939  12.184   0.704   8.441 -0.0361  0.4270  0.0867
  184loPI   C6A 2940  12.371   0.411   8.303  0.1083 -0.0205  0.1209
  184loPI   C1B 2941  12.217   1.145   9.998 -0.0996  0.3984  0.1754
  184loPI   C2B 2942  12.205   1.287   9.576  0.0752 -0.2295 -0.0679
  184loPI   C3B 2943  12.152   1.279   9.147 -0.1304 -0.0981  0.0110
  184loPI   C4B 2944  12.078   1.318   8.753 -0.2301  0.1643  0.0386
  185loPI    C1 2945  13.007   8.004  11.239 -0.0561 -0.0737 -0.1695
  185loPI    C2 2946  12.647   7.959  11.407 -0.0568  0.4810 -0.0042
  185loPI    C3 2947  12.947   7.715  11.509 -0.3322  0.1346 -0.0029
  185loPI   PO4 2948  12.946   8.059  10.922  0.0411  0.3381  0.1763
  185loPI   GL1 2949  13.060   7.967  10.451  0.0406 -0.3555 -0.3485
  185loPI   GL2 2950  13.203   8.284  10.506 -0.0229  0.1613 -0.0822
  185loPI   C1A 2951  13.162   7.847  10.072  0.2949 -0.2761  0.0898
  185loPI   C2A 2952  13.129   7.646   9.706  0.0569  0.0962 -0.0593
  185loPI   C3A 2953  13.154   7.799   9.389  0.2339  0.3038  0.2655
  185loPI   C4A 2954  13.022   7.838   8.951  0.1487  0.0454  0.0634
  185loPI   C5A 2955  12.983   7.878   8.617 -0.1557 -0.0190  0.4305
  185loPI   C6A 2956  12.905   8.086   8.231  0.0470 -0.0142  0.2616
  185loPI   C1B 2957  13.138   8.360  10.031  0.0959  0.0449  0.1393
  185loPI   C2B 2958  13.152   8.300   9.572  0.1704  0.0144  0.0856
  185loPI   C3B 2959  13.174   8.306   9.166 -0.1625 -0.3712 -0.0359
  185loPI   C4B 2960  12.971   8.337   8.676 -0.0923  0.0303  0.1201
  186loPI    C1 2961   1.885   9.317  11.165  0.1097  0.0771 -0.3008
  186loPI    C2 2962   2.196   9.279  11.414 -0.1236 -0.2212 -0.0462
  186loPI    C3 2963   1.854   9.440  11.545 -0.1931 -0.2216 -0.2247
  186loPI   PO4 2964   1.988   9.388  10.912 -0.2939 -0.0067  0.0693
  186loPI   GL1 2965   1.998   9.188  10.539 -0.1865  0.0384 -0.1064
  186loPI   GL2 2966   2.200   8.867  10.491 -0.0332 -0.0007 -0.0715
  186loPI   C1A 2967   2.143   9.357  10.191  0.0024  0.4050 -0.0516
  186loPI   C2A 2968   2.300   9.280   9.804  0.3356  0.3331  0.2383
  186loPI   C3A 2969   2.353   9.171   9.310 -0.1410 -0.1373 -0.0859
  186loPI   C4A 2970   2.289   9.154   8.880  0.1203  0.0515  0.0234
  186loPI   C5A 2971   2.272   9.406   8.566  0.3642 -0.0468 -0.1688
  186loPI   C6A 2972   2.032   9.712   8.351  0.1992  0.2804 -0.0745
  186loPI   C1B 2973   1.955   8.868  10.143 -0.1361  0.0349 -0.2128
  186loPI   C2B 2974   1.854   9.053   9.752  0.1871  0.1466  0.3291
  186loPI   C3B 2975   1.855   8.908   9.273 -0.1328  0.0578  0.2995
  186loPI   C4B 2976   1.716   8.924   8.828  0.0885 -0.0699  0.0718
  187loPI    C1 2977  11.028  16.790  10.807  0.2071 -0.0832  0.2071
  187loPI    C2 2978  10.970  17.075  11.081 -0.1906  0.0862 -0.0438
  187loPI    C3 2979  10.659  16.864  10.944  0.0597 -0.2690 -0.0776
  187loPI   PO4 2980  11.197  16.817  10.666 -0.0637  0.1544 -0.1628
  187loPI   GL1 2981  11.420  16.841  10.285  0.1326  0.0811  0.1062
  187loPI   GL2 2982  11.509  17.193  10.204  0.0635  0.0149  0.1541
  187loPI   C1A 2983  11.474  16.778   9.829  0.3144 -0.0510 -0.0021
  187loPI   C2A 2984  11.675  16.750   9.390  0.1220  0.1637  0.1097
  187loPI   C3A 2985  12.134  16.643   9.286 -0.3770  0.2159  0.1607
  187loPI   C4A 2986  12.368  16.436   9.001 -0.0549 -0.2299 -0.2372
  187loPI   C5A 2987  12.407  16.031   8.942 -0.2456 -0.0632  0.0442
  187loPI   C6A 2988  12.336  15.667   8.694  0.0653  0.0044  0.0342
  187loPI   C1B 2989  11.730  17.224   9.795 -0.1481  0.0891 -0.1494
  187loPI   C2B 2990  11.709  17.223   9.407 -0.0023 -0.0134 -0.1272
  187loPI   C3B 2991  11.897  16.998   8.979  0.1374  0.1197 -0.2940
  187loPI   C4B 2992  12.354  16.983   8.827  0.0356  0.2197 -0.2726
  188loPI    C1 2993   9.080  15.541  10.530 -0.0340 -0.1198 -0.0737
  188loPI    C2 2994   9.318  15.240  10.644 -0.0977 -0.0887  0.1455
  188loPI    C3 2995   9.092  15.429  10.914 -0.1135  0.1083 -0.0038
  188loPI   PO4 2996   9.223  15.691  10.447  0.0122 -0.0508 -0.0564
  188loPI   GL1 2997   9.314  16.023  10.124  0.1774  0.0843 -0.0657
  188loPI   GL2 2998   8.980  15.898  10.041  0.3369  0.2954 -0.0663
  188loPI   C1A 2999   9.436  15.896   9.680 -0.3000  0.0487 -0.2882
  188loPI   C2A 3000   9.655  15.801   9.297  0.2803 -0.0572  0.2567
  188loPI   C3A 3001   9.894  15.561   9.088 -0.2022  0.1698 -0.1823
  188loPI   C4A 3002  10.305  15.467   8.946  0.1356 -0.0463 -0.0032
  188loPI   C5A 3003  10.594  15.114   8.612 -0.0737 -0.0898  0.0777
  188loPI   C6A 3004  10.740  14.744   8.577  0.1413 -0.0557 -0.1871
  188loPI   C1B 3005   8.937  15.783   9.586  0.3622  0.2362  0.2647
  188loPI   C2B 3006   9.070  15.858   9.140  0.2508  0.0623 -0.0313
  188loPI   C3B 3007   9.142  16.055   8.858  0.1015  0.1909 -0.2337
  188loPI   C4B 3008   9.316  16.325   8.613  0.0231  0.0686  0.2066
  189loPI    C1 3009  16.606  10.511  10.998 -0.0525  0.0600  0.0362
  189loPI    C2 3010  16.394  10.380  11.312  0.2171 -0.2703  0.0861
  189loPI    C3 3011  16.788  10.444  11.349  0.2051 -0.0650 -0.1181
  189loPI   PO4 3012  16.550  10.353  10.799 -0.0251  0.0624 -0.1286
  189loPI   GL1 3013  16.727  10.174  10.441  0.0167  0.0436 -0.2948
  189loPI   GL2 3014  16.595  10.388  10.232  0.0131 -0.1697  0.1003
  189loPI   C1A 3015  16.740   9.767  10.170 -0.1833 -0.0667  0.1458
  189loPI   C2A 3016  16.685   9.609   9.809 -0.0071  0.1751 -0.0516
  189loPI   C3A 3017  16.943   9.642   9.481  0.0560 -0.0866 -0.4484
  189loPI   C4A 3018  16.672   9.606   9.141  0.0302  0.2644  0.3069
  189loPI   C5A 3019  16.602   9.776   8.774  0.0699  0.1672 -0.1597
  189loPI   C6A 3020  16.665  10.059   8.435  0.0535 -0.0870  0.1276
  189loPI   C1B 3021  16.113  10.362  10.014  0.0541  0.0651  0.1291
  189loPI   C2B 3022  16.097  10.344   9.627 -0.1452  0.1857 -0.1007
  189loPI   C3B 3023  16.179  10.527   9.257  0.0722 -0.2761  0.1185
  189loPI   C4B 3024  15.990  10.643   8.931 -0.2649 -0.1677 -0.1273
  190loPI    C1 3025   7.898  13.924  11.031  0.1468 -0.0549 -0.4159
  190loPI    C2 3026   8.137  13.645  11.189  0.0560  0.0925 -0.0043
  190loPI    C3 3027   7.743  13.581  11.164  0.0997 -0.0421 -0.4376
  190loPI   PO4 3028   7.968  13.994  10.782  0.1770  0.1711 -0.1458
  190loPI   GL1 3029   7.910  14.293  10.498 -0.0219  0.2001 -0.0296
  190loPI   GL2 3030   8.178  14.102  10.346  0.1091 -0.1455  0.2675
  190loPI   C1A 3031   7.957  14.448  10.060 -0.0227  0.0825  0.0391
  190loPI   C2A 3032   7.686  14.420   9.665  0.0589 -0.2957 -0.0244
  190loPI   C3A 3033   7.711  14.528   9.323  0.0953  0.3225  0.1358
  190loPI   C4A 3034   7.965  14.705   9.024 -0.0631 -0.4456 -0.3271
  190loPI   C5A 3035   8.099  14.908   8.678 -0.1641  0.1500  0.1169
  190loPI   C6A 3036   8.385  14.938   8.412  0.0937 -0.1100  0.1112
  190loPI   C1B 3037   8.376  13.794  10.101 -0.1571  0.0096  0.0857
  190loPI   C2B 3038   8.459  13.655   9.722 -0.1348  0.0008 -0.1552
  190loPI   C3B 3039   8.340  13.756   9.317 -0.1206  0.0024 -0.1624
  190loPI   C4B 3040   8.038  13.590   9.007  0.0461 -0.3824  0.3786
  191loPI    C1 3041   5.907  10.849  11.190  0.3903 -0.0407 -0.0121
  191loPI    C2 3042   6.214  11.011  11.388  0.2214  0.0677  0.1638
  191loPI    C3 3043   5.956  10.773  11.580  0.1048  0.1056  0.0551
  191loPI   PO4 3044   5.971  10.773  10.948  0.0885  0.0297  0.0151
  191loPI   GL1 3045   6.053  10.956  10.528 -0.3755  0.1229 -0.1296
  191loPI   GL2 3046   6.350  10.875  10.458 -0.1423  0.0315 -0.1674
  191loPI   C1A 3047   5.822  11.013  10.159  0.1670 -0.1284 -0.1506
  191loPI   C2A 3048   5.742  11.063   9.797 -0.2596 -0.0517 -0.0362
  191loPI   C3A 3049   5.725  10.960   9.298 -0.1983 -0.0744 -0.1621
  191loPI   C4A 3050   5.721  10.976   8.915  0.1702 -0.0576 -0.1390
  191loPI   C5A 3051   5.763  10.914   8.453 -0.0077 -0.2592 -0.0096
  191loPI   C6A 3052   5.686  10.547   8.113  0.1043  0.2213 -0.4044
  191loPI   C1B 3053   6.301  10.801  10.084 -0.2701  0.0746 -0.0677
  191loPI   C2B 3054   6.177  10.713   9.637  0.2039 -0.0160 -0.3786
  191loPI   C3B 3055   6.197  10.768   9.260  0.2429  0.1283 -0.1038
  191loPI   C4B 3056   6.144  10.683   8.755  0.0703  0.1134  0.5283
  192loPI    C1 3057  12.516   4.754  11.094 -0.0773 -0.0783 -0.0850
  192loPI    C2 3058  12.438   5.128  10.974  0.0430 -0.0483 -0.0707
  192loPI    C3 3059  12.358   5.017  11.350  0.1919  0.0207 -0.0179
  192loPI   PO4 3060  12.442   4.627  10.835 -0.1782 -0.2060  0.0171
  192loPI   GL1 3061  12.684   4.502  10.545  0.1648 -0.0458  0.0564
  192loPI   GL2 3062  12.730   4.611  10.271  0.1428  0.0760 -0.1318
  192loPI   C1A 3063  12.679   4.165  10.347  0.0913 -0.1551  0.0280
  192loPI   C2A 3064  12.585   4.128   9.958  0.3039 -0.0508 -0.1743
  192loPI   C3A 3065  12.570   4.319   9.519 -0.0034  0.1667 -0.1397
  192loPI   C4A 3066  12.612   4.350   9.046 -0.1737 -0.0701 -0.2075
  192loPI   C5A 3067  12.816   4.386   8.629  0.2233  0.1184 -0.1152
  192loPI   C6A 3068  12.616   4.237   8.340  0.4418 -0.3383 -0.0060
  192loPI   C1B 3069  12.669   4.781   9.812 -0.2826 -0.3284 -0.1023
  192loPI   C2B 3070  12.642   4.786   9.422 -0.0761 -0.3335  0.2135
  192loPI   C3B 3071  12.649   4.818   8.964 -0.1785  0.4364 -0.1633
  192loPI   C4B 3072  12.813   4.888   8.626  0.1646  0.0893  0.2590
  193loPI    C1 3073  15.836   2.283  11.057 -0.3053 -0.2803  0.0417
  193loPI    C2 3074  15.676   2.543  11.314 -0.1119 -0.1972  0.0800
  193loPI    C3 3075  15.982   2.312  11.428  0.1320  0.0089 -0.1439
  193loPI   PO4 3076  15.942   2.387  10.861 -0.0107  0.3095  0.2848
  193loPI   GL1 3077  15.877   2.385  10.418  0.2884  0.0505 -0.0909
  193loPI   GL2 3078  15.938   2.735  10.459 -0.0365 -0.2032 -0.3225
  193loPI   C1A 3079  15.916   2.567   9.933  0.3133 -0.1276  0.0530
  193loPI   C2A 3080  15.958   2.615   9.565  0.1113 -0.2264  0.0698
  193loPI   C3A 3081  16.011   2.675   9.059 -0.0606 -0.0162 -0.0386
  193loPI   C4A 3082  15.876   2.616   8.557  0.2636  0.1978 -0.0483
  193loPI   C5A 3083  15.714   2.515   8.121 -0.1278 -0.3845  0.0478
  193loPI   C6A 3084  15.843   2.194   7.843 -0.0073  0.1304 -0.0925
  193loPI   C1B 3085  16.011   3.061  10.105 -0.1620  0.0050 -0.0066
  193loPI   C2B 3086  15.936   3.111   9.683  0.3019 -0.0172 -0.1386
  193loPI   C3B 3087  16.081   3.129   9.302  0.0640 -0.0885 -0.0381
  193loPI   C4B 3088  16.127   3.162   8.857  0.0589 -0.1655  0.0924
  194loPI    C1 3089  12.066  17.470  10.930 -0.0222  0.0493 -0.1795
  194loPI    C2 3090  12.047  17.807  11.146 -0.0696 -0.0785  0.0184
  194loPI    C3 3091  12.402  17.662  11.031 -0.0578  0.1335 -0.2203
  194loPI   PO4 3092  11.790  17.461  10.811 -0.2699  0.1054 -0.0208
  194loPI   GL1 3093  11.523  17.647  10.406  0.0528  0.1997  0.4917
  194loPI   GL2 3094  11.778  17.917  10.322 -0.1461  0.1327  0.1450
  194loPI   C1A 3095  11.451  17.717   9.950 -0.0989  0.2605 -0.1223
  194loPI   C2A 3096  11.466  17.651   9.540  0.1879  0.1730 -0.0023
  194loPI   C3A 3097  11.421  17.518   9.147  0.2276  0.2558  0.0912
  194loPI   C4A 3098  11.239  17.489   8.728  0.3425 -0.1706  0.3829
  194loPI   C5A 3099  11.470  17.662   8.380 -0.1225 -0.0181 -0.1677
  194loPI   C6A 3100  11.608  17.680   8.000  0.4702  0.0052  0.1217
  194loPI   C1B 3101  11.990  17.745   9.941 -0.2390 -0.1891 -0.4746
  194loPI   C2B 3102  11.998  17.581   9.544 -0.2197 -0.0801  0.0890
  194loPI   C3B 3103  12.103  17.572   9.038  0.0760 -0.2251  0.1266
  194loPI   C4B 3104  12.268  17.550   8.572  0.0181 -0.0178 -0.2758
  195loPI    C1 3105   1.845  11.849  10.915 -0.1368  0.1985  0.1446
  195loPI    C2 3106   1.808  11.794  11.309 -0.0147  0.0950  0.1422
  195loPI    C3 3107   1.738  12.154  11.151 -0.0161  0.1490  0.2646
  195loPI   PO4 3108   1.776  11.633  10.826  0.0200 -0.1087  0.1530
  195loPI   GL1 3109   1.715  11.535  10.403 -0.0954 -0.0096 -0.0518
  195loPI   GL2 3110   1.757  11.315  10.296 -0.0658 -0.0449 -0.0830
  195loPI   C1A 3111   2.065  11.725  10.069 -0.1861  0.2510 -0.0674
  195loPI   C2A 3112   2.208  11.552   9.686 -0.4240 -0.0994  0.1018
  195loPI   C3A 3113   2.256  11.569   9.250  0.1185  0.1655 -0.0626
  195loPI   C4A 3114   2.085  11.705   8.887  0.3256 -0.2238 -0.1539
  195loPI   C5A 3115   2.164  11.746   8.424  0.2338 -0.3218  0.2293
  195loPI   C6A 3116   2.216  11.413   8.126 -0.1821  0.1823  0.0653
  195loPI   C1B 3117   1.637  11.412   9.875  0.1639  0.0224  0.1581
  195loPI   C2B 3118   1.703  11.258   9.428 -0.2681  0.0900  0.0496
  195loPI   C3B 3119   1.715  11.378   8.985 -0.0616  0.0411  0.0246
  195loPI   C4B 3120   1.732  11.460   8.502  0.1020  0.1179  0.3802
  196loPI    C1 3121   2.646  12.502  10.732  0.2252 -0.0090  0.1753
  196loPI    C2 3122   2.826  12.743  10.997  0.0149  0.3590 -0.0084
  196loPI    C3 3123   2.429  12.691  11.010  0.0762 -0.1269  0.1406
  196loPI   PO4 3124   2.750  12.615  10.447 -0.1518 -0.0797 -0.0838
  196loPI   GL1 3125   2.740  12.596  10.072  0.0224  0.0699  0.1639
  196loPI   GL2 3126   2.816  12.278   9.953 -0.2860  0.0569 -0.1441
  196loPI   C1A 3127   2.774  12.899   9.665  0.0468  0.1329 -0.0369
  196loPI   C2A 3128   2.954  12.786   9.267  0.1405 -0.1909 -0.0742
  196loPI   C3A 3129   2.914  12.780   8.866  0.0404 -0.1592 -0.2738
  196loPI   C4A 3130   2.901  12.747   8.474  0.0938  0.0649 -0.0794
  196loPI   C5A 3131   3.059  12.753   8.033 -0.0472 -0.0697 -0.1241
  196loPI   C6A 3132   3.041  12.602   7.549 -0.2109  0.0432 -0.1127
  196loPI   C1B 3133   2.754  12.326   9.516 -0.1134  0.0846  0.0051
  196loPI   C2B 3134   2.760  12.334   9.152  0.0704 -0.0253 -0.2275
  196loPI   C3B 3135   2.789  12.232   8.753  0.1291  0.2285 -0.1430
  196loPI   C4B 3136   2.784  12.326   8.310 -0.0348 -0.0675  0.0142
  197loPI    C1 3137   5.481  16.039  10.427  0.1404  0.2434 -0.0827
  197loPI    C2 3138   5.746  16.045  10.727  0.0770  0.1527 -0.0243
  197loPI    C3 3139   5.354  16.063  10.805  0.0572  0.0475 -0.0966
  197loPI   PO4 3140   5.575  15.858  10.244  0.0080  0.2597 -0.1932
  197loPI   GL1 3141   5.743  15.825   9.766 -0.2428 -0.1271 -0.0551
  197loPI   GL2 3142   5.598  15.549   9.803  0.0733  0.1671 -0.1837
  197loPI   C1A 3143   5.684  15.831   9.314  0.1653 -0.3051 -0.0442
  197loPI   C2A 3144   5.725  15.842   8.907 -0.3288 -0.1078 -0.0196
  197loPI   C3A 3145   5.703  15.696   8.545  0.2087 -0.1375  0.0671
  197loPI   C4A 3146   5.822  15.481   8.198  0.2153  0.1132 -0.0478
  197loPI   C5A 3147   5.625  15.637   7.854 -0.0361  0.0254  0.0493
  197loPI   C6A 3148   5.235  15.699   7.667  0.0580  0.1184 -0.0872
  197loPI   C1B 3149   5.593  15.354   9.361 -0.1104 -0.0163 -0.1949
  197loPI   C2B 3150   5.709  15.357   8.987  0.1520  0.1352  0.0766
  197loPI   C3B 3151   5.512  15.237   8.641  0.4822 -0.0241  0.0523
  197loPI   C4B 3152   5.432  15.238   8.238 -0.0234 -0.1243  0.0846
  198loPI    C1 3153   3.080   4.651  10.850  0.1581  0.1735  0.0884
  198loPI    C2 3154   2.835   4.910  11.030 -0.0098 -0.0212  0.1437
  198loPI    C3 3155   2.985   4.602  11.235  0.0122 -0.0930  0.0208
  198loPI   PO4 3156   2.962   4.535  10.685 -0.3487 -0.1265 -0.2618
  198loPI   GL1 3157   3.029   4.345  10.348 -0.3634  0.0392 -0.2563
  198loPI   GL2 3158   2.761   4.099  10.357  0.3365 -0.2402 -0.1711
  198loPI   C1A 3159   3.089   4.537  10.015  0.1655  0.0872 -0.0000
  198loPI   C2A 3160   3.017   4.407   9.600  0.0070  0.0312 -0.0641
  198loPI   C3A 3161   2.887   4.538   9.126 -0.1073 -0.0499 -0.2460
  198loPI   C4A 3162   2.897   4.549   8.749 -0.1285  0.2959 -0.0080
  198loPI   C5A 3163   3.122   4.511   8.483  0.1732  0.2223 -0.1547
  198loPI   C6A 3164   3.451   4.697   8.259  0.3019  0.1376  0.1494
  198loPI   C1B 3165   2.883   4.046   9.904 -0.1636 -0.0063 -0.0098
  198loPI   C2B 3166   2.842   3.992   9.408 -0.0937  0.1909  0.0966
  198loPI   C3B 3167   3.030   3.946   9.029 -0.0352  0.1888  0.1219
  198loPI   C4B 3168   3.257   4.270   8.867 -0.0282 -0.1154 -0.0541
  199loPI    C1 3169   7.569   6.312  11.405 -0.0782  0.0181  0.0502
  199loPI    C2 3170   7.676   6.531  11.723 -0.3035  0.1487  0.0378
  199loPI    C3 3171   7.421   6.226  11.767  0.0593 -0.1575  0.0661
  199loPI   PO4 3172   7.717   6.533  11.187  0.1558 -0.1062  0.0782
  199loPI   GL1 3173   7.705   6.822  10.819  0.0378 -0.0012  0.0175
  199loPI   GL2 3174   7.910   6.994  10.620  0.1256  0.3690 -0.2663
  199loPI   C1A 3175   7.504   6.896  10.429 -0.0822 -0.0422 -0.0799
  199loPI   C2A 3176   7.513   6.943  10.050 -0.2648 -0.1329  0.1864
  199loPI   C3A 3177   7.509   7.047   9.659 -0.0135 -0.0612  0.1590
  199loPI   C4A 3178   7.518   6.991   9.163 -0.1406  0.1584  0.1400
  199loPI   C5A 3179   7.486   7.142   8.752  0.0422  0.4201  0.0740
  199loPI   C6A 3180   7.437   6.941   8.396  0.0472 -0.1107  0.3132
  199loPI   C1B 3181   7.987   7.126  10.213  0.3373  0.2050  0.4014
  199loPI   C2B 3182   8.020   7.228   9.720 -0.1708  0.0718 -0.1910
  199loPI   C3B 3183   7.991   7.235   9.326  0.2147  0.3827 -0.0582
  199loPI   C4B 3184   7.941   7.215   8.932 -0.0675 -0.2260  0.0727
  200loPI    C1 3185   4.455  16.915  10.704 -0.0030  0.2573  0.1306
  200loPI    C2 3186   4.709  16.772  10.978 -0.0918 -0.1589  0.0023
  200loPI    C3 3187   4.315  16.763  11.046 -0.0994  0.0205 -0.0122
  200loPI   PO4 3188   4.438  16.810  10.387 -0.0450  0.1771 -0.1048
  200loPI   GL1 3189   4.579  17.001   9.989 -0.1946  0.1450  0.1260
  200loPI   GL2 3190   4.830  16.857  10.022  0.1336  0.2879  0.0115
  200loPI   C1A 3191   4.409  16.953   9.679  0.0455 -0.1190 -0.0676
  200loPI   C2A 3192   4.517  16.591   9.345  0.0040  0.4718  0.1996
  200loPI   C3A 3193   4.259  16.320   8.986 -0.2671 -0.0045 -0.1412
  200loPI   C4A 3194   4.017  16.438   8.742  0.1649 -0.1484  0.3594
  200loPI   C5A 3195   3.656  16.478   8.512 -0.0961  0.2012  0.3849
  200loPI   C6A 3196   3.543  16.621   8.174 -0.0437  0.3084  0.1303
  200loPI   C1B 3197   4.918  16.652   9.583  0.2151 -0.0217 -0.0472
  200loPI   C2B 3198   4.953  16.531   9.103  0.1394 -0.1459 -0.1080
  200loPI   C3B 3199   5.060  16.582   8.710 -0.1484  0.2734  0.1797
  200loPI   C4B 3200   5.254  16.513   8.331 -0.3628  0.0413  0.0504
  201loPI    C1 3201   7.083   3.623  11.062 -0.1050  0.0063 -0.1106
  201loPI    C2 3202   6.765   3.546  11.291 -0.0590  0.0087 -0.0459
  201loPI    C3 3203   7.126   3.586  11.457 -0.0293  0.0337 -0.1161
  201loPI   PO4 3204   7.094   3.455  10.897  0.1288 -0.0219 -0.0003
  201loPI   GL1 3205   6.923   3.283  10.461  0.0861  0.1400 -0.2000
  201loPI   GL2 3206   6.860   3.080  10.142 -0.0268 -0.1639  0.0361
  201loPI   C1A 3207   7.262   3.409  10.107 -0.4172 -0.0215 -0.0754
  201loPI   C2A 3208   7.362   3.454   9.656 -0.0378  0.5179  0.2974
  201loPI   C3A 3209   7.410   3.586   9.334 -0.0673  0.0610  0.2011
  201loPI   C4A 3210   7.330   3.726   8.884 -0.2004  0.0715 -0.2349
  201loPI   C5A 3211   7.300   3.655   8.451  0.1207  0.1691 -0.2272
  201loPI   C6A 3212   7.373   3.806   8.193 -0.0375  0.0517 -0.1519
  201loPI   C1B 3213   6.885   3.263   9.806  0.0224  0.2462  0.0081
  201loPI   C2B 3214   6.956   3.356   9.415 -0.0378 -0.0521  0.1805
  201loPI   C3B 3215   6.983   3.443   9.061 -0.0394 -0.0805 -0.1562
  201loPI   C4B 3216   6.790   3.508   8.652 -0.2653 -0.1198  0.0032
  202loPI    C1 3217   5.009  10.016  11.111 -0.1532  0.0235  0.0517
  202loPI    C2 3218   4.741  10.015  11.408 -0.1028  0.0080  0.0975
  202loPI    C3 3219   5.131  10.042  11.491 -0.0925  0.0751  0.0289
  202loPI   PO4 3220   4.915   9.895  10.934  0.0415  0.2892 -0.1221
  202loPI   GL1 3221   4.888   9.830  10.530 -0.0616 -0.0131 -0.2227
  202loPI   GL2 3222   4.685   9.579  10.338  0.3161  0.1455 -0.0173
  202loPI   C1A 3223   5.181   9.828  10.239 -0.1161  0.0248  0.4951
  202loPI   C2A 3224   5.200   9.921   9.747  0.0809  0.0379 -0.0396
  202loPI   C3A 3225   5.159   9.884   9.364  0.3038 -0.2798 -0.0579
  202loPI   C4A 3226   5.221   9.889   9.004 -0.1302 -0.2186  0.1359
  202loPI   C5A 3227   5.109   9.779   8.740 -0.1485  0.0731 -0.2381
  202loPI   C6A 3228   5.017   9.594   8.365 -0.0215 -0.1595 -0.1575
  202loPI   C1B 3229   4.690   9.719   9.879  0.0675 -0.1275 -0.3229
  202loPI   C2B 3230   4.713   9.750   9.570 -0.0392  0.0418  0.0987
  202loPI   C3B 3231   4.727   9.677   9.195  0.0362 -0.1159  0.0878
  202loPI   C4B 3232   4.633   9.604   8.831 -0.1703  0.0234  0.1007
  203loPI    C1 3233   4.690   4.727  11.046  0.3134 -0.2342 -0.2966
  203loPI    C2 3234   4.700   4.329  11.006  0.2991 -0.2868  0.1719
  203loPI    C3 3235   4.926   4.508  11.284 -0.0139 -0.0091  0.2538
  203loPI   PO4 3236   4.703   4.840  10.776 -0.0241 -0.1417  0.0817
  203loPI   GL1 3237   4.816   4.887  10.358  0.0776 -0.1042  0.2737
  203loPI   GL2 3238   5.216   4.890  10.413 -0.3118 -0.0803  0.0383
  203loPI   C1A 3239   4.865   5.045   9.970 -0.2369 -0.1970 -0.0368
  203loPI   C2A 3240   4.818   5.043   9.619 -0.2724  0.2606 -0.0284
  203loPI   C3A 3241   4.937   5.284   9.257  0.0486 -0.1205  0.1812
  203loPI   C4A 3242   4.879   5.234   8.873 -0.3029  0.0184  0.2318
  203loPI   C5A 3243   5.035   4.863   8.659 -0.2556  0.0421 -0.0997
  203loPI   C6A 3244   5.163   4.877   8.243  0.0357  0.1800  0.3497
  203loPI   C1B 3245   5.216   4.635  10.006 -0.1909 -0.5653  0.1628
  203loPI   C2B 3246   5.106   4.331   9.753 -0.4242 -0.1514  0.1717
  203loPI   C3B 3247   4.983   4.332   9.272 -0.0422  0.2117 -0.0340
  203loPI   C4B 3248   5.064   4.402   8.843 -0.0684  0.0507  0.2515
  204loPI    C1 3249  10.068  14.156  10.932  0.0408 -0.1390  0.0315
  204loPI    C2 3250   9.825  14.145  10.614 -0.1651 -0.2663  0.1905
  204loPI    C3 3251   9.747  14.394  10.918  0.1493  0.0096  0.0512
  204loPI   PO4 3252  10.274  14.257  10.854  0.1368  0.0950 -0.5220
  204loPI   GL1 3253  10.241  14.331  10.459 -0.0670  0.1954  0.2254
  204loPI   GL2 3254  10.034  14.569  10.470  0.1858  0.1602  0.1785
  204loPI   C1A 3255  10.247  13.968  10.087  0.0288  0.0416 -0.1133
  204loPI   C2A 3256  10.457  13.708   9.726  0.3134  0.0323 -0.1311
  204loPI   C3A 3257  10.254  13.470   9.322 -0.2264 -0.0421 -0.1454
  204loPI   C4A 3258  10.180  13.544   8.937 -0.1181 -0.0016 -0.1372
  204loPI   C5A 3259  10.311  13.540   8.605 -0.1023  0.1143 -0.0711
  204loPI   C6A 3260  10.189  13.194   8.434  0.0018 -0.0333 -0.0806
  204loPI   C1B 3261   9.902  14.354  10.093  0.0039 -0.1163  0.3335
  204loPI   C2B 3262   9.878  14.476   9.745 -0.2153 -0.2436 -0.2682
  204loPI   C3B 3263   9.510  14.706   9.405  0.3545 -0.1832  0.0243
  204loPI   C4B 3264   9.550  14.802   9.003  0.1936  0.0717  0.1109
  205loPI    C1 3265  17.727  15.988  10.763  0.0005 -0.0617 -0.0449
  205loPI    C2 3266  17.654  16.323  10.970  0.0087 -0.0381 -0.0803
  205loPI    C3 3267  17.646  15.969  11.155 -0.1606 -0.0328 -0.0762
  205loPI   PO4 3268  17.558  16.063  10.491  0.0778 -0.1688  0.0183
  205loPI   GL1 3269  17.415  16.296  10.165  0.0158 -0.0651 -0.1963
  205loPI   GL2 3270  17.138  16.259   9.943  0.1959  0.1726 -0.0517
  205loPI   C1A 3271  17.709  16.212   9.909  0.1421 -0.1051 -0.1280
  205loPI   C2A 3272  17.866  16.479   9.590 -0.0046 -0.0221  0.1956
  205loPI   C3A 3273  17.700  16.727   9.245 -0.2081 -0.0171 -0.1738
  205loPI   C4A 3274  17.738  17.063   8.990 -0.2971  0.0535 -0.0930
  205loPI   C5A 3275  18.087  17.471   8.903 -0.1177 -0.0237 -0.0459
  205loPI   C6A 3276  18.545  17.569   8.977 -0.2900  0.3645 -0.1010
  205loPI   C1B 3277  16.843  16.433   9.586 -0.1467 -0.1803 -0.3196
  205loPI   C2B 3278  16.853  16.227   9.175 -0.0554  0.1923 -0.3820
  205loPI   C3B 3279  17.208  16.139   8.861  0.0999 -0.1792 -0.3230
  205loPI   C4B 3280  17.471  16.215   8.587 -0.0263  0.1859 -0.0924
  206loPI    C1 3281   5.417  14.318  10.531 -0.1997 -0.1149 -0.2190
  206loPI    C2 3282   5.611  14.191  10.857  0.1424  0.2742 -0.2621
  206loPI    C3 3283   5.233  14.321  10.886 -0.0551 -0.2966 -0.1411
  206loPI   PO4 3284   5.646  14.242  10.304 -0.1202 -0.2034  0.0026
  206loPI   GL1 3285   5.599  14.329   9.853 -0.1902 -0.1327 -0.1185
  206loPI   GL2 3286   5.682  13.998   9.809  0.2624 -0.1134 -0.2391
  206loPI   C1A 3287   5.516  14.382   9.496  0.0675  0.1254 -0.1848
  206loPI   C2A 3288   5.538  14.397   9.099 -0.1642  0.0002  0.1481
  206loPI   C3A 3289   5.565  14.171   8.693 -0.0184 -0.1195 -0.3592
  206loPI   C4A 3290   5.508  14.177   8.207 -0.1477  0.0094  0.0578
  206loPI   C5A 3291   5.538  13.970   7.768  0.2330  0.4768  0.5103
  206loPI   C6A 3292   5.724  14.250   7.537 -0.1841 -0.0282  0.0440
  206loPI   C1B 3293   5.560  13.838   9.360  0.1350  0.1657 -0.1672
  206loPI   C2B 3294   5.414  13.667   8.919 -0.1472 -0.0708 -0.0754
  206loPI   C3B 3295   5.468  13.726   8.490  0.0813  0.0176 -0.0273
  206loPI   C4B 3296   5.518  13.496   8.120  0.2349 -0.1531 -0.0020
  207loPI    C1 3297   1.470   9.174  11.297  0.1421 -0.1141 -0.1458
  207loPI    C2 3298   1.236   8.937  11.519  0.1181 -0.0050 -0.0541
  207loPI    C3 3299   1.633   8.926  11.566  0.1108  0.0460  0.0226
  207loPI   PO4 3300   1.427   9.177  10.990  0.1336  0.4708  0.0174
  207loPI   GL1 3301   1.519   9.244  10.626 -0.0726  0.1250 -0.0036
  207loPI   GL2 3302   1.430   8.904  10.578  0.0246 -0.0957  0.0097
  207loPI   C1A 3303   1.576   9.283  10.240 -0.4426 -0.1558  0.2114
  207loPI   C2A 3304   1.421   9.303   9.872 -0.0681 -0.1798  0.0369
  207loPI   C3A 3305   1.411   9.261   9.444 -0.0827 -0.0762  0.2223
  207loPI   C4A 3306   1.351   9.206   8.940  0.0713 -0.1920 -0.0038
  207loPI   C5A 3307   1.184   9.169   8.581 -0.0741  0.2020 -0.0932
  207loPI   C6A 3308   0.999   8.769   8.274 -0.0605 -0.3993  0.4725
  207loPI   C1B 3309   1.082   9.047  10.304  0.0863  0.3938 -0.0025
  207loPI   C2B 3310   1.008   9.027   9.804  0.0487 -0.3286  0.0119
  207loPI   C3B 3311   0.900   9.057   9.369 -0.0383 -0.0105  0.2564
  207loPI   C4B 3312   0.909   8.974   8.985 -0.1146  0.1375 -0.2297
  208loPI    C1 3313   3.633   6.821  10.907  0.2295  0.0776 -0.0725
  208loPI    C2 3314   3.549   6.711  11.282  0.3077 -0.2654 -0.1518
  208loPI    C3 3315   3.899   6.886  11.198  0.2523 -0.1044 -0.0515
  208loPI   PO4 3316   3.535   6.582  10.783 -0.1037  0.1473 -0.3127
  208loPI   GL1 3317   3.721   6.485  10.418 -0.2034 -0.1721 -0.0228
  208loPI   GL2 3318   3.413   6.636  10.198 -0.1209 -0.2641  0.1200
  208loPI   C1A 3319   3.904   6.512   9.953 -0.0931  0.1681 -0.0207
  208loPI   C2A 3320   4.213   6.512   9.662 -0.0886 -0.1264 -0.0161
  208loPI   C3A 3321   4.428   6.432   9.293  0.2974 -0.1601 -0.3716
  208loPI   C4A 3322   4.653   6.245   8.898  0.2536 -0.0958  0.0674
  208loPI   C5A 3323   4.846   6.021   8.548  0.0788 -0.0967 -0.1620
  208loPI   C6A 3324   5.263   5.897   8.381  0.2446  0.3268  0.1302
  208loPI   C1B 3325   3.448   6.768   9.799 -0.2556 -0.0380  0.3121
  208loPI   C2B 3326   3.260   6.869   9.360 -0.1501  0.0545  0.1904
  208loPI   C3B 3327   3.291   6.660   9.115  0.0022 -0.0832  0.0409
  208loPI   C4B 3328   3.365   6.446   8.742  0.0921  0.2086 -0.0844
  209loPI    C1 3329   9.782   8.862  11.531  0.0459 -0.2186 -0.1706
  209loPI    C2 3330   9.986   8.792  11.868  0.0933 -0.1468 -0.1841
  209loPI    C3 3331   9.588   8.748  11.862  0.0692  0.0426 -0.0643
  209loPI   PO4 3332  10.018   8.889  11.293 -0.4366 -0.2987 -0.0903
  209loPI   GL1 3333  10.140   9.044  10.828  0.0859  0.0379  0.0015
  209loPI   GL2 3334  10.398   8.867  10.679  0.1646 -0.0721  0.0501
  209loPI   C1A 3335   9.972   9.049  10.509 -0.1432 -0.0828 -0.5298
  209loPI   C2A 3336   9.997   9.004  10.126 -0.0169 -0.0560  0.2785
  209loPI   C3A 3337  10.045   8.956   9.699 -0.1755  0.1658  0.1436
  209loPI   C4A 3338   9.957   9.039   9.235 -0.1479  0.3154  0.0495
  209loPI   C5A 3339   9.917   9.012   8.762 -0.0295  0.0626 -0.3863
  209loPI   C6A 3340   9.985   9.010   8.331 -0.1815  0.0030 -0.3799
  209loPI   C1B 3341  10.507   8.797  10.223 -0.0586  0.2025  0.0016
  209loPI   C2B 3342  10.442   8.740   9.828  0.0346  0.0053  0.1107
  209loPI   C3B 3343  10.490   8.681   9.438  0.1798  0.2300 -0.3680
  209loPI   C4B 3344  10.314   8.732   9.055 -0.2881  0.0688  0.0214
  210loPI    C1 3345  15.270  13.887  10.730 -0.0308 -0.2495 -0.0097
  210loPI    C2 3346  15.537  13.853  11.026  0.0997 -0.1062 -0.1095
  210loPI    C3 3347  15.157  13.742  11.086  0.0997  0.0243  0.1463
  210loPI   PO4 3348  15.315  14.137  10.633  0.1841  0.0561 -0.0417
  210loPI   GL1 3349  15.480  14.314  10.332  0.3736 -0.1451 -0.1434
  210loPI   GL2 3350  15.565  14.657  10.236 -0.0435 -0.0192 -0.0136
  210loPI   C1A 3351  15.524  14.300   9.926 -0.1242 -0.0051 -0.2096
  210loPI   C2A 3352  15.656  14.308   9.526  0.2080 -0.0115  0.1206
  210loPI   C3A 3353  15.638  14.146   9.092  0.0988  0.0165  0.3156
  210loPI   C4A 3354  15.733  14.037   8.640 -0.0497 -0.1343 -0.0224
  210loPI   C5A 3355  15.380  13.807   8.437  0.2006 -0.2185  0.1092
  210loPI   C6A 3356  14.900  13.957   8.525  0.4436  0.6394  0.0115
  210loPI   C1B 3357  15.261  14.865   9.901 -0.0212 -0.1176 -0.1515
  210loPI   C2B 3358  15.057  14.903   9.515  0.0686 -0.1755 -0.2221
  210loPI   C3B 3359  15.043  15.026   9.055 -0.0611  0.1801 -0.1842
  210loPI   C4B 3360  14.813  14.963   8.669 -0.0734 -0.2866 -0.0316
  211loPI    C1 3361   3.292   9.850  10.949 -0.0704  0.0939 -0.2262
  211loPI    C2 3362   3.249  10.232  10.837  0.1940  0.1529 -0.1338
  211loPI    C3 3363   3.020  10.082  11.129  0.1594  0.2697 -0.1005
  211loPI   PO4 3364   3.413   9.735  10.706 -0.0536  0.0157  0.1918
  211loPI   GL1 3365   3.597  10.112  10.412 -0.0219  0.0887  0.0383
  211loPI   GL2 3366   3.811   9.965  10.238  0.0241 -0.0619  0.1284
  211loPI   C1A 3367   3.421  10.179   9.967  0.1188  0.1537 -0.3560
  211loPI   C2A 3368   3.461  10.133   9.584 -0.1116 -0.2690  0.3055
  211loPI   C3A 3369   3.416  10.038   9.180  0.3047 -0.0274  0.0292
  211loPI   C4A 3370   3.244  10.075   8.752  0.1748 -0.0184  0.0189
  211loPI   C5A 3371   3.127  10.075   8.346 -0.0161  0.0515 -0.0361
  211loPI   C6A 3372   2.780   9.989   8.156  0.0240 -0.1205 -0.0207
  211loPI   C1B 3373   3.801   9.775   9.879  0.0503  0.1112  0.1142
  211loPI   C2B 3374   3.772   9.684   9.411  0.1662  0.0851 -0.0673
  211loPI   C3B 3375   3.728   9.726   8.916 -0.1439  0.1990  0.0453
  211loPI   C4B 3376   3.621   9.749   8.488  0.1599  0.1285  0.1679
  212loPI    C1 3377   1.755   2.838  10.988  0.0913 -0.0726  0.1485
  212loPI    C2 3378   2.104   3.007  10.890  0.1459 -0.1326  0.2375
  212loPI    C3 3379   2.001   2.970  11.275  0.0636 -0.1598  0.2130
  212loPI   PO4 3380   1.510   2.882  10.873 -0.0437 -0.3097  0.0951
  212loPI   GL1 3381   1.189   3.004  10.514 -0.3524  0.4565  0.4171
  212loPI   GL2 3382   1.191   3.297  10.364 -0.2540  0.0948  0.0573
  212loPI   C1A 3383   0.889   2.783  10.213 -0.2092 -0.1357 -0.4314
  212loPI   C2A 3384   0.999   2.864   9.672 -0.1897 -0.0139 -0.0546
  212loPI   C3A 3385   1.015   2.826   9.337 -0.0810  0.1098  0.0199
  212loPI   C4A 3386   0.825   2.813   8.903  0.0951  0.1053 -0.1684
  212loPI   C5A 3387   0.813   2.866   8.475 -0.2773 -0.1010  0.0781
  212loPI   C6A 3388   0.491   2.982   8.066  0.0274  0.0998 -0.2991
  212loPI   C1B 3389   0.935   3.278   9.968  0.1668  0.0543 -0.0590
  212loPI   C2B 3390   0.973   3.327   9.502 -0.0457  0.0698  0.2009
  212loPI   C3B 3391   0.874   3.298   9.169 -0.1000 -0.2926  0.0970
  212loPI   C4B 3392   0.849   3.320   8.768 -0.1516 -0.0216  0.1855
  213loPI    C1 3393  12.127  15.960  10.961 -0.1093  0.0279 -0.2355
  213loPI    C2 3394  11.777  15.798  11.068  0.0222 -0.0671  0.0643
  213loPI    C3 3395  11.866  16.172  11.177  0.0235 -0.0501  0.0057
  213loPI   PO4 3396  12.173  15.946  10.660 -0.0862 -0.0890  0.0697
  213loPI   GL1 3397  12.114  15.974  10.352  0.0564 -0.1185  0.4466
  213loPI   GL2 3398  12.466  15.798  10.116  0.1246  0.3148  0.3436
  213loPI   C1A 3399  11.992  16.233  10.018 -0.0185  0.1534  0.0599
  213loPI   C2A 3400  12.050  16.217   9.540  0.0486 -0.2239 -0.0967
  213loPI   C3A 3401  11.957  16.105   9.164 -0.3690  0.1115  0.1619
  213loPI   C4A 3402  11.931  15.957   8.734 -0.1449 -0.0674  0.2005
  213loPI   C5A 3403  12.023  15.862   8.293  0.3560  0.0576  0.0012
  213loPI   C6A 3404  12.345  15.620   8.209  0.2600 -0.1486  0.0426
  213loPI   C1B 3405  12.614  15.500   9.813 -0.0519 -0.0355 -0.1094
  213loPI   C2B 3406  12.628  15.274   9.621  0.4616 -0.1195 -0.0019
  213loPI   C3B 3407  12.808  15.028   9.273 -0.0492 -0.2077  0.1006
  213loPI   C4B 3408  12.963  15.049   8.837 -0.2570  0.0003 -0.0784
  214loPI    C1 3409  13.762  12.591  10.779 -0.1603  0.0288 -0.0104
  214loPI    C2 3410  13.684  12.964  10.657  0.1027  0.1334  0.1316
  214loPI    C3 3411  13.386  12.729  10.785 -0.0815  0.2506 -0.0739
  214loPI   PO4 3412  13.927  12.513  10.714 -0.0397  0.0333 -0.0536
  214loPI   GL1 3413  14.014  12.403  10.318  0.0350 -0.3879 -0.0542
  214loPI   GL2 3414  13.894  12.743  10.295 -0.3683  0.0680  0.0625
  214loPI   C1A 3415  13.847  12.255   9.986  0.2291  0.1097  0.1110
  214loPI   C2A 3416  13.632  12.065   9.705 -0.1462  0.3652  0.1143
  214loPI   C3A 3417  13.601  11.937   9.295  0.0427 -0.0619 -0.0361
  214loPI   C4A 3418  13.627  11.955   8.845 -0.0822  0.0460  0.2572
  214loPI   C5A 3419  13.793  12.151   8.462 -0.1763 -0.0611 -0.1946
  214loPI   C6A 3420  14.226  12.300   8.340  0.2168  0.2237 -0.0388
  214loPI   C1B 3421  14.146  12.656   9.884 -0.3983  0.1314 -0.0345
  214loPI   C2B 3422  14.452  12.494   9.763 -0.2178  0.0645  0.0061
  214loPI   C3B 3423  14.662  12.376   9.350 -0.0699  0.0309 -0.1753
  214loPI   C4B 3424  15.110  12.596   9.290  0.1178 -0.0736  0.1676
  215loPI    C1 3425   4.296  12.514  10.776 -0.0469  0.1214  0.0292
  215loPI    C2 3426   4.513  12.215  10.930 -0.0496 -0.1184 -0.4179
  215loPI    C3 3427   4.147  12.290  11.072  0.0913 -0.0909 -0.0595
  215loPI   PO4 3428   4.519  12.811  10.788  0.2769  0.3176  0.0852
  215loPI   GL1 3429   4.610  12.924  10.392  0.1253 -0.0341 -0.1279
  215loPI   GL2 3430   4.744  13.110  10.222  0.0748  0.0224 -0.1022
  215loPI   C1A 3431   4.352  13.026   9.961 -0.1940  0.3758  0.0279
  215loPI   C2A 3432   4.312  12.872   9.600 -0.2853  0.3644 -0.1140
  215loPI   C3A 3433   4.299  12.809   9.130 -0.1971 -0.0244 -0.1925
  215loPI   C4A 3434   4.290  12.832   8.736 -0.0527  0.0961  0.0301
  215loPI   C5A 3435   4.254  12.680   8.280  0.2157  0.4021 -0.2185
  215loPI   C6A 3436   4.273  12.381   7.871  0.0947  0.0498 -0.0280
  215loPI   C1B 3437   4.815  13.117   9.698  0.0572 -0.0842  0.0443
  215loPI   C2B 3438   4.750  13.056   9.298  0.2072  0.0431 -0.2686
  215loPI   C3B 3439   4.862  12.944   8.910  0.0166 -0.1606 -0.0453
  215loPI   C4B 3440   4.841  12.821   8.447  0.0044 -0.2371  0.0511
  216loPI    C1 3441   0.618  10.873  11.114 -0.2781 -0.2906  0.3614
  216loPI    C2 3442   0.886  10.575  11.115  0.0554  0.0012  0.1676
  216loPI    C3 3443   0.981  10.930  11.273 -0.2160  0.1107  0.0902
  216loPI   PO4 3444   0.580  10.890  10.885  0.0737 -0.2101  0.0909
  216loPI   GL1 3445   0.403  10.892  10.538 -0.0553  0.2055 -0.1047
  216loPI   GL2 3446   0.685  11.055  10.446 -0.0881 -0.2491 -0.0128
  216loPI   C1A 3447   0.482  10.695  10.197 -0.0257  0.0911 -0.1121
  216loPI   C2A 3448   0.453  10.619   9.750  0.3590 -0.4623 -0.0356
  216loPI   C3A 3449   0.621  10.512   9.255  0.2711 -0.3813 -0.0417
  216loPI   C4A 3450   0.580  10.496   8.780  0.0882 -0.0847  0.0296
  216loPI   C5A 3451   0.577  10.189   8.412 -0.1821 -0.1551  0.0349
  216loPI   C6A 3452   0.562   9.805   8.522  0.1480  0.5481 -0.0270
  216loPI   C1B 3453   0.680  11.191  10.001 -0.0470 -0.1554  0.1133
  216loPI   C2B 3454   0.695  11.104   9.517 -0.0270  0.2223 -0.2912
  216loPI   C3B 3455   0.753  10.945   9.107 -0.1374 -0.1529  0.0814
  216loPI   C4B 3456   0.836  10.953   8.694  0.0241 -0.0731 -0.0382
  217loPI    C1 3457   6.469   7.782  11.652 -0.2067 -0.1403  0.1643
  217loPI    C2 3458   6.714   7.959  11.914 -0.0025  0.0192 -0.1277
  217loPI    C3 3459   6.439   8.175  11.721 -0.1672 -0.1018 -0.0310
  217loPI   PO4 3460   6.635   7.711  11.485 -0.1448  0.0607  0.3576
  217loPI   GL1 3461   6.840   7.820  11.054 -0.0914  0.0238  0.1773
  217loPI   GL2 3462   6.786   7.465  10.847  0.1382 -0.0400  0.5586
  217loPI   C1A 3463   6.796   7.966  10.617  0.1240 -0.2384 -0.1097
  217loPI   C2A 3464   6.768   8.063  10.141  0.3034 -0.1399 -0.0391
  217loPI   C3A 3465   6.651   8.146   9.710 -0.0770 -0.4723 -0.1893
  217loPI   C4A 3466   6.674   8.128   9.337  0.1144  0.0700 -0.1108
  217loPI   C5A 3467   6.676   8.079   8.843 -0.2655  0.4653  0.1334
  217loPI   C6A 3468   7.042   7.845   8.598  0.0903  0.1092  0.0603
  217loPI   C1B 3469   6.761   7.454  10.382  0.0452 -0.0034 -0.0006
  217loPI   C2B 3470   6.731   7.591   9.988 -0.1952  0.1281 -0.2719
  217loPI   C3B 3471   6.628   7.615   9.621 -0.1486  0.1350 -0.1112
  217loPI   C4B 3472   6.613   7.623   9.274 -0.0644 -0.3060 -0.0021
  218loPI    C1 3473  17.434   0.125  10.641  0.4846  0.1599 -0.1039
  218loPI    C2 3474  17.277   0.493  10.662 -0.0072 -0.0536  0.0984
  218loPI    C3 3475  17.211   0.229  10.955  0.2506 -0.3415 -0.0951
  218loPI   PO4 3476  17.633   0.199  10.433 -0.1521  0.1015 -0.1094
  218loPI   GL1 3477  17.598   0.531  10.154 -0.0616 -0.1779  0.0843
  218loPI   GL2 3478  17.566   0.841  10.173 -0.2279  0.1965 -0.1297
  218loPI   C1A 3479  17.748   0.358   9.710 -0.1149  0.1117 -0.1797
  218loPI   C2A 3480  17.973   0.140   9.374  0.2789 -0.1467  0.0983
  218loPI   C3A 3481  17.911   0.061   8.962  0.2036 -0.1510 -0.0275
  218loPI   C4A 3482  17.938   0.044   8.461  0.0902  0.2213  0.1099
  218loPI   C5A 3483  18.111   0.119   8.037 -0.2381  0.4141 -0.0599
  218loPI   C6A 3484  18.295   0.151   7.683 -0.1581 -0.0083  0.1849
  218loPI   C1B 3485  17.688   0.842   9.749 -0.0048  0.2304  0.0981
  218loPI   C2B 3486  17.646   0.809   9.353 -0.0455 -0.0909 -0.2840
  218loPI   C3B 3487  17.657   0.860   8.830 -0.0004 -0.1770 -0.1017
  218loPI   C4B 3488  17.707   0.741   8.413 -0.0547  0.0599 -0.1176
  219loPI    C1 3489   2.243   4.447  11.231 -0.0551  0.0210  0.0381
  219loPI    C2 3490   2.523   4.512  10.953 -0.0475  0.0853  0.0607
  219loPI    C3 3491   2.609   4.293  11.277  0.0699  0.3597  0.2190
  219loPI   PO4 3492   1.991   4.505  11.034  0.0324  0.0676  0.0879
  219loPI   GL1 3493   1.878   4.349  10.588 -0.2607 -0.0002  0.1283
  219loPI   GL2 3494   1.824   4.175  10.367  0.0189 -0.1494  0.0404
  219loPI   C1A 3495   1.916   4.698  10.303  0.0115  0.1068 -0.0230
  219loPI   C2A 3496   2.098   4.689   9.884  0.2327  0.1724  0.0950
  219loPI   C3A 3497   2.074   4.671   9.457  0.2051  0.1563 -0.1768
  219loPI   C4A 3498   2.257   4.687   9.155  0.1355  0.0290 -0.0735
  219loPI   C5A 3499   2.468   4.765   8.794 -0.0038 -0.1732  0.1521
  219loPI   C6A 3500   2.502   4.885   8.437  0.0631 -0.1591  0.2451
  219loPI   C1B 3501   1.957   4.223  10.001  0.2034  0.3184  0.1485
  219loPI   C2B 3502   1.920   4.252   9.583 -0.0936  0.0888 -0.1206
  219loPI   C3B 3503   2.056   4.183   9.185  0.2617  0.1903  0.1932
  219loPI   C4B 3504   2.100   4.093   8.743  0.2515  0.1673 -0.1911
  220loPI    C1 3505   3.390   0.199  10.634 -0.0439  0.0074  0.0562
  220loPI    C2 3506   3.266  -0.004  10.956  0.1995  0.0512  0.1802
  220loPI    C3 3507   3.115   0.358  10.877  0.0936  0.0138  0.2097
  220loPI   PO4 3508   3.298   0.140  10.301  0.2068 -0.2101 -0.2678
  220loPI   GL1 3509   3.196   0.298  10.056 -0.1446  0.2877 -0.1282
  220loPI   GL2 3510   3.337   0.630   9.876 -0.0381 -0.2527 -0.2686
  220loPI   C1A 3511   2.911   0.410   9.721  0.2105 -0.2513 -0.0610
  220loPI   C2A 3512   2.912   0.407   9.357 -0.3077 -0.0962 -0.0905
  220loPI   C3A 3513   3.050   0.504   8.901  0.1133 -0.1772  0.0869
  220loPI   C4A 3514   3.329   0.382   8.584  0.0065 -0.0357 -0.1972
  220loPI   C5A 3515   3.308   0.238   8.152 -0.0843 -0.0776  0.3071
  220loPI   C6A 3516   3.493  -0.025   7.809 -0.1010 -0.0485 -0.1985
  220loPI   C1B 3517   3.392   0.600   9.475  0.1844 -0.2561  0.1725
  220loPI   C2B 3518   3.486   0.743   9.049  0.4113  0.2148  0.0876
  220loPI   C3B 3519   3.715   0.598   8.756  0.1518  0.2231 -0.1458
  220loPI   C4B 3520   4.086   0.592   8.562 -0.0773 -0.2423  0.2514
  221loPI    C1 3521  11.969   6.767  11.277 -0.1820  0.0934  0.0952
  221loPI    C2 3522  12.026   6.477  11.546  0.1083 -0.1230 -0.1909
  221loPI    C3 3523  12.188   6.838  11.604 -0.1938 -0.0331  0.1312
  221loPI   PO4 3524  12.001   6.674  11.093 -0.0894  0.2290  0.2175
  221loPI   GL1 3525  12.166   6.536  10.737  0.1247 -0.0339 -0.1281
  221loPI   GL2 3526  12.318   6.840  10.679  0.1693  0.0753  0.0320
  221loPI   C1A 3527  12.051   6.455  10.358 -0.2842  0.0935 -0.0488
  221loPI   C2A 3528  11.995   6.470   9.911 -0.2143 -0.3120  0.2697
  221loPI   C3A 3529  12.037   6.397   9.500 -0.1318 -0.2101  0.1881
  221loPI   C4A 3530  11.966   6.369   9.139 -0.1433 -0.4209  0.2624
  221loPI   C5A 3531  12.140   6.463   8.682 -0.1476 -0.0298  0.0597
  221loPI   C6A 3532  12.451   6.440   8.357 -0.0715  0.0866  0.1325
  221loPI   C1B 3533  12.086   6.965  10.270 -0.0540  0.0355 -0.1976
  221loPI   C2B 3534  12.091   6.970   9.902 -0.0848 -0.1744  0.4703
  221loPI   C3B 3535  12.055   6.953   9.467 -0.0385 -0.1278  0.0184
  221loPI   C4B 3536  12.080   6.950   9.036 -0.0131 -0.3608  0.2380
  222loPI    C1 3537  14.383   9.877  11.453 -0.0270  0.1480 -0.0623
  222loPI    C2 3538  14.198   9.524  11.487  0.0418  0.1315  0.1603
  222loPI    C3 3539  14.000   9.862  11.567 -0.0286  0.1464 -0.0678
  222loPI   PO4 3540  14.615   9.775  11.323  0.0116 -0.1398 -0.2138
  222loPI   GL1 3541  14.806   9.809  10.957 -0.1479  0.3918  0.4757
  222loPI   GL2 3542  14.828  10.137  10.852 -0.0957 -0.0828  0.0164
  222loPI   C1A 3543  14.669   9.652  10.601  0.0493  0.1517  0.0613
  222loPI   C2A 3544  14.730   9.568  10.132  0.0448  0.2479 -0.1511
  222loPI   C3A 3545  14.741   9.510   9.701  0.0999 -0.0177 -0.2469
  222loPI   C4A 3546  14.711   9.313   9.341 -0.2103 -0.1157 -0.1439
  222loPI   C5A 3547  14.691   9.316   8.897 -0.2828  0.0192 -0.0965
  222loPI   C6A 3548  14.705   9.738   8.670 -0.2233  0.3262 -0.2856
  222loPI   C1B 3549  14.733  10.104  10.396  0.0621 -0.0182  0.1007
  222loPI   C2B 3550  14.715  10.077  10.007 -0.1011  0.0860  0.2501
  222loPI   C3B 3551  14.728   9.991   9.615  0.0100 -0.1276 -0.0740
  222loPI   C4B 3552  14.758   9.776   9.198 -0.2011 -0.3482  0.3872
  223loPI    C1 3553   3.058   8.194  10.976  0.1370 -0.1034  0.1270
  223loPI    C2 3554   2.790   7.905  11.043 -0.1053  0.0633 -0.1028
  223loPI    C3 3555   3.094   7.959  11.298 -0.3254 -0.0861  0.1982
  223loPI   PO4 3556   3.039   8.242  10.749 -0.1235 -0.0522 -0.3295
  223loPI   GL1 3557   3.304   8.286  10.415 -0.0116 -0.0383 -0.3805
  223loPI   GL2 3558   3.539   8.231  10.172 -0.0385 -0.4039  0.2777
  223loPI   C1A 3559   3.124   8.083   9.930 -0.0991 -0.2804  0.2682
  223loPI   C2A 3560   3.061   8.048   9.533  0.1285  0.0628 -0.4847
  223loPI   C3A 3561   3.178   8.008   9.038  0.2163 -0.3913  0.0290
  223loPI   C4A 3562   3.082   7.877   8.612  0.0640  0.1378 -0.1331
  223loPI   C5A 3563   3.189   7.392   8.450  0.0380 -0.1051 -0.0966
  223loPI   C6A 3564   3.350   7.129   8.036 -0.1398 -0.1205  0.2740
  223loPI   C1B 3565   3.598   8.244   9.717 -0.0441 -0.0604  0.0401
  223loPI   C2B 3566   3.572   8.219   9.286  0.1977 -0.2614 -0.1479
  223loPI   C3B 3567   3.612   8.267   8.872  0.2032  0.1500  0.0430
  223loPI   C4B 3568   3.546   8.391   8.490 -0.0180  0.3753 -0.0797
  224loPI    C1 3569  11.206   4.511  11.211  0.2455  0.0351  0.1128
  224loPI    C2 3570  10.998   4.171  11.244  0.1452  0.0579 -0.2430
  224loPI    C3 3571  11.302   4.246  11.494 -0.1222 -0.0824  0.1321
  224loPI   PO4 3572  11.320   4.515  10.924  0.1571  0.0863  0.2687
  224loPI   GL1 3573  11.570   4.357  10.584  0.1832 -0.0090 -0.1124
  224loPI   GL2 3574  11.658   4.097  10.544 -0.2096 -0.1546 -0.2658
  224loPI   C1A 3575  11.691   4.435  10.137  0.2634 -0.2703  0.0654
  224loPI   C2A 3576  11.702   4.300   9.747  0.1578  0.3054 -0.2507
  224loPI   C3A 3577  11.648   4.366   9.390  0.2414  0.0789 -0.0565
  224loPI   C4A 3578  11.554   4.352   9.027 -0.2561  0.2974 -0.0646
  224loPI   C5A 3579  11.776   4.181   8.691 -0.2233  0.0505  0.0257
  224loPI   C6A 3580  11.976   3.866   8.414 -0.0391 -0.0704  0.1197
  224loPI   C1B 3581  11.707   3.899  10.196  0.3902 -0.1868  0.3678
  224loPI   C2B 3582  11.610   3.810   9.763 -0.0349  0.3132  0.1000
  224loPI   C3B 3583  11.512   3.853   9.281  0.1221  0.0280  0.0371
  224loPI   C4B 3584  11.440   3.875   8.819 -0.2828 -0.0740 -0.0943
  225loPI    C1 3585  16.069  15.717  10.983 -0.1760 -0.0979  0.0430
  225loPI    C2 3586  15.902  15.953  11.259  0.1248  0.1569  0.0133
  225loPI    C3 3587  16.147  15.656  11.370  0.0367  0.0909  0.0323
  225loPI   PO4 3588  16.125  15.834  10.761 -0.0356 -0.2068  0.1207
  225loPI   GL1 3589  16.260  15.736  10.275  0.1044 -0.1952 -0.0653
  225loPI   GL2 3590  16.041  15.806  10.179 -0.0528 -0.1062  0.4037
  225loPI   C1A 3591  16.377  15.725   9.820  0.0364  0.1557 -0.0835
  225loPI   C2A 3592  16.307  15.552   9.480  0.2824 -0.2192  0.0638
  225loPI   C3A 3593  16.404  15.336   9.113  0.0788 -0.2479 -0.0556
  225loPI   C4A 3594  16.575  15.439   8.773 -0.0927 -0.0910 -0.1820
  225loPI   C5A 3595  16.956  15.507   8.504  0.0032 -0.0306  0.1170
  225loPI   C6A 3596  17.208  15.823   8.347  0.0056  0.0609 -0.1508
  225loPI   C1B 3597  15.918  15.587   9.848  0.1003  0.2950 -0.5068
  225loPI   C2B 3598  15.890  15.330   9.525 -0.0243  0.1672 -0.1231
  225loPI   C3B 3599  15.977  15.010   9.204  0.1515 -0.1426  0.0443
  225loPI   C4B 3600  16.007  14.853   8.820  0.2750  0.0793  0.2421
  226loPI    C1 3601   6.036   3.793  11.131 -0.2148  0.0498 -0.1071
  226loPI    C2 3602   5.819   3.466  11.205 -0.0448 -0.0374  0.0147
  226loPI    C3 3603   6.216   3.456  11.251 -0.0082  0.1065 -0.2513
  226loPI   PO4 3604   5.991   3.791  10.863 -0.0252  0.0127 -0.0949
  226loPI   GL1 3605   5.921   3.948  10.565  0.0688  0.4366 -0.1786
  226loPI   GL2 3606   6.014   4.247  10.344  0.0489  0.2826 -0.2056
  226loPI   C1A 3607   5.484   3.825  10.254 -0.1164  0.3057 -0.2431
  226loPI   C2A 3608   5.281   3.899   9.917 -0.0326  0.1231 -0.0671
  226loPI   C3A 3609   5.395   4.044   9.515 -0.1052  0.0415  0.1046
  226loPI   C4A 3610   5.462   4.015   9.083 -0.0165  0.1634  0.3891
  226loPI   C5A 3611   5.493   4.150   8.639 -0.0553  0.2959 -0.3098
  226loPI   C6A 3612   5.143   4.148   8.405 -0.4178  0.0028  0.2268
  226loPI   C1B 3613   6.058   4.435   9.923  0.0244 -0.0898 -0.3141
  226loPI   C2B 3614   6.145   4.538   9.551  0.1990 -0.2088  0.0577
  226loPI   C3B 3615   6.108   4.753   9.190  0.0231 -0.0411 -0.0303
  226loPI   C4B 3616   5.881   4.859   8.773 -0.2929 -0.0209  0.1669
  227loPI    C1 3617   3.867   8.619  11.049 -0.0723 -0.0465  0.0783
  227loPI    C2 3618   3.838   8.335  11.330 -0.0633  0.0184  0.1451
  227loPI    C3 3619   3.840   8.721  11.435  0.2505  0.0371  0.0818
  227loPI   PO4 3620   3.712   8.625  10.875 -0.3420 -0.1580  0.2889
  227loPI   GL1 3621   3.573   8.650  10.510  0.2319 -0.1949  0.0882
  227loPI   GL2 3622   3.712   8.843  10.308  0.1676 -0.0819 -0.2207
  227loPI   C1A 3623   3.272   8.708  10.157  0.1370  0.1745 -0.3842
  227loPI   C2A 3624   3.136   8.570   9.740 -0.0896 -0.0463 -0.1799
  227loPI   C3A 3625   3.169   8.486   9.311  0.1462 -0.3359 -0.0092
  227loPI   C4A 3626   3.164   8.547   8.863  0.0192 -0.1298  0.2193
  227loPI   C5A 3627   3.055   8.468   8.480 -0.1839 -0.0665  0.1530
  227loPI   C6A 3628   3.263   8.296   8.102 -0.0300 -0.0093  0.1327
  227loPI   C1B 3629   3.621   8.759   9.749 -0.0611 -0.0433 -0.0881
  227loPI   C2B 3630   3.609   8.720   9.241  0.0404  0.1935 -0.1235
  227loPI   C3B 3631   3.607   8.763   8.775 -0.2627 -0.0382  0.0611
  227loPI   C4B 3632   3.573   8.891   8.308 -0.1355  0.0706 -0.1389
  228loPI    C1 3633  17.760   8.315  11.098 -0.0241  0.0626 -0.0910
  228loPI    C2 3634  17.882   8.354  11.477  0.0288  0.0076 -0.1022
  228loPI    C3 3635  17.589   8.098  11.387  0.2373 -0.2201 -0.1436
  228loPI   PO4 3636  17.941   8.270  10.909  0.0944  0.0596  0.0360
  228loPI   GL1 3637  18.038   8.039  10.625  0.0743 -0.1516  0.0746
  228loPI   GL2 3638  17.866   8.252  10.408  0.0994  0.0233 -0.2700
  228loPI   C1A 3639  18.173   7.820  10.336  0.2409  0.0440  0.1942
  228loPI   C2A 3640  18.237   7.886   9.766 -0.0246  0.0788 -0.2117
  228loPI   C3A 3641  18.105   7.772   9.408  0.4503  0.4241  0.0768
  228loPI   C4A 3642  18.050   7.911   8.951  0.0579  0.1011 -0.0028
  228loPI   C5A 3643  18.175   7.728   8.654 -0.1607  0.0534  0.0690
  228loPI   C6A 3644  18.536   7.648   8.272 -0.2680 -0.1148 -0.0971
  228loPI   C1B 3645  17.913   8.132  10.075  0.4184  0.0008  0.4738
  228loPI   C2B 3646  17.840   8.106   9.674 -0.0536 -0.1161  0.0365
  228loPI   C3B 3647  17.721   8.084   9.323  0.0176 -0.2827  0.2600
  228loPI   C4B 3648  17.606   8.155   8.881  0.0790  0.0090 -0.2476
  229loPI    C1 3649   4.981   3.944  10.913 -0.0880  0.0125 -0.0186
  229loPI    C2 3650   5.273   4.166  11.073 -0.2510  0.1005  0.1608
  229loPI    C3 3651   5.182   3.811  11.233 -0.0383 -0.0666 -0.0825
  229loPI   PO4 3652   4.999   4.010  10.637  0.2351 -0.0679 -0.2178
  229loPI   GL1 3653   4.983   4.177  10.199 -0.1221  0.1194 -0.1814
  229loPI   GL2 3654   4.752   3.932  10.215  0.1450  0.2143  0.1266
  229loPI   C1A 3655   4.717   4.508   9.992 -0.0050 -0.0884 -0.0749
  229loPI   C2A 3656   4.443   4.766  10.059  0.0685  0.1142  0.2516
  229loPI   C3A 3657   4.453   5.250   9.953 -0.0451 -0.0802  0.1901
  229loPI   C4A 3658   4.608   5.470   9.561 -0.0018 -0.0744  0.2431
  229loPI   C5A 3659   4.532   5.583   9.165 -0.1507  0.0146  0.1460
  229loPI   C6A 3660   4.617   5.629   8.759 -0.0740 -0.0337 -0.3893
  229loPI   C1B 3661   4.731   4.051   9.790  0.0096 -0.4675  0.0779
  229loPI   C2B 3662   4.522   4.163   9.457  0.0976 -0.1349  0.0835
  229loPI   C3B 3663   4.572   4.198   9.005 -0.0731  0.3308  0.0701
  229loPI   C4B 3664   4.689   4.191   8.651  0.0573  0.0941 -0.0902
  230loPI    C1 3665  14.173   8.551  11.014  0.1582  0.3460  0.1467
  230loPI    C2 3666  14.375   8.344  11.291 -0.1767  0.1334  0.2381
  230loPI    C3 3667  13.987   8.424  11.345 -0.2335  0.1340 -0.1473
  230loPI   PO4 3668  14.322   8.505  10.825 -0.0290 -0.2696  0.1981
  230loPI   GL1 3669  14.588   8.651  10.563 -0.1872 -0.1126  0.0110
  230loPI   GL2 3670  14.604   8.457  10.380 -0.2470  0.0538  0.0699
  230loPI   C1A 3671  14.658   9.011  10.421 -0.0941 -0.1450  0.3244
  230loPI   C2A 3672  14.577   9.075   9.985 -0.0574 -0.1680 -0.0298
  230loPI   C3A 3673  14.603   8.877   9.536 -0.1490  0.1108  0.0931
  230loPI   C4A 3674  14.594   8.832   9.111 -0.1240 -0.2751 -0.1161
  230loPI   C5A 3675  14.742   8.859   8.693  0.0328  0.1203 -0.0892
  230loPI   C6A 3676  14.562   8.673   8.387 -0.1080  0.1026 -0.0426
  230loPI   C1B 3677  14.543   8.506   9.851 -0.1275 -0.3998  0.2173
  230loPI   C2B 3678  14.529   8.385   9.433  0.0756 -0.1192 -0.2495
  230loPI   C3B 3679  14.548   8.319   9.047 -0.0232 -0.1746 -0.0221
  230loPI   C4B 3680  14.630   8.266   8.674  0.2467 -0.1849  0.1137
  231loPI    C1 3681   0.455   6.060  11.234  0.0405 -0.0395 -0.2409
  231loPI    C2 3682   0.595   5.710  11.366 -0.2249 -0.1541 -0.2582
  231loPI    C3 3683   0.258   5.862  11.520  0.0509  0.2448 -0.0325
  231loPI   PO4 3684   0.459   5.981  10.970 -0.0613  0.1280 -0.0855
  231loPI   GL1 3685   0.384   6.103  10.552  0.2654 -0.2738  0.3319
  231loPI   GL2 3686   0.136   6.331  10.498  0.0324 -0.4268 -0.2981
  231loPI   C1A 3687   0.447   5.987  10.186 -0.2459  0.1818  0.2892
  231loPI   C2A 3688   0.451   5.964   9.709  0.0103 -0.0480 -0.0788
  231loPI   C3A 3689   0.502   6.010   9.229 -0.2703 -0.0716 -0.0857
  231loPI   C4A 3690   0.534   5.924   8.808 -0.3086 -0.2844 -0.3997
  231loPI   C5A 3691   0.890   5.747   8.566 -0.2082 -0.1226  0.3305
  231loPI   C6A 3692   1.270   5.493   8.390 -0.1374 -0.1280 -0.0096
  231loPI   C1B 3693   0.098   6.291  10.104 -0.1863  0.0597 -0.1375
  231loPI   C2B 3694  -0.008   6.276   9.725  0.1543 -0.0936  0.2316
  231loPI   C3B 3695   0.041   6.226   9.373  0.0216 -0.0701  0.2174
  231loPI   C4B 3696   0.061   6.359   8.941  0.2276 -0.0562 -0.1402
  232loPI    C1 3697  16.347  12.081  10.880  0.1299  0.0944  0.0198
  232loPI    C2 3698  16.554  11.894  11.167  0.3638  0.1667 -0.0998
  232loPI    C3 3699  16.493  12.289  11.189  0.1811  0.1357 -0.0320
  232loPI   PO4 3700  16.394  12.157  10.634  0.0474  0.2563 -0.0964
  232loPI   GL1 3701  16.246  12.467  10.364 -0.0131 -0.1000 -0.0205
  232loPI   GL2 3702  16.357  12.789  10.332  0.0035 -0.0342  0.1054
  232loPI   C1A 3703  16.387  12.279   9.977 -0.1961  0.3014 -0.2437
  232loPI   C2A 3704  16.609  12.219   9.566  0.1198  0.1258  0.1184
  232loPI   C3A 3705  16.948  12.259   9.357  0.1621 -0.1911 -0.0523
  232loPI   C4A 3706  17.414  11.996   9.151  0.0599 -0.0157  0.3413
  232loPI   C5A 3707  17.442  11.808   8.760 -0.0098  0.0134 -0.0690
  232loPI   C6A 3708  17.455  12.104   8.294 -0.1073  0.3176 -0.0682
  232loPI   C1B 3709  16.159  12.775   9.851 -0.4149 -0.3156  0.1131
  232loPI   C2B 3710  16.028  12.566   9.561  0.0944  0.2522  0.0026
  232loPI   C3B 3711  15.962  12.500   9.047  0.2058 -0.3213 -0.0002
  232loPI   C4B 3712  15.576  12.531   8.767  0.3787 -0.0881  0.4290
  233loPI    C1 3713  15.582   6.677  11.008  0.0748  0.1393 -0.0296
  233loPI    C2 3714  15.199   6.789  10.994  0.0719  0.1568  0.1592
  233loPI    C3 3715  15.371   6.710  11.346  0.2344  0.1224  0.0731
  233loPI   PO4 3716  15.839   6.759  10.850  0.0873 -0.2018 -0.0628
  233loPI   GL1 3717  16.031   6.803  10.525  0.0394 -0.1080 -0.1314
  233loPI   GL2 3718  16.109   6.549  10.424  0.0365 -0.1360 -0.0017
  233loPI   C1A 3719  16.017   7.096  10.215  0.0151  0.2009  0.2966
  233loPI   C2A 3720  16.085   7.117   9.748 -0.2045  0.0519 -0.2174
  233loPI   C3A 3721  16.149   6.941   9.402  0.1397  0.0786  0.1785
  233loPI   C4A 3722  16.189   7.023   9.047  0.2673 -0.1542  0.0674
  233loPI   C5A 3723  16.239   6.981   8.598 -0.0326  0.2432  0.0555
  233loPI   C6A 3724  16.025   7.200   8.219 -0.0148  0.1604 -0.1536
  233loPI   C1B 3725  16.007   6.603   9.970 -0.2439 -0.4047  0.0014
  233loPI   C2B 3726  16.105   6.463   9.566 -0.0441  0.0276  0.1944
  233loPI   C3B 3727  16.134   6.523   9.149  0.0120  0.1580  0.0942
  233loPI   C4B 3728  15.949   6.603   8.710 -0.0258  0.1520 -0.1727
  234loPI    C1 3729   6.935   4.699  11.251  0.0251 -0.0655 -0.3098
  234loPI    C2 3730   7.055   4.599  11.619 -0.0296 -0.2490 -0.3406
  234loPI    C3 3731   7.021   4.984  11.518  0.0306 -0.1975 -0.1688
  234loPI   PO4 3732   7.116   4.506  11.095  0.4113 -0.1143 -0.1492
  234loPI   GL1 3733   7.281   4.595  10.681 -0.1769  0.1923  0.0316
  234loPI   GL2 3734   7.521   4.829  10.625  0.1468 -0.2453  0.2802
  234loPI   C1A 3735   7.158   4.611  10.238  0.0705 -0.0051  0.0749
  234loPI   C2A 3736   7.096   4.796   9.846 -0.1079  0.3726 -0.0961
  234loPI   C3A 3737   7.156   4.897   9.441  0.0278 -0.1002  0.0528
  234loPI   C4A 3738   7.284   5.011   8.981 -0.0571  0.1302 -0.1880
  234loPI   C5A 3739   7.389   5.062   8.581 -0.0118 -0.0470 -0.2627
  234loPI   C6A 3740   7.193   5.314   8.258 -0.2416  0.0363  0.1170
  234loPI   C1B 3741   7.548   4.916  10.164  0.0682  0.3085  0.0323
  234loPI   C2B 3742   7.544   5.034   9.757  0.2527 -0.2527 -0.2623
  234loPI   C3B 3743   7.658   5.139   9.341  0.1606  0.0124  0.2866
  234loPI   C4B 3744   7.754   5.247   8.982 -0.3014 -0.1301  0.2656
  235loPI    C1 3745   6.648   7.053  11.496 -0.1581  0.0221 -0.1642
  235loPI    C2 3746   6.500   7.202  11.156 -0.3528  0.0522 -0.0683
  235loPI    C3 3747   6.265   7.169  11.478 -0.1919 -0.0521  0.0399
  235loPI   PO4 3748   6.778   6.814  11.295 -0.3031 -0.0162  0.0017
  235loPI   GL1 3749   7.000   6.956  10.972 -0.0188 -0.2342 -0.0226
  235loPI   GL2 3750   7.169   6.763  10.727  0.3143 -0.0159 -0.2160
  235loPI   C1A 3751   6.745   6.995  10.598 -0.1054  0.1735  0.0442
  235loPI   C2A 3752   6.608   7.066  10.175 -0.1283  0.0703 -0.2048
  235loPI   C3A 3753   6.610   7.071   9.728  0.0802 -0.2173 -0.0056
  235loPI   C4A 3754   6.628   7.155   9.315 -0.0986  0.0217 -0.1565
  235loPI   C5A 3755   6.569   7.259   8.935  0.1450 -0.1149  0.2387
  235loPI   C6A 3756   6.431   7.610   8.780  0.2708 -0.0500  0.2143
  235loPI   C1B 3757   7.038   6.685  10.307  0.3223  0.0243  0.0892
  235loPI   C2B 3758   7.008   6.776   9.844  0.2128  0.0366 -0.0113
  235loPI   C3B 3759   7.098   6.880   9.393  0.3445 -0.1021  0.1891
  235loPI   C4B 3760   7.032   6.935   9.006  0.1700  0.0826  0.0764
  236loPI    C1 3761   2.221   1.788  11.037  0.1283 -0.0600  0.1007
  236loPI    C2 3762   1.896   2.021  11.035  0.2112  0.0566  0.0638
  236loPI    C3 3763   2.226   2.140  11.228  0.2587 -0.0239  0.0324
  236loPI   PO4 3764   2.264   1.766  10.762  0.4421  0.1199 -0.0211
  236loPI   GL1 3765   2.065   1.917  10.344 -0.1271 -0.1124  0.0847
  236loPI   GL2 3766   2.123   1.544  10.328 -0.0071 -0.0305 -0.1348
  236loPI   C1A 3767   1.855   2.070   9.987 -0.0828  0.1062  0.1820
  236loPI   C2A 3768   1.680   2.143   9.576  0.1173  0.0751  0.2665
  236loPI   C3A 3769   1.711   2.207   9.148 -0.0113 -0.1939  0.0768
  236loPI   C4A 3770   1.732   2.143   8.739  0.1142  0.1290 -0.1834
  236loPI   C5A 3771   2.057   1.994   8.541  0.0760  0.0686 -0.1744
  236loPI   C6A 3772   2.441   1.941   8.665  0.2156 -0.2733 -0.0281
  236loPI   C1B 3773   2.247   1.730   9.873 -0.0569  0.0102 -0.1227
  236loPI   C2B 3774   2.137   1.827   9.484 -0.1448  0.2518  0.1507
  236loPI   C3B 3775   2.154   1.934   9.182  0.0475  0.3433  0.1113
  236loPI   C4B 3776   2.159   2.357   8.930 -0.0852 -0.0595 -0.1376
  237loPI    C1 3777   5.512   7.086  11.191 -0.0805  0.1952  0.1608
  237loPI    C2 3778   5.904   7.017  11.149 -0.1353  0.0192 -0.0855
  237loPI    C3 3779   5.766   7.191  11.482  0.1353 -0.0432  0.0624
  237loPI   PO4 3780   5.452   6.957  10.977 -0.1516  0.1516  0.1706
  237loPI   GL1 3781   5.757   6.659  10.774 -0.1335  0.1666 -0.0187
  237loPI   GL2 3782   5.848   6.823  10.675  0.0744 -0.3315  0.0602
  237loPI   C1A 3783   5.611   6.435  10.387  0.4135 -0.0624 -0.1008
  237loPI   C2A 3784   5.550   6.460   9.962  0.1472  0.2242  0.0244
  237loPI   C3A 3785   5.673   6.679   9.592 -0.0950 -0.2628  0.1663
  237loPI   C4A 3786   5.695   6.713   9.117 -0.0833 -0.2109  0.4527
  237loPI   C5A 3787   5.735   6.709   8.699 -0.2836 -0.2725 -0.4202
  237loPI   C6A 3788   5.870   7.074   8.483 -0.0471  0.0984  0.1491
  237loPI   C1B 3789   6.163   6.945  10.291  0.1370  0.1847  0.3041
  237loPI   C2B 3790   6.175   7.119   9.946 -0.0621  0.2173 -0.1229
  237loPI   C3B 3791   6.219   7.386   9.622 -0.0190  0.2339  0.0113
  237loPI   C4B 3792   6.164   7.449   9.296  0.1345 -0.0164 -0.0045
  238loPI    C1 3793  17.258  17.578  10.897 -0.2470  0.1958  0.2506
  238loPI    C2 3794  17.581  17.761  11.045  0.1628 -0.3198  0.0299
  238loPI    C3 3795  17.411  17.462  11.248 -0.0702 -0.1702  0.0590
  238loPI   PO4 3796  17.272  17.483  10.719  0.0743 -0.1711  0.1055
  238loPI   GL1 3797  17.285  17.685  10.300 -0.0919  0.1832  0.0631
  238loPI   GL2 3798  17.131  18.046  10.235  0.1750 -0.1473 -0.0039
  238loPI   C1A 3799  17.419  17.800   9.870  0.0039  0.1211  0.0126
  238loPI   C2A 3800  17.464  17.940   9.355  0.0815 -0.1600  0.0814
  238loPI   C3A 3801  17.604  18.262   9.100  0.1267 -0.0882  0.0011
  238loPI   C4A 3802  17.558  18.190   8.659 -0.1150 -0.1430 -0.2830
  238loPI   C5A 3803  17.420  18.092   8.302  0.0073  0.1375  0.1437
  238loPI   C6A 3804  17.116  18.020   8.059 -0.0780 -0.4050  0.0408
  238loPI   C1B 3805  16.770  18.182  10.114 -0.0522 -0.1590  0.3871
  238loPI   C2B 3806  16.562  18.374   9.732  0.1469  0.0147  0.0126
  238loPI   C3B 3807  16.633  18.389   9.304 -0.1984 -0.1721  0.1467
  238loPI   C4B 3808  16.578  18.204   9.007 -0.0695  0.2343  0.0347
  239loPI    C1 3809  14.408   7.878  11.140  0.0225 -0.1131 -0.0970
  239loPI    C2 3810  14.068   7.915  11.347 -0.0599 -0.0811 -0.2371
  239loPI    C3 3811  14.364   7.687  11.489 -0.1299 -0.0892 -0.1026
  239loPI   PO4 3812  14.364   7.815  10.895 -0.0386  0.1473 -0.1056
  239loPI   GL1 3813  14.278   8.103  10.564 -0.0274  0.0785  0.3737
  239loPI   GL2 3814  14.088   8.257  10.417  0.0451  0.0898 -0.0485
  239loPI   C1A 3815  14.477   7.944  10.199 -0.0928 -0.0564  0.2556
  239loPI   C2A 3816  14.466   7.841   9.778 -0.1342 -0.0283  0.0559
  239loPI   C3A 3817  14.441   7.853   9.425 -0.0832  0.1813 -0.1167
  239loPI   C4A 3818  14.407   7.862   8.959 -0.3607  0.3804  0.1423
  239loPI   C5A 3819  14.308   7.665   8.549  0.2650 -0.0600 -0.2806
  239loPI   C6A 3820  14.468   7.377   8.346  0.4668 -0.3587  0.4959
  239loPI   C1B 3821  14.101   8.168   9.936 -0.1917 -0.1777  0.4511
  239loPI   C2B 3822  14.093   8.133   9.512  0.1878 -0.2456 -0.1050
  239loPI   C3B 3823  13.973   8.177   9.115  0.1085  0.0422 -0.0437
  239loPI   C4B 3824  14.091   8.119   8.644  0.0399 -0.1640 -0.0641
  240loPI    C1 3825   3.493  11.177  10.901 -0.2163 -0.0394  0.2831
  240loPI    C2 3826   3.545  11.526  11.089  0.2061 -0.0765  0.2456
  240loPI    C3 3827   3.682  11.188  11.254  0.1154 -0.1775  0.1148
  240loPI   PO4 3828   3.493  11.293  10.665  0.1534 -0.2636 -0.1917
  240loPI   GL1 3829   3.408  11.389  10.289  0.0281 -0.1949 -0.1021
  240loPI   GL2 3830   3.548  11.667  10.251  0.1680 -0.2457 -0.0267
  240loPI   C1A 3831   3.209  11.468   9.822 -0.1150  0.2056  0.2173
  240loPI   C2A 3832   3.180  11.435   9.398  0.0491 -0.0142 -0.1542
  240loPI   C3A 3833   3.061  11.483   8.995 -0.2361  0.5201 -0.0958
  240loPI   C4A 3834   3.120  11.464   8.487 -0.2444  0.0458 -0.2972
  240loPI   C5A 3835   3.166  11.680   8.094  0.3325  0.2204  0.2249
  240loPI   C6A 3836   3.381  11.643   7.671  0.2056 -0.0897 -0.1253
  240loPI   C1B 3837   3.695  11.685   9.834  0.0132 -0.1938  0.2871
  240loPI   C2B 3838   3.640  11.646   9.454 -0.2604  0.0645  0.3157
  240loPI   C3B 3839   3.620  11.559   8.993 -0.0615 -0.1488  0.0846
  240loPI   C4B 3840   3.634  11.606   8.541  0.0820  0.1397  0.1135
  241loPI    C1 3841  17.122   4.631  10.673  0.1012 -0.0929 -0.0990
  241loPI    C2 3842  17.051   4.344  10.942  0.1910 -0.0157  0.0077
  241loPI    C3 3843  17.421   4.396  10.798  0.1549 -0.0189 -0.0873
  241loPI   PO4 3844  16.835   4.641  10.481  0.1828 -0.0934 -0.1068
  241loPI   GL1 3845  16.580   4.344  10.320 -0.0749 -0.0415 -0.0656
  241loPI   GL2 3846  16.440   4.126  10.335  0.1694  0.0647  0.1315
  241loPI   C1A 3847  16.702   4.386   9.922  0.0933  0.2567 -0.1192
  241loPI   C2A 3848  16.721   4.319   9.492  0.1500  0.0575  0.3066
  241loPI   C3A 3849  16.786   4.334   9.033 -0.0825  0.1331 -0.0464
  241loPI   C4A 3850  16.886   4.383   8.676  0.2775  0.0757  0.2496
  241loPI   C5A 3851  17.167   4.255   8.321 -0.0791 -0.1264  0.1801
  241loPI   C6A 3852  17.011   3.961   8.055 -0.0437  0.0095 -0.0349
  241loPI   C1B 3853  16.230   4.166   9.972  0.3026 -0.2679 -0.2941
  241loPI   C2B 3854  16.201   4.154   9.618 -0.0842  0.1970 -0.0105
  241loPI   C3B 3855  16.230   4.174   9.222  0.0617 -0.1989  0.0965
  241loPI   C4B 3856  16.233   4.108   8.735 -0.1541 -0.1337  0.1331
  242loPI    C1 3857   2.609  15.328  10.702  0.2100  0.1648  0.0712
  242loPI    C2 3858   2.977  15.359  10.550  0.2860 -0.0480  0.2061
  242loPI    C3 3859   2.857  15.014  10.713 -0.0332 -0.0332  0.0113
  242loPI   PO4 3860   2.448  15.467  10.472  0.0099  0.1437 -0.2232
  242loPI   GL1 3861   2.140  15.216  10.186 -0.3953 -0.0085 -0.1965
  242loPI   GL2 3862   1.898  15.027  10.245  0.1465  0.1801 -0.0458
  242loPI   C1A 3863   2.394  15.132   9.848 -0.0559 -0.3209 -0.2901
  242loPI   C2A 3864   2.413  15.070   9.356 -0.0385  0.0805 -0.4228
  242loPI   C3A 3865   2.484  15.029   8.895  0.1939  0.0912  0.0311
  242loPI   C4A 3866   2.451  15.079   8.448  0.0280 -0.1653 -0.3351
  242loPI   C5A 3867   2.705  15.418   8.381 -0.0946  0.2173 -0.1028
  242loPI   C6A 3868   3.007  15.694   8.361  0.0477  0.1285 -0.0022
  242loPI   C1B 3869   1.942  14.943   9.712 -0.2725 -0.1178  0.2170
  242loPI   C2B 3870   1.856  14.890   9.285 -0.2449  0.2498 -0.1923
  242loPI   C3B 3871   1.972  14.988   8.902 -0.1767 -0.0051 -0.1812
  242loPI   C4B 3872   1.978  14.859   8.545 -0.3383 -0.2982  0.2755
  243loPI    C1 3873   6.568   4.995  11.290 -0.2127  0.1031 -0.1373
  243loPI    C2 3874   6.232   5.094  11.482 -0.0493  0.3487  0.0288
  243loPI    C3 3875   6.535   4.930  11.683 -0.1087  0.0215 -0.1418
  243loPI   PO4 3876   6.722   5.193  11.145 -0.0951 -0.2053  0.3051
  243loPI   GL1 3877   6.944   5.432  10.694  0.4531  0.1769 -0.1970
  243loPI   GL2 3878   7.219   5.247  10.389 -0.0564 -0.2004  0.2161
  243loPI   C1A 3879   6.826   5.620  10.277 -0.4055  0.1574 -0.1109
  243loPI   C2A 3880   6.842   5.673   9.826  0.0340  0.4119 -0.3674
  243loPI   C3A 3881   6.878   5.759   9.415 -0.1737  0.0109  0.1218
  243loPI   C4A 3882   7.029   5.942   9.020  0.0327  0.1815  0.0201
  243loPI   C5A 3883   6.935   5.892   8.654 -0.2142  0.2013 -0.1488
  243loPI   C6A 3884   6.798   5.643   8.350  0.3327  0.0040 -0.1428
  243loPI   C1B 3885   7.287   5.429   9.953 -0.0718 -0.1629  0.0571
  243loPI   C2B 3886   7.341   5.512   9.587 -0.0943  0.1727 -0.1014
  243loPI   C3B 3887   7.370   5.489   9.138 -0.1200 -0.0100  0.0961
  243loPI   C4B 3888   7.386   5.518   8.794  0.3167  0.0032 -0.0070
  244loPI    C1 3889  16.372  16.696  10.360  0.1383 -0.1888 -0.0265
  244loPI    C2 3890  16.722  16.590  10.197  0.1723 -0.0376 -0.0539
  244loPI    C3 3891  16.688  16.941  10.385  0.0624 -0.0969  0.0384
  244loPI   PO4 3892  16.216  16.604  10.199  0.0322  0.0065  0.0561
  244loPI   GL1 3893  16.017  16.664   9.782  0.1157  0.0409  0.2278
  244loPI   GL2 3894  15.872  16.915  10.006 -0.2804 -0.1475  0.0783
  244loPI   C1A 3895  16.379  16.714   9.461 -0.0732 -0.1213  0.1832
  244loPI   C2A 3896  16.676  16.755   9.124 -0.1123  0.2903  0.1280
  244loPI   C3A 3897  16.893  16.701   8.730  0.1150  0.1489  0.4033
  244loPI   C4A 3898  17.127  16.485   8.422  0.0066 -0.0461  0.3018
  244loPI   C5A 3899  17.008  16.450   8.052 -0.0454  0.1099  0.2554
  244loPI   C6A 3900  17.145  16.095   7.877 -0.0768  0.1079  0.2563
  244loPI   C1B 3901  15.482  16.789   9.567 -0.1151  0.3198  0.0688
  244loPI   C2B 3902  15.462  16.788   9.150 -0.1014  0.2457 -0.1473
  244loPI   C3B 3903  15.492  16.913   8.659 -0.1470  0.3096 -0.0132
  244loPI   C4B 3904  15.420  16.986   8.265 -0.1058  0.1802  0.0013
  245loPI    C1 3905   2.566  10.938  10.803  0.1627  0.1562 -0.0440
  245loPI    C2 3906   2.630  11.241  11.056  0.0975  0.1014  0.0386
  245loPI    C3 3907   2.643  10.864  11.188  0.0407  0.0735 -0.0351
  245loPI   PO4 3908   2.549  11.050  10.603  0.0351  0.0545 -0.0526
  245loPI   GL1 3909   2.748  11.016  10.225 -0.0180  0.1603  0.0013
  245loPI   GL2 3910   2.866  10.755  10.353  0.0076 -0.0508  0.3657
  245loPI   C1A 3911   2.595  11.233   9.821 -0.1099 -0.1450 -0.3905
  245loPI   C2A 3912   2.616  11.301   9.401 -0.1409 -0.0920  0.4002
  245loPI   C3A 3913   2.602  11.220   8.987  0.0553 -0.1511  0.3681
  245loPI   C4A 3914   2.579  11.353   8.519  0.0346 -0.1664  0.0163
  245loPI   C5A 3915   2.761  11.428   8.073  0.3238  0.0074  0.1034
  245loPI   C6A 3916   2.526  11.207   7.743  0.1041  0.2075 -0.3550
  245loPI   C1B 3917   3.021  10.561   9.950  0.1799 -0.0817 -0.0436
  245loPI   C2B 3918   3.088  10.454   9.447  0.0163 -0.3215  0.0910
  245loPI   C3B 3919   2.920  10.461   8.994 -0.0512 -0.0378  0.0526
  245loPI   C4B 3920   2.785  10.476   8.563  0.0678 -0.1403  0.1062
  246loPI    C1 3921   4.440  14.303  10.778 -0.1152  0.1020  0.1504
  246loPI    C2 3922   4.743  14.433  11.004 -0.1052  0.1661  0.1006
  246loPI    C3 3923   4.374  14.407  11.159 -0.0247 -0.1790  0.2458
  246loPI   PO4 3924   4.464  14.406  10.573 -0.2359 -0.2819 -0.0602
  246loPI   GL1 3925   4.625  14.377  10.188 -0.0591 -0.0807 -0.0841
  246loPI   GL2 3926   4.322  14.448  10.076 -0.2165  0.0169  0.1878
  246loPI   C1A 3927   4.761  14.467   9.844  0.0005  0.1085  0.0511
  246loPI   C2A 3928   4.664  14.540   9.447  0.0268 -0.1187  0.1662
  246loPI   C3A 3929   4.678  14.348   9.029 -0.0610 -0.2750 -0.0302
  246loPI   C4A 3930   4.552  14.349   8.625 -0.1725 -0.0751 -0.0313
  246loPI   C5A 3931   4.518  14.174   8.250 -0.0746  0.2318 -0.0658
  246loPI   C6A 3932   4.562  14.122   7.766 -0.0552 -0.0698  0.2292
  246loPI   C1B 3933   4.203  14.327   9.734  0.1145 -0.2152  0.2413
  246loPI   C2B 3934   4.051  14.190   9.369 -0.1292 -0.1723 -0.3238
  246loPI   C3B 3935   4.192  14.202   8.956  0.4046 -0.1781 -0.0102
  246loPI   C4B 3936   4.153  14.057   8.574 -0.1413  0.0107  0.0951
  247loPI    C1 3937  11.923  14.332  10.794 -0.0834  0.1173 -0.0565
  247loPI    C2 3938  11.964  14.691  10.965 -0.2504  0.1637 -0.1115
  247loPI    C3 3939  12.014  14.358  11.183 -0.0136  0.2185 -0.0795
  247loPI   PO4 3940  11.705  14.275  10.650  0.1965  0.3742 -0.0583
  247loPI   GL1 3941  11.773  14.216  10.229  0.0878  0.0111  0.1670
  247loPI   GL2 3942  11.421  14.161  10.254  0.2208 -0.2857 -0.0463
  247loPI   C1A 3943  11.984  14.142   9.843 -0.0640 -0.0429  0.1336
  247loPI   C2A 3944  12.403  14.417   9.588 -0.0484  0.2062 -0.2312
  247loPI   C3A 3945  12.769  14.526   9.300  0.0437 -0.1605  0.1229
  247loPI   C4A 3946  12.912  14.539   8.828 -0.1417 -0.1059 -0.1212
  247loPI   C5A 3947  13.213  14.423   8.623  0.2763  0.0050  0.2157
  247loPI   C6A 3948  13.622  14.547   8.384 -0.4167 -0.0854 -0.0312
  247loPI   C1B 3949  11.535  14.244   9.744  0.1872 -0.2954 -0.1173
  247loPI   C2B 3950  11.449  14.103   9.345 -0.3385  0.2288 -0.1109
  247loPI   C3B 3951  11.581  14.203   8.937 -0.0507  0.2154 -0.1402
  247loPI   C4B 3952  11.601  14.233   8.521 -0.0035  0.0263 -0.2278
  248loPI    C1 3953   3.895   1.980  10.849 -0.2103 -0.0979  0.1463
  248loPI    C2 3954   4.245   1.800  10.918 -0.1036 -0.0621 -0.2734
  248loPI    C3 3955   4.191   2.181  11.027 -0.1101 -0.1501  0.0398
  248loPI   PO4 3956   3.907   1.944  10.557  0.1640  0.0235 -0.3271
  248loPI   GL1 3957   3.943   1.793  10.208 -0.3015  0.0869  0.1121
  248loPI   GL2 3958   3.637   1.889  10.113  0.0956  0.1522 -0.2537
  248loPI   C1A 3959   3.960   1.650   9.786  0.1718  0.2692  0.1995
  248loPI   C2A 3960   4.057   1.727   9.407  0.1663 -0.0121 -0.0411
  248loPI   C3A 3961   4.080   1.767   8.962 -0.0691  0.0649  0.0994
  248loPI   C4A 3962   4.342   1.544   8.691  0.0231 -0.0233 -0.3490
  248loPI   C5A 3963   4.370   1.084   8.805 -0.0820 -0.3149  0.0059
  248loPI   C6A 3964   4.368   0.809   9.138  0.0763  0.0400 -0.2024
  248loPI   C1B 3965   3.669   2.108   9.864 -0.4139  0.0875  0.0736
  248loPI   C2B 3966   3.689   2.056   9.432 -0.1551 -0.0990  0.0242
  248loPI   C3B 3967   3.730   2.127   8.959  0.1195 -0.1130  0.0935
  248loPI   C4B 3968   3.851   1.947   8.480  0.1436  0.2016  0.0659
  249loPI    C1 3969   8.504   4.328  11.251  0.4370 -0.3443 -0.0053
  249loPI    C2 3970   8.345   4.024  11.456 -0.0593  0.0442  0.2071
  249loPI    C3 3971   8.510   4.332  11.651  0.2203  0.0299 -0.0014
  249loPI   PO4 3972   8.282   4.423  11.036  0.1497 -0.2227  0.0440
  249loPI   GL1 3973   8.135   4.739  10.683  0.1949 -0.0656  0.1547
  249loPI   GL2 3974   8.482   4.787  10.632  0.1203 -0.1861 -0.0513
  249loPI   C1A 3975   8.091   4.679  10.227  0.2953  0.0384 -0.2180
  249loPI   C2A 3976   8.003   4.735   9.747  0.1770  0.2119  0.1508
  249loPI   C3A 3977   8.159   4.836   9.259 -0.1707  0.2122 -0.0045
  249loPI   C4A 3978   8.270   4.880   8.771  0.1969 -0.0056 -0.1957
  249loPI   C5A 3979   8.452   5.085   8.439  0.0667  0.0499  0.2527
  249loPI   C6A 3980   8.631   5.148   7.979  0.1340 -0.0005 -0.0267
  249loPI   C1B 3981   8.582   4.903  10.218 -0.2477  0.0291  0.1958
  249loPI   C2B 3982   8.519   4.951   9.716 -0.1559 -0.2939  0.1733
  249loPI   C3B 3983   8.589   5.028   9.337  0.0874  0.1911 -0.0189
  249loPI   C4B 3984   8.612   5.239   8.906  0.3162 -0.1435  0.0580
  250loPI    C1 3985   6.237  12.854  10.895  0.0500  0.0918 -0.1522
  250loPI    C2 3986   6.606  12.857  11.049  0.0157  0.2873 -0.0708
  250loPI    C3 3987   6.322  12.631  11.216  0.1648 -0.0780 -0.2985
  250loPI   PO4 3988   6.287  12.809  10.578  0.1874 -0.2397 -0.2244
  250loPI   GL1 3989   6.100  12.687  10.253 -0.1037 -0.0370  0.2366
  250loPI   GL2 3990   5.782  12.496  10.154 -0.0992 -0.2650 -0.3613
  250loPI   C1A 3991   6.205  12.730   9.909  0.0398  0.0483  0.1369
  250loPI   C2A 3992   6.246  12.602   9.471 -0.0494  0.1691 -0.2817
  250loPI   C3A 3993   6.140  12.499   9.071 -0.2184  0.1574  0.0980
  250loPI   C4A 3994   6.077  12.405   8.664 -0.0865  0.1295 -0.2299
  250loPI   C5A 3995   5.854  12.441   8.176 -0.0755  0.3186  0.0987
  250loPI   C6A 3996   5.548  12.680   7.961  0.2213  0.1789 -0.0626
  250loPI   C1B 3997   5.816  12.257   9.782  0.2863 -0.0432 -0.2149
  250loPI   C2B 3998   5.836  12.146   9.361 -0.3667  0.1640  0.1078
  250loPI   C3B 3999   5.578  12.273   9.045  0.1453 -0.2389 -0.1121
  250loPI   C4B 4000   5.559  12.309   8.608  0.2505 -0.0498 -0.0008
  251loPI    C1 4001   6.883   0.078  10.678  0.0366 -0.1460  0.0554
  251loPI    C2 4002   7.049  -0.250  10.835  0.3570 -0.0945 -0.1663
  251loPI    C3 4003   6.781  -0.040  11.047  0.3958 -0.3124  0.1046
  251loPI   PO4 4004   6.844  -0.016  10.367  0.2312 -0.1913  0.2116
  251loPI   GL1 4005   6.596  -0.198  10.034 -0.1150 -0.0381  0.0505
  251loPI   GL2 4006   6.779   0.054   9.886 -0.1896  0.2699  0.2201
  251loPI   C1A 4007   6.575  -0.367   9.624 -0.0533  0.4031  0.2327
  251loPI   C2A 4008   6.459  -0.097   9.297 -0.1560  0.1207  0.1115
  251loPI   C3A 4009   6.422   0.039   8.878  0.2119  0.1880  0.1133
  251loPI   C4A 4010   5.947   0.161   8.869  0.0064  0.2903  0.0719
  251loPI   C5A 4011   5.482   0.216   8.727 -0.2409 -0.2129 -0.0720
  251loPI   C6A 4012   5.311   0.613   8.846 -0.0533 -0.2363 -0.0395
  251loPI   C1B 4013   6.919  -0.045   9.493 -0.0323 -0.0966  0.2068
  251loPI   C2B 4014   6.981  -0.072   9.044 -0.1490  0.3716 -0.0271
  251loPI   C3B 4015   7.239  -0.231   8.711  0.2692  0.1148  0.0912
  251loPI   C4B 4016   7.482  -0.538   8.786 -0.0579 -0.1204  0.0972
  252loPI    C1 4017  14.741   0.914  11.131  0.2763  0.0515 -0.2708
  252loPI    C2 4018  15.090   0.744  11.228  0.1146 -0.1960 -0.1121
  252loPI    C3 4019  14.749   0.603  11.382 -0.0613  0.0154 -0.3007
  252loPI   PO4 4020  14.834   1.092  10.870 -0.0903 -0.2795  0.0812
  252loPI   GL1 4021  14.890   1.197  10.496  0.1703  0.1444 -0.0535
  252loPI   GL2 4022  15.113   1.380  10.330 -0.5418  0.0340  0.1303
  252loPI   C1A 4023  14.709   1.088  10.062 -0.1322  0.0708 -0.0313
  252loPI   C2A 4024  14.757   1.068   9.650  0.3164 -0.1336  0.0985
  252loPI   C3A 4025  14.937   1.276   9.268 -0.0195  0.0957  0.0959
  252loPI   C4A 4026  14.894   1.265   8.902  0.2203 -0.0620 -0.1955
  252loPI   C5A 4027  14.987   1.472   8.562  0.0810  0.0754 -0.0808
  252loPI   C6A 4028  15.166   1.515   8.191  0.4303  0.1297 -0.2082
  252loPI   C1B 4029  14.859   1.530   9.965  0.0638 -0.3044 -0.1799
  252loPI   C2B 4030  14.902   1.694   9.538  0.0995  0.0335 -0.0915
  252loPI   C3B 4031  15.019   1.769   9.136  0.4398 -0.1510  0.0842
  252loPI   C4B 4032  14.836   1.882   8.821  0.0720 -0.1505 -0.2144
  253loPI    C1 4033  13.631   9.042  11.275 -0.1940  0.1564 -0.1144
  253loPI    C2 4034  13.824   9.216  11.579 -0.1516  0.0600 -0.0855
  253loPI    C3 4035  13.464   9.052  11.638 -0.1425  0.0395 -0.0871
  253loPI   PO4 4036  13.752   8.823  11.157 -0.1373 -0.0890  0.2163
  253loPI   GL1 4037  13.752   8.589  10.689  0.0270  0.0229  0.0175
  253loPI   GL2 4038  13.591   8.916  10.643 -0.0968 -0.0980  0.3206
  253loPI   C1A 4039  13.721   8.582  10.289  0.4007 -0.0618  0.0562
  253loPI   C2A 4040  13.665   8.480   9.885 -0.1817  0.3633  0.1270
  253loPI   C3A 4041  13.601   8.472   9.401 -0.2391 -0.0511 -0.1182
  253loPI   C4A 4042  13.604   8.547   8.963  0.0961 -0.4127  0.0341
  253loPI   C5A 4043  13.650   8.873   8.601  0.0560 -0.0237  0.1838
  253loPI   C6A 4044  13.761   9.247   8.353  0.0169 -0.1160 -0.2461
  253loPI   C1B 4045  13.773   9.114  10.316 -0.0018 -0.1737 -0.2106
  253loPI   C2B 4046  13.721   8.992   9.901 -0.2653 -0.3075 -0.1121
  253loPI   C3B 4047  13.713   9.014   9.444  0.0188  0.0550  0.1119
  253loPI   C4B 4048  13.774   9.005   9.076  0.1864  0.2354  0.0730
  254loPI    C1 4049  15.180   1.500  10.922 -0.0204  0.2554  0.1455
  254loPI    C2 4050  15.281   1.663  11.273  0.1228 -0.0096  0.2302
  254loPI    C3 4051  15.181   1.276  11.253 -0.0022  0.0328 -0.0027
  254loPI   PO4 4052  15.421   1.619  10.699  0.0484 -0.1436 -0.2172
  254loPI   GL1 4053  15.472   1.722  10.302  0.1172  0.1198 -0.0001
  254loPI   GL2 4054  15.680   1.534  10.157  0.3754  0.3034 -0.2651
  254loPI   C1A 4055  15.362   1.875   9.935 -0.0171  0.0584  0.1837
  254loPI   C2A 4056  15.365   1.972   9.507  0.1460 -0.1230 -0.0400
  254loPI   C3A 4057  15.496   1.996   9.132  0.1980 -0.1310  0.2830
  254loPI   C4A 4058  15.368   1.819   8.748  0.3425 -0.0818 -0.1415
  254loPI   C5A 4059  15.144   1.949   8.428  0.1809  0.1205 -0.1610
  254loPI   C6A 4060  14.790   2.253   8.321 -0.1528  0.0021  0.1555
  254loPI   C1B 4061  15.729   1.611   9.795  0.0735 -0.0161 -0.2032
  254loPI   C2B 4062  15.910   1.616   9.375 -0.0067  0.3427  0.0553
  254loPI   C3B 4063  15.842   1.630   8.940  0.0544  0.1817  0.1940
  254loPI   C4B 4064  15.851   1.587   8.503 -0.0180  0.2864 -0.1367
  255loPI    C1 4065   1.280   1.343  11.178  0.0524  0.2324  0.4529
  255loPI    C2 4066   0.891   1.357  11.272 -0.0386 -0.0371  0.1357
  255loPI    C3 4067   1.124   1.070  11.426  0.0403  0.1308  0.3344
  255loPI   PO4 4068   1.275   1.420  10.911 -0.1280  0.2323  0.1302
  255loPI   GL1 4069   1.346   1.584  10.512 -0.0274 -0.1009 -0.2248
  255loPI   GL2 4070   1.007   1.520  10.335 -0.0488 -0.0784  0.1820
  255loPI   C1A 4071   1.630   1.593  10.147  0.2669  0.1648 -0.2456
  255loPI   C2A 4072   1.703   1.599   9.678 -0.0468 -0.0118 -0.2718
  255loPI   C3A 4073   1.597   1.713   9.327  0.1134  0.4996  0.1047
  255loPI   C4A 4074   1.645   1.679   8.873  0.4689  0.0978 -0.1888
  255loPI   C5A 4075   1.697   1.662   8.505 -0.1628  0.3039  0.1178
  255loPI   C6A 4076   1.599   1.245   8.253  0.1549 -0.3687 -0.1294
  255loPI   C1B 4077   1.207   1.430   9.928  0.3235 -0.3172  0.1144
  255loPI   C2B 4078   1.223   1.434   9.521  0.0491 -0.1536  0.2679
  255loPI   C3B 4079   1.181   1.507   9.076  0.3433  0.0508  0.0340
  255loPI   C4B 4080   1.268   1.410   8.667 -0.1740 -0.1553  0.1210
  256loPI    C1 4081  15.000   8.804  11.034 -0.0880 -0.1511 -0.2256
  256loPI    C2 4082  14.608   8.797  11.114 -0.0677  0.1170 -0.0900
  256loPI    C3 4083  14.874   8.764  11.411  0.0144 -0.0800 -0.1833
  256loPI   PO4 4084  15.005   8.644  10.876  0.0357 -0.3681  0.0581
  256loPI   GL1 4085  15.171   8.764  10.458  0.1109  0.0381  0.1236
  256loPI   GL2 4086  15.130   8.415  10.461 -0.0641 -0.1330 -0.0944
  256loPI   C1A 4087  14.973   8.692  10.091 -0.1021  0.0751 -0.1600
  256loPI   C2A 4088  15.002   8.614   9.601  0.1733 -0.1837  0.0505
  256loPI   C3A 4089  15.095   8.630   9.256  0.1672 -0.0776  0.1607
  256loPI   C4A 4090  15.076   8.582   8.921 -0.1541 -0.0688 -0.0419
  256loPI   C5A 4091  15.271   8.483   8.528 -0.2346 -0.1154  0.1432
  256loPI   C6A 4092  15.407   8.419   8.098 -0.1312  0.3674 -0.1146
  256loPI   C1B 4093  14.925   8.192  10.105  0.0054  0.0784  0.1531
  256loPI   C2B 4094  14.927   8.139   9.734 -0.2058  0.0577 -0.1873
  256loPI   C3B 4095  14.888   8.091   9.349 -0.1342 -0.0284 -0.1887
  256loPI   C4B 4096  14.994   8.050   8.937  0.2280  0.2252 -0.0929
  257loPI    C1 4097   7.681   1.020  10.968 -0.1068  0.0659 -0.1175
  257loPI    C2 4098   7.516   1.271  11.232  0.0257 -0.0550  0.0832
  257loPI    C3 4099   7.909   1.198  11.244  0.0267 -0.0904 -0.1255
  257loPI   PO4 4100   7.538   1.028  10.716 -0.1891  0.1656 -0.0366
  257loPI   GL1 4101   7.281   1.112  10.375  0.1587 -0.2368  0.0946
  257loPI   GL2 4102   6.995   1.125  10.452  0.3236  0.1217 -0.2800
  257loPI   C1A 4103   7.382   0.853   9.968  0.2555 -0.2264 -0.0626
  257loPI   C2A 4104   7.429   0.793   9.531 -0.0036  0.3499 -0.1032
  257loPI   C3A 4105   7.439   0.752   9.076 -0.1006 -0.0111 -0.0340
  257loPI   C4A 4106   7.541   0.741   8.653 -0.2432 -0.1714  0.0450
  257loPI   C5A 4107   7.707   1.062   8.447 -0.2163 -0.0889 -0.0819
  257loPI   C6A 4108   7.613   1.340   8.242  0.2086 -0.0102 -0.1988
  257loPI   C1B 4109   6.995   1.167   9.966 -0.2713 -0.1606  0.0305
  257loPI   C2B 4110   6.861   1.300   9.508  0.0939  0.0542 -0.1067
  257loPI   C3B 4111   7.029   1.580   9.211  0.0118 -0.0393  0.1249
  257loPI   C4B 4112   7.141   1.965   9.396 -0.0574 -0.1441  0.0557
  258loPI    C1 4113  13.763   2.657  11.148  0.0027  0.0948 -0.2519
  258loPI    C2 4114  13.370   2.726  11.124  0.0276  0.3418  0.0047
  258loPI    C3 4115  13.519   2.527  11.437  0.1020  0.2017 -0.1187
  258loPI   PO4 4116  13.759   2.514  10.882  0.3627  0.3324 -0.2281
  258loPI   GL1 4117  13.813   2.709  10.461  0.1668 -0.1153 -0.3056
  258loPI   GL2 4118  14.069   2.788  10.392  0.3158  0.1706  0.1178
  258loPI   C1A 4119  13.747   2.652  10.046 -0.0047  0.1648 -0.0104
  258loPI   C2A 4120  13.655   2.653   9.568 -0.2086  0.1022  0.2758
  258loPI   C3A 4121  13.797   2.605   9.152 -0.1409  0.1882  0.3023
  258loPI   C4A 4122  13.695   2.815   8.800  0.2449 -0.1374  0.1571
  258loPI   C5A 4123  13.650   3.031   8.345  0.1409  0.1816 -0.0883
  258loPI   C6A 4124  13.931   3.373   8.234 -0.0465  0.0920 -0.1813
  258loPI   C1B 4125  14.222   2.851   9.870 -0.2867 -0.1325  0.1547
  258loPI   C2B 4126  14.131   2.810   9.429  0.1269 -0.1362  0.0160
  258loPI   C3B 4127  14.121   3.079   9.097 -0.1593 -0.2036 -0.1420
  258loPI   C4B 4128  14.161   3.047   8.582  0.0892  0.0373 -0.2572
  259loPI    C1 4129   2.013  13.052  10.856 -0.0268  0.0966 -0.1567
  259loPI    C2 4130   1.811  13.235  11.149  0.1139  0.1229 -0.0750
  259loPI    C3 4131   2.152  13.042  11.231  0.0132 -0.1024 -0.1757
  259loPI   PO4 4132   1.872  12.896  10.733 -0.0173 -0.0196 -0.0147
  259loPI   GL1 4133   1.802  12.688  10.340 -0.2795  0.2118 -0.2214
  259loPI   GL2 4134   1.929  12.954  10.233  0.1864  0.1145  0.0972
  259loPI   C1A 4135   1.841  12.389   9.999 -0.2061  0.2714 -0.1915
  259loPI   C2A 4136   1.946  12.434   9.541 -0.2083  0.3123  0.1398
  259loPI   C3A 4137   1.916  12.544   9.001 -0.1632  0.2996 -0.0902
  259loPI   C4A 4138   1.891  12.577   8.594  0.0099 -0.0951 -0.4084
  259loPI   C5A 4139   2.077  12.849   8.151  0.0431  0.3133  0.0630
  259loPI   C6A 4140   2.590  12.774   8.110 -0.0511  0.0517 -0.0641
  259loPI   C1B 4141   1.865  12.875   9.819 -0.0704 -0.4078 -0.0891
  259loPI   C2B 4142   2.043  12.968   9.425  0.2104 -0.0368 -0.0915
  259loPI   C3B 4143   2.006  13.030   9.004 -0.3173  0.2037 -0.1523
  259loPI   C4B 4144   1.896  13.048   8.588 -0.0269  0.0854  0.0110
  260loPI    C1 4145  15.883   7.650  11.284  0.2420  0.0669 -0.0929
  260loPI    C2 4146  15.979   7.392  11.574 -0.0137 -0.1507 -0.1980
  260loPI    C3 4147  15.927   7.779  11.660 -0.0740 -0.2110  0.0442
  260loPI   PO4 4148  15.954   7.611  11.126 -0.2239  0.0244 -0.3788
  260loPI   GL1 4149  15.826   7.648  10.749  0.1467  0.1826 -0.0886
  260loPI   GL2 4150  16.093   7.819  10.570 -0.0401 -0.1689 -0.0846
  260loPI   C1A 4151  15.722   7.449  10.337  0.0367  0.0947  0.1665
  260loPI   C2A 4152  15.692   7.401   9.904 -0.2654 -0.0669  0.2809
  260loPI   C3A 4153  15.759   7.401   9.458  0.0120  0.1381  0.0649
  260loPI   C4A 4154  15.732   7.370   9.032  0.2338  0.2176 -0.1294
  260loPI   C5A 4155  15.783   7.257   8.697  0.0110 -0.1847 -0.2047
  260loPI   C6A 4156  15.627   6.919   8.510 -0.1741 -0.1019  0.0073
  260loPI   C1B 4157  15.860   7.973  10.333  0.1955  0.3155  0.1262
  260loPI   C2B 4158  15.839   7.884   9.882  0.0086 -0.0743 -0.0242
  260loPI   C3B 4159  15.812   7.882   9.390 -0.0395 -0.0276  0.3908
  260loPI   C4B 4160  15.886   7.824   8.917  0.0275  0.2539 -0.1081
  261loPI    C1 4161   6.366   4.301  10.698  0.0621  0.1026  0.0348
  261loPI    C2 4162   6.259   4.217  11.074 -0.0975 -0.0680 -0.0471
  261loPI    C3 4163   6.550   4.482  11.003 -0.2753  0.1956  0.1875
  261loPI   PO4 4164   6.405   4.037  10.564 -0.2055 -0.0776 -0.0671
  261loPI   GL1 4165   6.355   3.908  10.188 -0.2746 -0.0057  0.1307
  261loPI   GL2 4166   6.666   3.743  10.147  0.0441  0.0510 -0.0704
  261loPI   C1A 4167   6.516   4.092   9.808  0.0211 -0.1338 -0.1864
  261loPI   C2A 4168   6.591   4.215   9.363  0.1835  0.3141 -0.1465
  261loPI   C3A 4169   6.524   4.454   8.965  0.1614 -0.3577 -0.2277
  261loPI   C4A 4170   6.619   4.581   8.551  0.0049  0.3013  0.2776
  261loPI   C5A 4171   6.623   4.662   8.138  0.0197 -0.1528  0.2491
  261loPI   C6A 4172   6.491   4.832   7.749 -0.0291 -0.0639  0.0543
  261loPI   C1B 4173   6.961   3.733   9.846 -0.2434  0.0910 -0.0150
  261loPI   C2B 4174   7.051   3.878   9.417 -0.1078 -0.0004  0.1185
  261loPI   C3B 4175   6.944   3.992   8.997  0.2731 -0.3410  0.3361
  261loPI   C4B 4176   6.878   4.072   8.606  0.0334  0.0099  0.0751
  262loPI    C1 4177  11.543   3.279  11.440 -0.1469 -0.0521 -0.2666
  262loPI    C2 4178  11.151   3.203  11.417 -0.2147  0.1002  0.2554
  262loPI    C3 4179  11.307   3.350  11.755  0.2967  0.0370  0.0561
  262loPI   PO4 4180  11.625   3.074  11.216  0.0366 -0.3091  0.1085
  262loPI   GL1 4181  11.714   3.056  10.809  0.0575  0.2568 -0.0124
  262loPI   GL2 4182  11.408   2.966  10.720 -0.2936  0.0797  0.0308
  262loPI   C1A 4183  11.687   3.180  10.351  0.1257  0.4373 -0.1928
  262loPI   C2A 4184  11.505   3.095   9.966 -0.0585 -0.1098  0.2972
  262loPI   C3A 4185  11.496   3.287   9.541  0.4979 -0.4624 -0.2908
  262loPI   C4A 4186  11.507   3.384   9.153 -0.1301  0.0509  0.1846
  262loPI   C5A 4187  11.707   3.283   8.739  0.0977 -0.0219 -0.1832
  262loPI   C6A 4188  11.885   2.884   8.592  0.1365 -0.1479  0.0493
  262loPI   C1B 4189  11.142   3.044  10.315  0.2460 -0.0078  0.0393
  262loPI   C2B 4190  10.881   3.278  10.081  0.1542 -0.2438 -0.0654
  262loPI   C3B 4191  10.705   3.357   9.681  0.1590  0.1385 -0.1459
  262loPI   C4B 4192  10.623   3.458   9.211 -0.0491  0.0713  0.0555
  263loPI    C1 4193   5.204   4.917  10.999  0.0795 -0.1729  0.1576
  263loPI    C2 4194   5.338   5.161  11.286 -0.0239 -0.1329  0.1721
  263loPI    C3 4195   4.946   5.087  11.252 -0.0268 -0.0258 -0.0463
  263loPI   PO4 4196   5.400   4.650  11.007 -0.0962 -0.1014  0.0309
  263loPI   GL1 4197   5.583   4.544  10.610 -0.2995 -0.1041 -0.0696
  263loPI   GL2 4198   5.442   4.336  10.409  0.0557  0.0170  0.0081
  263loPI   C1A 4199   5.715   4.735  10.159  0.0009 -0.2145  0.0663
  263loPI   C2A 4200   5.835   4.855   9.807  0.2313  0.0279 -0.1047
  263loPI   C3A 4201   5.713   4.931   9.369  0.1643 -0.3727  0.0657
  263loPI   C4A 4202   5.430   4.969   9.000 -0.2945  0.2985 -0.3514
  263loPI   C5A 4203   5.379   5.301   8.664  0.0430 -0.1231 -0.1773
  263loPI   C6A 4204   4.976   5.434   8.422 -0.0236  0.0436  0.1363
  263loPI   C1B 4205   5.589   4.305   9.907 -0.0211 -0.3790 -0.3759
  263loPI   C2B 4206   5.614   4.492   9.575  0.2176 -0.1411 -0.1449
  263loPI   C3B 4207   5.480   4.513   9.153 -0.0040 -0.0060  0.0943
  263loPI   C4B 4208   5.461   4.632   8.620 -0.2646  0.0466  0.0706
  264loPI    C1 4209  10.935   9.123  11.530 -0.0811  0.3245  0.1080
  264loPI    C2 4210  11.160   8.831  11.686  0.0148  0.1206 -0.3924
  264loPI    C3 4211  11.122   9.179  11.880 -0.0015 -0.1730  0.1526
  264loPI   PO4 4212  11.088   9.075  11.250 -0.0437 -0.0703  0.0273
  264loPI   GL1 4213  11.139   8.738  10.855 -0.0942 -0.2505 -0.0225
  264loPI   GL2 4214  11.356   8.480  10.844  0.1759 -0.4719  0.0425
  264loPI   C1A 4215  10.837   8.597  10.551  0.1134 -0.1929  0.0783
  264loPI   C2A 4216  10.794   8.363  10.213 -0.1389 -0.0845 -0.0869
  264loPI   C3A 4217  10.856   8.282   9.782  0.0542  0.2113  0.2223
  264loPI   C4A 4218  10.898   8.355   9.361 -0.2309 -0.3385  0.0396
  264loPI   C5A 4219  10.747   8.485   8.920 -0.1138  0.1367 -0.1893
  264loPI   C6A 4220  10.516   8.678   8.568 -0.1098 -0.1951 -0.3111
  264loPI   C1B 4221  11.388   8.649  10.382  0.2071 -0.1224 -0.0490
  264loPI   C2B 4222  11.274   8.583   9.976  0.0294  0.0693  0.0444
  264loPI   C3B 4223  11.382   8.519   9.579 -0.0876  0.2299  0.0928
  264loPI   C4B 4224  11.332   8.525   9.083  0.0438 -0.2334 -0.0031
  265loPI    C1 4225   5.889  15.116  10.463  0.0952  0.1663  0.3219
  265loPI    C2 4226   5.638  15.235  10.175  0.2097 -0.1923  0.0666
  265loPI    C3 4227   5.691  15.462  10.501 -0.3562 -0.0565  0.0745
  265loPI   PO4 4228   6.068  15.030  10.255 -0.0248  0.0395  0.1055
  265loPI   GL1 4229   6.318  14.990   9.932 -0.0735  0.0120  0.0712
  265loPI   GL2 4230   6.054  15.198   9.757  0.0401 -0.2337 -0.1215
  265loPI   C1A 4231   6.523  14.874   9.534 -0.1707  0.1172 -0.0448
  265loPI   C2A 4232   6.460  14.707   9.142 -0.0431 -0.0260  0.3410
  265loPI   C3A 4233   6.537  14.801   8.618  0.1233  0.4655 -0.1845
  265loPI   C4A 4234   6.625  14.918   8.238  0.0674  0.0155  0.0822
  265loPI   C5A 4235   6.884  15.177   7.998 -0.2252  0.1320 -0.1890
  265loPI   C6A 4236   7.175  15.363   7.970  0.0185 -0.0126  0.2830
  265loPI   C1B 4237   5.999  15.098   9.376 -0.1652 -0.1630  0.2579
  265loPI   C2B 4238   6.083  15.031   8.894  0.1706  0.1899  0.3418
  265loPI   C3B 4239   5.964  15.030   8.459  0.1945  0.2042  0.3450
  265loPI   C4B 4240   6.062  14.814   8.099  0.0118 -0.1898 -0.1392
  266loPI    C1 4241  12.652   9.983  11.660 -0.0673  0.2106  0.0133
  266loPI    C2 4242  12.921   9.899  11.945 -0.0341  0.1410 -0.0382
  266loPI    C3 4243  12.798   9.612  11.695  0.0712  0.2424 -0.2079
  266loPI   PO4 4244  12.757  10.187  11.468  0.2823 -0.0497 -0.5139
  266loPI   GL1 4245  12.653  10.313  11.010  0.1738  0.2367 -0.0457
  266loPI   GL2 4246  12.972  10.307  11.006 -0.1936  0.0859 -0.1246
  266loPI   C1A 4247  12.421  10.348  10.588  0.2483 -0.0635 -0.1449
  266loPI   C2A 4248  12.067  10.315  10.285  0.0396  0.1933  0.2558
  266loPI   C3A 4249  12.064  10.298   9.862 -0.0803 -0.0217 -0.2668
  266loPI   C4A 4250  12.179  10.279   9.426  0.3117 -0.1459 -0.1820
  266loPI   C5A 4251  12.173  10.200   9.023 -0.0296  0.0603  0.1811
  266loPI   C6A 4252  12.008  10.306   8.629 -0.0729  0.3870  0.3605
  266loPI   C1B 4253  13.010  10.117  10.555 -0.0012 -0.0090 -0.0225
  266loPI   C2B 4254  13.011  10.104  10.109  0.0737  0.2663  0.1158
  266loPI   C3B 4255  12.993  10.176   9.613  0.2239 -0.3139 -0.2637
  266loPI   C4B 4256  13.019  10.070   9.097 -0.1872  0.2742  0.0653
  267loPI    C1 4257  17.283  15.589  10.915  0.2886 -0.1087 -0.0767
  267loPI    C2 4258  17.048  15.748  11.197  0.0640 -0.1758 -0.2232
  267loPI    C3 4259  17.244  15.406  11.269  0.1621 -0.0906 -0.0808
  267loPI   PO4 4260  17.140  15.704  10.663  0.2066 -0.2879  0.3425
  267loPI   GL1 4261  17.330  15.825  10.131  0.1035 -0.1498 -0.1007
  267loPI   GL2 4262  17.454  15.503  10.289  0.0582 -0.1292 -0.0900
  267loPI   C1A 4263  17.353  15.906   9.706  0.0469 -0.0019  0.0996
  267loPI   C2A 4264  17.233  15.975   9.278  0.0448  0.2760  0.2094
  267loPI   C3A 4265  17.269  15.631   8.933  0.0614 -0.1240 -0.1599
  267loPI   C4A 4266  17.446  15.493   8.606 -0.0326  0.0568 -0.1077
  267loPI   C5A 4267  17.693  15.695   8.388  0.1239 -0.2171  0.1868
  267loPI   C6A 4268  18.003  15.566   8.333  0.1069  0.1648  0.0632
  267loPI   C1B 4269  17.331  15.271   9.990  0.1235  0.2712  0.1114
  267loPI   C2B 4270  17.056  15.093   9.656  0.0658  0.0076 -0.4048
  267loPI   C3B 4271  16.896  15.130   9.329  0.0673 -0.0242  0.1318
  267loPI   C4B 4272  17.011  15.197   8.893  0.2148 -0.1048 -0.0176
  268loPI    C1 4273  17.032  12.365  10.973 -0.0459  0.0309 -0.1786
  268loPI    C2 4274  16.857  12.659  11.181 -0.1445 -0.1314 -0.0293
  268loPI    C3 4275  16.989  12.331  11.369  0.1141 -0.1126 -0.1723
  268loPI   PO4 4276  16.861  12.329  10.747 -0.3178  0.2193  0.0580
  268loPI   GL1 4277  16.807  12.349  10.331  0.0723  0.1145 -0.1280
  268loPI   GL2 4278  16.798  12.645  10.246 -0.1533 -0.3512 -0.0300
  268loPI   C1A 4279  17.066  12.169  10.048 -0.0301  0.0631  0.1170
  268loPI   C2A 4280  17.404  12.276   9.794 -0.3823  0.2844  0.0286
  268loPI   C3A 4281  17.478  12.504   9.448 -0.0502  0.1549 -0.1641
  268loPI   C4A 4282  17.755  12.407   9.104  0.1225  0.0064  0.1431
  268loPI   C5A 4283  17.935  12.088   8.807 -0.1921 -0.0132  0.1230
  268loPI   C6A 4284  18.043  11.607   8.759 -0.1757  0.1035  0.5407
  268loPI   C1B 4285  16.855  12.612   9.747  0.0793  0.0016 -0.0547
  268loPI   C2B 4286  16.985  12.789   9.347  0.0444 -0.0671 -0.1389
  268loPI   C3B 4287  17.136  12.491   8.974 -0.0884  0.1732  0.2180
  268loPI   C4B 4288  17.454  12.319   8.754 -0.1817 -0.0716 -0.0655
  269loPI    C1 4289  13.421   7.936  11.437 -0.0403 -0.0077 -0.0574
  269loPI    C2 4290  13.719   7.732  11.609 -0.0670 -0.1113 -0.1337
  269loPI    C3 4291  13.363   7.759  11.791  0.1208  0.3976  0.1797
  269loPI   PO4 4292  13.573   8.118  11.245  0.1616 -0.0411  0.2436
  269loPI   GL1 4293  13.476   7.961  10.815 -0.1965  0.1014  0.0850
  269loPI   GL2 4294  13.310   7.721  10.780 -0.4031  0.0537  0.0463
  269loPI   C1A 4295  13.604   8.034  10.410  0.0944 -0.0161  0.1115
  269loPI   C2A 4296  13.634   8.034  10.049  0.0312 -0.0570  0.1793
  269loPI   C3A 4297  13.602   7.913   9.564  0.1932 -0.1226  0.0774
  269loPI   C4A 4298  13.566   7.918   9.127 -0.3202  0.1098  0.0416
  269loPI   C5A 4299  13.580   7.908   8.751 -0.0164  0.3785  0.1470
  269loPI   C6A 4300  13.836   7.845   8.337  0.2317 -0.0784  0.1283
  269loPI   C1B 4301  13.041   7.453  10.452 -0.1083 -0.0628 -0.0113
  269loPI   C2B 4302  13.159   7.300  10.042  0.0786  0.1344 -0.2085
  269loPI   C3B 4303  13.013   7.194   9.621  0.3514  0.0767 -0.1779
  269loPI   C4B 4304  12.987   7.299   9.235  0.0681 -0.1082  0.2417
  270loPI    C1 4305   9.789  14.893  10.786 -0.2404  0.0754  0.2742
  270loPI    C2 4306   9.808  15.279  10.683 -0.2454  0.0263  0.0859
  270loPI    C3 4307  10.005  15.148  11.005  0.0337  0.1223 -0.0432
  270loPI   PO4 4308   9.576  14.818  10.798  0.0487  0.1448  0.0065
  270loPI   GL1 4309   9.361  14.808  10.454 -0.0125 -0.0874 -0.2213
  270loPI   GL2 4310   9.542  14.505  10.373  0.0396 -0.1384 -0.1934
  270loPI   C1A 4311   9.037  14.991  10.255 -0.1041  0.0822  0.3992
  270loPI   C2A 4312   8.731  14.971   9.962 -0.1503  0.1503  0.0477
  270loPI   C3A 4313   8.664  14.734   9.621 -0.3966 -0.0530  0.1207
  270loPI   C4A 4314   8.501  14.537   9.183 -0.2036  0.2302 -0.1578
  270loPI   C5A 4315   8.538  14.592   8.807 -0.0835  0.0656 -0.0833
  270loPI   C6A 4316   8.689  14.494   8.420 -0.2957 -0.0995  0.1161
  270loPI   C1B 4317   9.391  14.721   9.942 -0.0461 -0.1656  0.1810
  270loPI   C2B 4318   9.147  14.939   9.730  0.2697  0.0707  0.1525
  270loPI   C3B 4319   9.045  14.879   9.318  0.3155 -0.2064  0.1337
  270loPI   C4B 4320   9.040  14.746   9.038 -0.1069 -0.2065 -0.0436
  271loPI    C1 4321   1.090   5.245  11.112  0.0182 -0.0126 -0.0660
  271loPI    C2 4322   1.097   4.854  11.195 -0.0181  0.0624  0.3073
  271loPI    C3 4323   1.228   5.118  11.465 -0.0526  0.3135  0.0826
  271loPI   PO4 4324   1.175   5.287  10.937 -0.2033 -0.2379 -0.1854
  271loPI   GL1 4325   1.032   5.276  10.586  0.0180  0.0168 -0.2460
  271loPI   GL2 4326   1.181   5.357  10.440  0.2494 -0.1457 -0.1293
  271loPI   C1A 4327   0.736   5.160  10.275 -0.1497  0.1260  0.1818
  271loPI   C2A 4328   0.798   5.050   9.872  0.0040  0.1312 -0.4268
  271loPI   C3A 4329   0.826   5.182   9.472 -0.1419  0.1347  0.0259
  271loPI   C4A 4330   0.760   5.160   9.051 -0.1521 -0.5343  0.0439
  271loPI   C5A 4331   0.866   5.241   8.616  0.1442  0.1895 -0.2748
  271loPI   C6A 4332   1.155   5.013   8.359 -0.0032  0.0256  0.1420
  271loPI   C1B 4333   1.195   5.300  10.053 -0.0610  0.0835 -0.1843
  271loPI   C2B 4334   1.279   5.260   9.623  0.0135  0.2113 -0.1526
  271loPI   C3B 4335   1.318   5.293   9.247 -0.1568  0.1353 -0.1648
  271loPI   C4B 4336   1.287   5.443   8.908  0.0697 -0.0879 -0.0800
  272loPI    C1 4337   1.994  13.402  10.417  0.1224 -0.0590  0.0567
  272loPI    C2 4338   2.006  13.550  10.789 -0.1178 -0.0124  0.0471
  272loPI    C3 4339   1.711  13.657  10.540 -0.0352 -0.1503 -0.1119
  272loPI   PO4 4340   2.354  13.339  10.394 -0.2719  0.1154  0.0956
  272loPI   GL1 4341   2.404  13.100  10.045  0.0610 -0.2894 -0.0065
  272loPI   GL2 4342   2.074  13.407   9.959  0.0200  0.0956  0.2409
  272loPI   C1A 4343   2.458  13.264   9.672  0.0644 -0.0703 -0.0374
  272loPI   C2A 4344   2.539  13.107   9.226  0.3052  0.0929  0.0349
  272loPI   C3A 4345   2.484  13.144   8.807  0.2350 -0.1920 -0.0688
  272loPI   C4A 4346   2.401  13.112   8.410  0.0096 -0.1750 -0.1434
  272loPI   C5A 4347   2.333  13.297   7.936  0.0492 -0.0330 -0.1478
  272loPI   C6A 4348   2.390  13.345   7.530 -0.1670 -0.0297 -0.1609
  272loPI   C1B 4349   2.106  13.619   9.555 -0.2772 -0.0120  0.0251
  272loPI   C2B 4350   2.154  13.423   9.208 -0.0833 -0.1560  0.0774
  272loPI   C3B 4351   2.170  13.530   8.756  0.1933 -0.1041 -0.1490
  272loPI   C4B 4352   2.089  13.514   8.320  0.0367  0.1217  0.1245
  273loPI    C1 4353   6.238   2.146  10.849 -0.0225 -0.1998 -0.1054
  273loPI    C2 4354   5.953   2.122  11.129  0.1011  0.1608  0.0581
  273loPI    C3 4355   6.317   1.971  11.200  0.0393 -0.0373 -0.0373
  273loPI   PO4 4356   6.178   2.369  10.627 -0.2020  0.0375  0.0295
  273loPI   GL1 4357   6.129   2.350  10.185  0.1498  0.2123  0.1698
  273loPI   GL2 4358   6.166   2.000  10.140  0.0818 -0.0800 -0.1365
  273loPI   C1A 4359   6.071   2.622   9.902  0.2649  0.0055 -0.0177
  273loPI   C2A 4360   6.040   2.816   9.496 -0.1081 -0.2228  0.0706
  273loPI   C3A 4361   5.905   3.078   9.208  0.2432 -0.0163  0.2941
  273loPI   C4A 4362   5.904   3.249   8.812 -0.0062 -0.0333 -0.0502
  273loPI   C5A 4363   6.223   3.491   8.649  0.1393  0.0287 -0.5170
  273loPI   C6A 4364   6.321   3.663   8.192 -0.3095 -0.2706  0.0973
  273loPI   C1B 4365   6.236   2.103   9.694  0.0614 -0.2520 -0.0981
  273loPI   C2B 4366   6.235   2.246   9.261 -0.2330 -0.0363  0.2918
  273loPI   C3B 4367   6.212   2.201   8.794 -0.1179  0.1053 -0.2459
  273loPI   C4B 4368   5.965   2.196   8.488 -0.0942 -0.2925  0.3629
  274loPI    C1 4369  17.032  10.791  11.108  0.1781 -0.0272  0.1115
  274loPI    C2 4370  17.290  10.936  11.377 -0.1253  0.4457  0.1604
  274loPI    C3 4371  16.896  10.961  11.443 -0.1972  0.1731 -0.1341
  274loPI   PO4 4372  17.125  10.879  10.825 -0.0498 -0.0583 -0.2371
  274loPI   GL1 4373  17.334  10.731  10.551 -0.0901 -0.1430 -0.1135
  274loPI   GL2 4374  17.262  10.406  10.339 -0.0660 -0.1278 -0.6288
  274loPI   C1A 4375  17.235  11.101  10.172 -0.0765  0.4352  0.0054
  274loPI   C2A 4376  17.388  10.941   9.741 -0.0643 -0.1542 -0.0678
  274loPI   C3A 4377  17.624  10.967   9.366  0.1460  0.2129 -0.4753
  274loPI   C4A 4378  17.619  10.683   9.009  0.1750 -0.2543  0.1058
  274loPI   C5A 4379  17.463  10.319   8.881  0.2036 -0.2163 -0.0211
  274loPI   C6A 4380  17.517  10.057   8.614  0.0403 -0.0298  0.0839
  274loPI   C1B 4381  16.990  10.664  10.063  0.0980  0.0402  0.2687
  274loPI   C2B 4382  16.907  10.721   9.614  0.2873  0.4847  0.2053
  274loPI   C3B 4383  17.130  11.080   9.340 -0.0064 -0.2802 -0.2585
  274loPI   C4B 4384  17.418  11.398   9.448 -0.2660 -0.0502 -0.3599
  275loPI    C1 4385   0.447   2.730  10.426  0.2340  0.0124 -0.2820
  275loPI    C2 4386   0.670   3.003  10.615  0.0419 -0.0312  0.0127
  275loPI    C3 4387   0.688   2.618  10.724  0.0165 -0.0752 -0.1362
  275loPI   PO4 4388   0.169   2.806  10.420 -0.1454 -0.2958 -0.0016
  275loPI   GL1 4389   0.024   2.984  10.150  0.3355 -0.0075  0.1382
  275loPI   GL2 4390  -0.175   3.164  10.383  0.2083  0.0643  0.3821
  275loPI   C1A 4391  -0.039   2.803   9.669  0.0107 -0.1344  0.0442
  275loPI   C2A 4392  -0.021   2.787   9.267 -0.0498  0.3464 -0.1616
  275loPI   C3A 4393   0.000   2.882   8.866 -0.1976  0.0130  0.1057
  275loPI   C4A 4394  -0.044   2.869   8.471 -0.2440  0.2075  0.0643
  275loPI   C5A 4395  -0.165   2.644   8.080  0.0479  0.2019  0.0581
  275loPI   C6A 4396  -0.187   2.165   7.961 -0.0338  0.1266 -0.0506
  275loPI   C1B 4397  -0.382   3.258   9.931  0.0556  0.0286  0.0482
  275loPI   C2B 4398  -0.409   3.195   9.442  0.1810  0.0391 -0.0332
  275loPI   C3B 4399  -0.402   3.314   9.099 -0.2453  0.0634 -0.1656
  275loPI   C4B 4400  -0.356   3.224   8.706 -0.0380  0.0805  0.0333
  276loPI    C1 4401   3.748   7.772  10.836 -0.0544  0.0614  0.1957
  276loPI    C2 4402   3.624   8.139  10.735 -0.1812 -0.0624 -0.1098
  276loPI    C3 4403   3.542   7.994  11.098 -0.0731  0.2346  0.0370
  276loPI   PO4 4404   3.897   7.649  10.703  0.0894  0.0524  0.1919
  276loPI   GL1 4405   3.816   7.502  10.264 -0.2298 -0.0553 -0.3038
  276loPI   GL2 4406   3.515   7.762  10.346 -0.0796 -0.0564 -0.0818
  276loPI   C1A 4407   3.962   7.441   9.773  0.1526  0.1968 -0.0145
  276loPI   C2A 4408   3.959   7.398   9.267 -0.2547 -0.1136 -0.0132
  276loPI   C3A 4409   3.887   7.368   8.846  0.1511 -0.2335 -0.0617
  276loPI   C4A 4410   3.747   7.263   8.433  0.0641 -0.2202  0.1001
  276loPI   C5A 4411   3.755   7.442   7.945 -0.0895  0.1146  0.0577
  276loPI   C6A 4412   3.912   7.428   7.537 -0.1102 -0.0695  0.1204
  276loPI   C1B 4413   3.493   7.720   9.947 -0.1442 -0.0527 -0.1047
  276loPI   C2B 4414   3.549   7.719   9.521 -0.1642 -0.0356 -0.1967
  276loPI   C3B 4415   3.584   7.751   9.108  0.0432  0.3317 -0.1227
  276loPI   C4B 4416   3.506   7.700   8.749  0.0068  0.0511 -0.0356
  277loPI    C1 4417  14.719   5.441  11.005 -0.1267 -0.1281 -0.2502
  277loPI    C2 4418  14.417   5.553  11.242  0.0896 -0.0868  0.0102
  277loPI    C3 4419  14.795   5.611  11.359  0.2002 -0.1266 -0.3181
  277loPI   PO4 4420  14.672   5.531  10.801 -0.2739 -0.2662  0.1318
  277loPI   GL1 4421  14.390   5.484  10.549 -0.0573 -0.0689 -0.1373
  277loPI   GL2 4422  14.639   5.301  10.349 -0.0272 -0.1654 -0.0165
  277loPI   C1A 4423  14.237   5.726  10.187  0.1487  0.0228 -0.0535
  277loPI   C2A 4424  14.179   5.780   9.781  0.0858  0.0661 -0.2459
  277loPI   C3A 4425  14.241   5.780   9.344 -0.1249  0.1536 -0.2087
  277loPI   C4A 4426  14.081   5.810   8.929 -0.1417 -0.1936 -0.0192
  277loPI   C5A 4427  14.059   5.816   8.481 -0.1028 -0.2615  0.2537
  277loPI   C6A 4428  13.569   5.752   8.283  0.0810  0.0753  0.0177
  277loPI   C1B 4429  14.584   5.428   9.872 -0.4140  0.1101 -0.1574
  277loPI   C2B 4430  14.643   5.493   9.437 -0.0185  0.0754  0.2170
  277loPI   C3B 4431  14.571   5.577   8.984 -0.1093  0.1906  0.0468
  277loPI   C4B 4432  14.481   5.631   8.601  0.0877 -0.1885  0.0053
  278loPI    C1 4433   2.474  14.355  10.765 -0.0327  0.0678 -0.0817
  278loPI    C2 4434   2.506  14.657  11.025  0.1363 -0.1606  0.1686
  278loPI    C3 4435   2.432  14.287  11.157 -0.1045 -0.2260 -0.1379
  278loPI   PO4 4436   2.338  14.433  10.535  0.0761 -0.3035 -0.0215
  278loPI   GL1 4437   2.410  14.695  10.191 -0.0299  0.0249 -0.0833
  278loPI   GL2 4438   2.731  14.620  10.261 -0.2071 -0.0355  0.1013
  278loPI   C1A 4439   2.333  14.628   9.700 -0.1078  0.0277  0.0597
  278loPI   C2A 4440   2.421  14.552   9.251  0.0625  0.0934  0.1507
  278loPI   C3A 4441   2.384  14.503   8.844 -0.0385  0.0269 -0.0602
  278loPI   C4A 4442   2.363  14.488   8.404 -0.1339 -0.3277 -0.2349
  278loPI   C5A 4443   2.540  14.805   8.078 -0.0388  0.0963  0.0569
  278loPI   C6A 4444   2.896  15.062   8.085  0.1322 -0.1419  0.0622
  278loPI   C1B 4445   2.777  14.602   9.850  0.0823 -0.0242  0.2428
  278loPI   C2B 4446   2.805  14.757   9.417  0.1366 -0.2049 -0.3061
  278loPI   C3B 4447   2.855  14.650   9.010  0.1736 -0.2799  0.5436
  278loPI   C4B 4448   2.811  14.739   8.568  0.1179  0.0922  0.1345
  279loPI    C1 4449  17.726   1.097  10.979 -0.2435  0.0632  0.0613
  279loPI    C2 4450  17.983   1.102  11.285 -0.0238 -0.1646 -0.1152
  279loPI    C3 4451  17.618   1.261  11.328  0.1958  0.3045  0.0899
  279loPI   PO4 4452  17.900   1.153  10.765  0.2661 -0.1045  0.2350
  279loPI   GL1 4453  17.971   1.336  10.357  0.2547  0.1634  0.0737
  279loPI   GL2 4454  18.048   1.101  10.197 -0.5345 -0.1446  0.0632
  279loPI   C1A 4455  18.003   1.573   9.994  0.0227  0.1774 -0.1031
  279loPI   C2A 4456  18.146   1.568   9.596  0.1225  0.1794  0.1259
  279loPI   C3A 4457  18.177   1.561   9.209  0.0139 -0.2345  0.2026
  279loPI   C4A 4458  18.185   1.598   8.700 -0.0649 -0.3556  0.0017
  279loPI   C5A 4459  18.057   1.579   8.333 -0.2743 -0.2132  0.2049
  279loPI   C6A 4460  18.105   1.835   7.936  0.5058  0.4369  0.0168
  279loPI   C1B 4461  18.184   1.079   9.759  0.0951  0.0702 -0.2351
  279loPI   C2B 4462  18.084   1.093   9.353  0.2411  0.1224  0.0695
  279loPI   C3B 4463  18.149   1.076   9.037  0.2348 -0.0804  0.6521
  279loPI   C4B 4464  18.154   1.012   8.564 -0.1329  0.2816 -0.0298
  280loPI    C1 4465   9.868  16.492  10.780 -0.0705  0.0449  0.1577
  280loPI    C2 4466   9.526  16.425  10.977 -0.0755  0.1298  0.1784
  280loPI    C3 4467   9.688  16.791  10.975 -0.1115  0.1459 -0.0335
  280loPI   PO4 4468   9.823  16.380  10.487 -0.0786 -0.2749 -0.2565
  280loPI   GL1 4469   9.716  16.586  10.163  0.0565 -0.0540 -0.0480
  280loPI   GL2 4470   9.564  16.941  10.073  0.2667 -0.1731 -0.0887
  280loPI   C1A 4471   9.896  16.652   9.783 -0.1388  0.0163 -0.1876
  280loPI   C2A 4472  10.205  16.709   9.694  0.0669 -0.2529  0.0606
  280loPI   C3A 4473  10.478  16.821   9.363  0.3091  0.0605  0.2275
  280loPI   C4A 4474  10.760  17.056   9.183  0.1980  0.2233 -0.2711
  280loPI   C5A 4475  11.082  17.068   8.929 -0.1545  0.0870 -0.2201
  280loPI   C6A 4476  11.408  16.985   9.035 -0.1551 -0.0930  0.0558
  280loPI   C1B 4477   9.411  16.999   9.675 -0.3428  0.1525  0.0060
  280loPI   C2B 4478   9.412  16.739   9.358  0.0678 -0.0255  0.0163
  280loPI   C3B 4479   9.260  16.677   8.975 -0.0103  0.0655 -0.1096
  280loPI   C4B 4480   9.273  16.879   8.551 -0.0581  0.1309  0.0828
  281loPI    C1 4481  16.940   9.318  11.125 -0.0326 -0.0957 -0.1769
  281loPI    C2 4482  17.263   9.477  11.299 -0.1614 -0.1472  0.1141
  281loPI    C3 4483  17.222   9.079  11.278 -0.1481 -0.1410 -0.0327
  281loPI   PO4 4484  16.889   9.523  10.929  0.0990  0.0117 -0.0900
  281loPI   GL1 4485  17.003   9.570  10.539 -0.0997  0.0079  0.2984
  281loPI   GL2 4486  17.078   9.897  10.560 -0.1233  0.1029  0.3462
  281loPI   C1A 4487  16.871   9.275  10.184 -0.1298 -0.1496 -0.0478
  281loPI   C2A 4488  17.047   9.209   9.745 -0.2657  0.2466 -0.1037
  281loPI   C3A 4489  17.379   9.307   9.538  0.0776  0.3235 -0.2239
  281loPI   C4A 4490  17.446   9.515   9.304 -0.0127  0.1491  0.0638
  281loPI   C5A 4491  17.449   9.342   8.894 -0.0302  0.0175  0.1320
  281loPI   C6A 4492  17.570   9.563   8.577 -0.0619  0.0542 -0.1595
  281loPI   C1B 4493  17.403   9.960  10.330 -0.4103 -0.0780 -0.0385
  281loPI   C2B 4494  17.591  10.031   9.988 -0.0291 -0.1250  0.1152
  281loPI   C3B 4495  17.716   9.625   9.786 -0.2783 -0.2830  0.3779
  281loPI   C4B 4496  17.947   9.540   9.485  0.0989 -0.1477  0.2256
  282loPI    C1 4497  12.905  11.703  11.004  0.2101 -0.1284  0.2275
  282loPI    C2 4498  13.045  12.027  11.191 -0.0620  0.0851  0.0676
  282loPI    C3 4499  12.852  11.745  11.398 -0.0915  0.1725  0.1600
  282loPI   PO4 4500  12.895  11.801  10.703 -0.1671 -0.1540  0.2732
  282loPI   GL1 4501  12.886  11.579  10.369 -0.1133 -0.2394 -0.1335
  282loPI   GL2 4502  13.229  11.527  10.379  0.0171  0.0534  0.3124
  282loPI   C1A 4503  12.774  11.678   9.943 -0.1102 -0.0269 -0.1276
  282loPI   C2A 4504  12.701  11.494   9.553 -0.1653 -0.0953 -0.0143
  282loPI   C3A 4505  12.781  11.362   9.122 -0.0989 -0.2460 -0.0008
  282loPI   C4A 4506  12.806  11.388   8.672  0.2865  0.1489 -0.0695
  282loPI   C5A 4507  12.887  11.265   8.289 -0.0167  0.0446  0.0581
  282loPI   C6A 4508  13.349  11.165   8.321 -0.1496  0.0517  0.2444
  282loPI   C1B 4509  13.127  11.310   9.992 -0.0934  0.1003  0.0359
  282loPI   C2B 4510  13.111  11.147   9.613  0.0092 -0.1174  0.3268
  282loPI   C3B 4511  13.153  11.072   9.122  0.0433  0.3206  0.1309
  282loPI   C4B 4512  13.311  11.106   8.779 -0.1535 -0.3640 -0.2639
  283loPI    C1 4513  11.110   2.805  11.107 -0.1952 -0.1412 -0.1382
  283loPI    C2 4514  10.931   2.760  11.462 -0.0084  0.1872  0.0028
  283loPI    C3 4515  11.325   2.698  11.427 -0.0894 -0.2316 -0.2388
  283loPI   PO4 4516  11.037   2.647  10.903 -0.3167  0.1832 -0.0192
  283loPI   GL1 4517  11.199   2.583  10.527 -0.1741  0.1925 -0.1478
  283loPI   GL2 4518  11.521   2.534  10.461 -0.1400  0.1445 -0.0445
  283loPI   C1A 4519  11.190   2.640  10.052 -0.2294 -0.1068 -0.1941
  283loPI   C2A 4520  11.070   3.007   9.746 -0.0233  0.0743  0.0356
  283loPI   C3A 4521  11.007   3.171   9.287 -0.2462 -0.1987 -0.2139
  283loPI   C4A 4522  10.993   3.211   8.988 -0.4079 -0.0306  0.1455
  283loPI   C5A 4523  11.199   3.241   8.678  0.3410 -0.0295  0.0026
  283loPI   C6A 4524  11.251   2.853   8.664 -0.0065  0.0754  0.0852
  283loPI   C1B 4525  11.641   2.653  10.137 -0.2399  0.2675 -0.4122
  283loPI   C2B 4526  11.834   2.802   9.770 -0.1657 -0.0500  0.0684
  283loPI   C3B 4527  11.921   3.037   9.448 -0.1394 -0.4068  0.1155
  283loPI   C4B 4528  11.947   2.952   9.042  0.0977  0.0345 -0.0317
  284loPI    C1 4529  11.876   5.736  11.295  0.1518 -0.0115  0.1129
  284loPI    C2 4530  11.525   5.676  11.477  0.0724  0.0421 -0.0211
  284loPI    C3 4531  11.758   5.982  11.587 -0.0859  0.2187 -0.1700
  284loPI   PO4 4532  11.814   5.744  11.049 -0.0242 -0.0213 -0.0097
  284loPI   GL1 4533  11.996   5.551  10.745 -0.0814 -0.0602  0.0224
  284loPI   GL2 4534  11.847   5.296  10.689 -0.0603 -0.1805 -0.0305
  284loPI   C1A 4535  11.852   5.788  10.344 -0.0521  0.0561  0.0927
  284loPI   C2A 4536  11.876   5.901   9.936  0.1084 -0.2068  0.1057
  284loPI   C3A 4537  11.916   5.886   9.450  0.1099  0.0709  0.2023
  284loPI   C4A 4538  11.910   5.832   8.978 -0.2171  0.0013 -0.1167
  284loPI   C5A 4539  12.031   5.613   8.694  0.3890  0.0971  0.2133
  284loPI   C6A 4540  11.726   5.247   8.519 -0.1969  0.1149 -0.0233
  284loPI   C1B 4541  11.783   5.303  10.210  0.0542 -0.0321  0.1729
  284loPI   C2B 4542  11.759   5.432   9.838 -0.1012  0.1755  0.2498
  284loPI   C3B 4543  11.868   5.384   9.421 -0.1276  0.1280  0.1221
  284loPI   C4B 4544  11.837   5.297   9.038  0.6640  0.2231  0.0274
  285loPI    C1 4545  16.239  14.843  10.960  0.0132  0.1056 -0.0514
  285loPI    C2 4546  16.511  14.564  11.052 -0.0182  0.0480 -0.1319
  285loPI    C3 4547  16.123  14.496  11.123 -0.0160  0.1144 -0.0535
  285loPI   PO4 4548  16.305  14.935  10.765 -0.0639 -0.0625 -0.0220
  285loPI   GL1 4549  16.130  14.915  10.295  0.0879  0.0086  0.0706
  285loPI   GL2 4550  16.464  14.751  10.230  0.1999  0.1962  0.0395
  285loPI   C1A 4551  15.826  14.994   9.942  0.1455 -0.1204 -0.0323
  285loPI   C2A 4552  15.539  14.827   9.533 -0.0241 -0.1201  0.0443
  285loPI   C3A 4553  15.472  14.708   9.137  0.0227  0.2186  0.1144
  285loPI   C4A 4554  15.407  14.802   8.750 -0.0574 -0.3388 -0.1382
  285loPI   C5A 4555  15.347  14.747   8.300  0.2789  0.1342  0.1358
  285loPI   C6A 4556  15.285  14.749   7.884  0.0760  0.0780 -0.0464
  285loPI   C1B 4557  16.558  14.717   9.874  0.0750 -0.3157 -0.0606
  285loPI   C2B 4558  16.849  14.620   9.573  0.4660  0.3184 -0.1334
  285loPI   C3B 4559  16.946  14.630   9.176  0.0039 -0.2260  0.1517
  285loPI   C4B 4560  17.096  14.700   8.793  0.2415 -0.1334  0.1456
  286loPI    C1 4561   3.876   2.686  10.957  0.1746  0.0995 -0.0892
  286loPI    C2 4562   3.680   3.013  10.838 -0.0394  0.0097  0.0111
  286loPI    C3 4563   3.537   2.794  11.140  0.2506 -0.0228  0.1279
  286loPI   PO4 4564   3.889   2.486  10.690  0.2743  0.0295  0.2178
  286loPI   GL1 4565   3.953   2.612  10.227  0.0687 -0.3869 -0.2460
  286loPI   GL2 4566   4.258   2.657  10.189 -0.3798  0.0952 -0.2177
  286loPI   C1A 4567   3.858   2.529   9.734 -0.0950 -0.0503  0.0660
  286loPI   C2A 4568   3.898   2.476   9.340  0.1436  0.0549 -0.0951
  286loPI   C3A 4569   4.173   2.341   9.050 -0.3227  0.0588  0.1810
  286loPI   C4A 4570   4.468   2.202   9.207 -0.0545  0.0564  0.3162
  286loPI   C5A 4571   4.616   1.803   9.481  0.0153  0.0003  0.0431
  286loPI   C6A 4572   4.896   1.679   9.671 -0.3398  0.1492  0.0433
  286loPI   C1B 4573   4.193   2.946   9.854  0.0858 -0.2071 -0.0993
  286loPI   C2B 4574   4.017   2.993   9.525  0.2023 -0.0031 -0.2575
  286loPI   C3B 4575   3.799   2.926   9.122 -0.2089 -0.0584  0.1783
  286loPI   C4B 4576   3.796   2.653   8.760  0.0318 -0.0580 -0.2582
  287loPI    C1 4577  11.643   6.342  11.261  0.1121 -0.1509  0.0288
  287loPI    C2 4578  11.254   6.393  11.183  0.1453  0.1455  0.0458
  287loPI    C3 4579  11.372   6.282  11.549  0.0688 -0.0910  0.0004
  287loPI   PO4 4580  11.681   6.315  10.972 -0.1890  0.1678  0.2543
  287loPI   GL1 4581  11.623   6.442  10.644  0.1679 -0.1094  0.0279
  287loPI   GL2 4582  11.669   6.780  10.644 -0.1568  0.2996  0.0161
  287loPI   C1A 4583  11.546   6.221  10.237  0.0063  0.1611 -0.0240
  287loPI   C2A 4584  11.534   6.180   9.739  0.0478  0.2988 -0.1340
  287loPI   C3A 4585  11.508   6.269   9.369  0.4715  0.0155  0.0210
  287loPI   C4A 4586  11.549   6.248   8.958  0.1008 -0.0488 -0.1567
  287loPI   C5A 4587  11.768   6.099   8.564  0.2563  0.0961  0.0020
  287loPI   C6A 4588  11.686   5.758   8.394  0.3535 -0.1380  0.0087
  287loPI   C1B 4589  11.622   6.765  10.205  0.0400 -0.2585  0.2028
  287loPI   C2B 4590  11.625   6.676   9.677 -0.0082 -0.3481 -0.1663
  287loPI   C3B 4591  11.655   6.720   9.257  0.1111 -0.0956  0.0909
  287loPI   C4B 4592  11.717   6.742   8.817  0.2766  0.0051  0.1168
  288loPI    C1 4593   6.065   7.707  11.329  0.0284  0.0261  0.0148
  288loPI    C2 4594   5.805   7.978  11.191  0.1145  0.1614  0.1150
  288loPI    C3 4595   5.683   7.697  11.448  0.0149  0.0765 -0.0236
  288loPI   PO4 4596   6.273   7.618  11.064 -0.1266  0.1286 -0.1640
  288loPI   GL1 4597   6.378   7.841  10.676 -0.0954 -0.1175 -0.0368
  288loPI   GL2 4598   6.033   7.922  10.684  0.0210 -0.0881  0.0034
  288loPI   C1A 4599   6.314   7.674  10.279 -0.0895  0.2497  0.1003
  288loPI   C2A 4600   6.207   7.808   9.878 -0.2268  0.1099 -0.5443
  288loPI   C3A 4601   6.210   7.893   9.471  0.0379  0.0815 -0.2699
  288loPI   C4A 4602   6.249   7.936   9.094  0.0214  0.1722 -0.1154
  288loPI   C5A 4603   6.186   8.071   8.692  0.1036 -0.3592 -0.1815
  288loPI   C6A 4604   5.901   8.260   8.500 -0.1041  0.0824 -0.1547
  288loPI   C1B 4605   5.830   7.959  10.251 -0.3678 -0.1861 -0.0387
  288loPI   C2B 4606   5.771   8.160   9.845 -0.1538 -0.0899 -0.0614
  288loPI   C3B 4607   5.786   8.202   9.464  0.0738 -0.0972  0.1098
  288loPI   C4B 4608   5.848   8.187   9.031 -0.1634 -0.0848 -0.0067
  289loPI    C1 4609  14.136   0.646  10.828  0.1296 -0.3040  0.0009
  289loPI    C2 4610  14.246   0.761  11.195 -0.2743  0.0370  0.0224
  289loPI    C3 4611  13.967   0.477  11.149 -0.2359  0.0061 -0.0209
  289loPI   PO4 4612  14.471   0.786  10.707 -0.0409  0.4583  0.0515
  289loPI   GL1 4613  14.425   1.282  10.526  0.0227 -0.0508 -0.0577
  289loPI   GL2 4614  14.581   1.625  10.391 -0.0863  0.1275 -0.1390
  289loPI   C1A 4615  14.274   1.384  10.056 -0.0097 -0.1504  0.2419
  289loPI   C2A 4616  14.429   1.481   9.604 -0.1290 -0.4202 -0.0965
  289loPI   C3A 4617  14.549   1.561   9.150 -0.1352 -0.1435 -0.4282
  289loPI   C4A 4618  14.453   1.496   8.745 -0.0671  0.2507  0.0215
  289loPI   C5A 4619  14.169   1.568   8.390 -0.0022 -0.1763  0.0909
  289loPI   C6A 4620  13.753   1.569   8.487  0.0854  0.1127 -0.1253
  289loPI   C1B 4621  14.198   1.821  10.255 -0.4647 -0.0443 -0.2595
  289loPI   C2B 4622  14.079   1.740   9.815 -0.0398 -0.0686 -0.0801
  289loPI   C3B 4623  13.721   1.783   9.655  0.0229  0.0643  0.3177
  289loPI   C4B 4624  13.570   1.756   9.276 -0.1666 -0.0897 -0.2185
  290loPI    C1 4625   9.727   3.089  11.011 -0.0810  0.0905 -0.2061
  290loPI    C2 4626  10.078   2.922  11.106 -0.1860 -0.0813 -0.1148
  290loPI    C3 4627  10.061   3.309  11.006  0.0190 -0.0558 -0.0547
  290loPI   PO4 4628   9.642   2.898  10.853 -0.0872  0.1220  0.0515
  290loPI   GL1 4629   9.742   2.993  10.501 -0.2142  0.1628 -0.0835
  290loPI   GL2 4630  10.070   3.096  10.540  0.0012  0.2547  0.5008
  290loPI   C1A 4631   9.577   3.165  10.096  0.2644 -0.2249  0.0809
  290loPI   C2A 4632   9.595   3.526   9.843 -0.1480 -0.0435  0.3825
  290loPI   C3A 4633   9.742   3.488   9.429  0.1938  0.3230 -0.0908
  290loPI   C4A 4634   9.795   3.567   9.012  0.1045 -0.0094 -0.0943
  290loPI   C5A 4635  10.267   3.478   8.841 -0.0650 -0.2177 -0.0835
  290loPI   C6A 4636  10.736   3.620   8.721  0.0545 -0.0681 -0.2086
  290loPI   C1B 4637  10.010   3.362  10.224 -0.0374 -0.0123 -0.2450
  290loPI   C2B 4638  10.140   3.419   9.767 -0.1840  0.0047 -0.1350
  290loPI   C3B 4639  10.250   3.719   9.494  0.0189  0.1256  0.3862
  290loPI   C4B 4640  10.240   3.825   9.155  0.0128 -0.0627  0.0187
  291loPI    C1 4641   8.727   9.607  11.328  0.0246  0.1483 -0.0027
  291loPI    C2 4642   8.808   9.658  11.717  0.1214  0.0346 -0.0071
  291loPI    C3 4643   8.432   9.591  11.597  0.0930  0.0592  0.0681
  291loPI   PO4 4644   8.834   9.761  11.233  0.0967 -0.3361  0.3086
  291loPI   GL1 4645   8.813   9.779  10.743 -0.0315  0.0491  0.0275
  291loPI   GL2 4646   8.609   9.960  10.611  0.1602  0.2072  0.1128
  291loPI   C1A 4647   9.124   9.566  10.374 -0.1062 -0.0667 -0.0047
  291loPI   C2A 4648   9.245   9.616   9.966  0.4483  0.1899 -0.0698
  291loPI   C3A 4649   9.134   9.661   9.508 -0.3008  0.0079  0.0202
  291loPI   C4A 4650   9.075   9.653   9.152 -0.1168  0.1774  0.0413
  291loPI   C5A 4651   9.132   9.623   8.717 -0.2520  0.0961 -0.1147
  291loPI   C6A 4652   9.054   9.845   8.352 -0.0399 -0.3117 -0.1636
  291loPI   C1B 4653   8.763   9.898  10.214  0.2979 -0.2518  0.1721
  291loPI   C2B 4654   8.813   9.901   9.802 -0.0057  0.2147 -0.1495
  291loPI   C3B 4655   8.688   9.910   9.422  0.0002  0.0143  0.1774
  291loPI   C4B 4656   8.658   9.930   9.025 -0.0769 -0.0524 -0.1498
  292loPI    C1 4657  17.848   7.786  11.049 -0.0244  0.2273  0.0659
  292loPI    C2 4658  17.664   7.590  11.345 -0.1181  0.2879  0.0484
  292loPI    C3 4659  17.981   7.821  11.425 -0.0245  0.1519  0.0729
  292loPI   PO4 4660  17.603   7.826  10.882 -0.0996 -0.0081 -0.1332
  292loPI   GL1 4661  17.572   7.810  10.425  0.0853  0.3901 -0.0784
  292loPI   GL2 4662  17.384   8.016  10.241 -0.0284 -0.0778  0.2462
  292loPI   C1A 4663  17.700   7.652  10.073 -0.1547 -0.1471  0.0912
  292loPI   C2A 4664  17.671   7.664   9.681  0.3394 -0.0338 -0.3851
  292loPI   C3A 4665  17.668   7.583   9.226 -0.0784  0.1250 -0.0299
  292loPI   C4A 4666  17.617   7.600   8.788 -0.2122 -0.1937 -0.1182
  292loPI   C5A 4667  17.763   7.935   8.479  0.0106 -0.0816 -0.0966
  292loPI   C6A 4668  18.057   7.795   8.174 -0.2544  0.0790  0.1956
  292loPI   C1B 4669  17.275   7.876   9.796  0.5321  0.2960 -0.4079
  292loPI   C2B 4670  17.247   7.867   9.307 -0.2213  0.0908 -0.2976
  292loPI   C3B 4671  17.186   7.852   8.905  0.3062 -0.0706 -0.0676
  292loPI   C4B 4672  17.279   7.933   8.499 -0.2532 -0.0203  0.0032
  293loPI    C1 4673  11.397   5.276  11.240 -0.0040 -0.1520 -0.0178
  293loPI    C2 4674  11.520   4.896  11.253 -0.2317 -0.2289 -0.0671
  293loPI    C3 4675  11.565   5.131  11.573  0.0601 -0.2478 -0.0911
  293loPI   PO4 4676  11.476   5.389  11.029 -0.2489  0.3589 -0.1385
  293loPI   GL1 4677  11.225   5.700  10.709  0.2015  0.0585  0.1835
  293loPI   GL2 4678  11.477   5.709  10.617  0.1172 -0.0772  0.0126
  293loPI   C1A 4679  10.917   5.574  10.365  0.2934 -0.1334 -0.2207
  293loPI   C2A 4680  10.887   5.440   9.994 -0.0317 -0.1664 -0.0462
  293loPI   C3A 4681  10.894   5.461   9.571  0.1069 -0.0896  0.0888
  293loPI   C4A 4682  11.010   5.500   9.131 -0.0838 -0.0630 -0.0185
  293loPI   C5A 4683  10.964   5.680   8.720  0.3181 -0.0713 -0.3096
  293loPI   C6A 4684  11.246   6.056   8.622  0.3550 -0.1896  0.2869
  293loPI   C1B 4685  11.432   5.717  10.071 -0.1242 -0.4853 -0.0573
  293loPI   C2B 4686  11.348   5.675   9.628 -0.0366 -0.0899 -0.1477
  293loPI   C3B 4687  11.459   5.731   9.225  0.0644  0.0462  0.0142
  293loPI   C4B 4688  11.463   5.589   8.835  0.1847  0.1386 -0.0334
  294loPI    C1 4689   6.816  15.183  10.789 -0.0150  0.1615 -0.1112
  294loPI    C2 4690   6.822  15.544  10.961  0.1272  0.1785 -0.1509
  294loPI    C3 4691   6.938  15.223  11.168 -0.0313  0.1505 -0.1047
  294loPI   PO4 4692   6.859  15.185  10.535  0.0510 -0.1381  0.2165
  294loPI   GL1 4693   6.837  14.960   9.996 -0.1980  0.1363  0.3081
  294loPI   GL2 4694   6.764  14.621   9.940 -0.0291 -0.1421  0.3181
  294loPI   C1A 4695   6.920  15.204   9.651 -0.1709  0.0864  0.1075
  294loPI   C2A 4696   6.869  15.019   9.223 -0.4144 -0.1112 -0.3317
  294loPI   C3A 4697   6.945  14.696   8.909 -0.2372 -0.0141  0.3928
  294loPI   C4A 4698   7.271  14.437   8.696  0.2626  0.0613 -0.1178
  294loPI   C5A 4699   7.689  14.566   8.635  0.3601 -0.1946  0.2589
  294loPI   C6A 4700   8.132  14.379   8.658  0.0620  0.2008 -0.2443
  294loPI   C1B 4701   6.831  14.469   9.546 -0.3326  0.3324 -0.2433
  294loPI   C2B 4702   7.234  14.371   9.274  0.0210 -0.2346  0.0835
  294loPI   C3B 4703   7.408  14.106   9.035 -0.0656 -0.0516 -0.0539
  294loPI   C4B 4704   7.863  14.113   8.957  0.1184 -0.2419 -0.0318
  295loPI    C1 4705   0.426  10.276  11.418  0.0992 -0.0989 -0.0305
  295loPI    C2 4706   0.566  10.638  11.516 -0.0349 -0.0736  0.0706
  295loPI    C3 4707   0.227  10.503  11.681 -0.2405 -0.0504 -0.3211
  295loPI   PO4 4708   0.441  10.205  11.166 -0.3099  0.2511  0.2258
  295loPI   GL1 4709   0.128   9.971  10.821  0.0080 -0.0014 -0.1244
  295loPI   GL2 4710   0.373   9.835  10.715 -0.2643  0.1783 -0.0213
  295loPI   C1A 4711   0.127  10.202  10.396 -0.1748 -0.0546 -0.0224
  295loPI   C2A 4712   0.254  10.251   9.944 -0.1569 -0.0379  0.3491
  295loPI   C3A 4713   0.136  10.084   9.545 -0.2622 -0.1554 -0.1658
  295loPI   C4A 4714  -0.115   9.958   9.162  0.1704 -0.4999  0.2114
  295loPI   C5A 4715   0.049   9.809   8.783 -0.1794 -0.1445 -0.2126
  295loPI   C6A 4716   0.240   9.446   8.581 -0.1447 -0.0600  0.1708
  295loPI   C1B 4717   0.598   9.907  10.339  0.2628  0.1488  0.1655
  295loPI   C2B 4718   0.815  10.125   9.988  0.0985 -0.1386 -0.0369
  295loPI   C3B 4719   1.004  10.241   9.608  0.0347  0.2616 -0.0864
  295loPI   C4B 4720   1.031   9.999   9.173  0.1121  0.0953 -0.2002
  296loPI    C1 4721   6.005  12.404  10.666  0.0179 -0.0851  0.1358
  296loPI    C2 4722   5.605  12.399  10.669  0.0151  0.0143  0.0348
  296loPI    C3 4723   5.804  12.595  10.955 -0.0103  0.0463  0.0306
  296loPI   PO4 4724   6.097  12.225  10.570  0.2759 -0.1851 -0.0783
  296loPI   GL1 4725   6.197  12.103  10.195  0.0732 -0.2367  0.0690
  296loPI   GL2 4726   6.262  11.810  10.251 -0.0389 -0.2875  0.2200
  296loPI   C1A 4727   6.384  12.237   9.810  0.1124 -0.5544  0.0308
  296loPI   C2A 4728   6.399  12.095   9.455  0.0802  0.1268  0.2026
  296loPI   C3A 4729   6.488  12.156   9.001 -0.1582  0.0960 -0.1359
  296loPI   C4A 4730   6.554  12.424   8.677  0.2385 -0.1178  0.1099
  296loPI   C5A 4731   6.322  12.645   8.299  0.1002  0.0252 -0.0466
  296loPI   C6A 4732   6.496  12.829   7.835 -0.0752  0.1109  0.1595
  296loPI   C1B 4733   6.071  11.845   9.736 -0.0896 -0.1240 -0.0274
  296loPI   C2B 4734   6.170  11.799   9.157  0.0416  0.3704 -0.4175
  296loPI   C3B 4735   5.905  11.930   8.833 -0.2029 -0.1732 -0.1340
  296loPI   C4B 4736   5.902  11.968   8.422  0.1477  0.2297  0.1166
  297loPI    C1 4737   3.043   7.464  11.265 -0.2352 -0.2033  0.3251
  297loPI    C2 4738   2.767   7.652  11.486 -0.1163  0.3922 -0.0120
  297loPI    C3 4739   3.115   7.543  11.651 -0.3739  0.0223  0.3067
  297loPI   PO4 4740   2.872   7.349  11.090 -0.1595 -0.2091  0.1722
  297loPI   GL1 4741   2.637   7.337  10.733 -0.1249 -0.3263  0.0218
  297loPI   GL2 4742   2.934   7.214  10.561 -0.1655  0.2046 -0.1187
  297loPI   C1A 4743   2.536   7.311  10.243  0.0758  0.1119  0.0503
  297loPI   C2A 4744   2.493   7.270   9.832  0.0026  0.1515  0.1887
  297loPI   C3A 4745   2.369   7.353   9.409  0.0141 -0.0958 -0.0283
  297loPI   C4A 4746   2.501   7.276   8.967 -0.0418  0.3614 -0.1897
  297loPI   C5A 4747   2.650   7.241   8.516 -0.3282 -0.2668  0.0912
  297loPI   C6A 4748   2.876   7.668   8.243  0.2443  0.1196 -0.3005
  297loPI   C1B 4749   2.985   6.965  10.277  0.2545  0.1333  0.1279
  297loPI   C2B 4750   2.996   7.066   9.740  0.0058  0.0545 -0.1243
  297loPI   C3B 4751   2.846   7.107   9.364 -0.0876 -0.1219 -0.1752
  297loPI   C4B 4752   2.885   6.972   8.973 -0.1688  0.3248 -0.4481
  298loPI    C1 4753   6.152  15.780  10.529  0.0547  0.0119 -0.0833
  298loPI    C2 4754   6.371  15.818  10.862  0.0992 -0.0247 -0.1083
  298loPI    C3 4755   6.009  15.649  10.879  0.0472  0.0912 -0.0565
  298loPI   PO4 4756   6.078  16.058  10.378  0.0052  0.2399 -0.2395
  298loPI   GL1 4757   6.136  16.113   9.949 -0.2460 -0.0118 -0.3591
  298loPI   GL2 4758   6.094  16.378   9.802 -0.0218  0.2855 -0.1170
  298loPI   C1A 4759   6.143  15.847   9.549 -0.0225 -0.0835  0.0941
  298loPI   C2A 4760   6.105  15.602   9.109 -0.0225  0.1214 -0.3185
  298loPI   C3A 4761   6.110  15.496   8.756 -0.1576 -0.0596 -0.2811
  298loPI   C4A 4762   6.192  15.514   8.445 -0.0939  0.1059 -0.2268
  298loPI   C5A 4763   6.309  15.314   8.154  0.0405  0.1468  0.0739
  298loPI   C6A 4764   6.486  15.364   7.770  0.1606  0.4916  0.1649
  298loPI   C1B 4765   6.277  16.485   9.360  0.1896 -0.0386  0.3833
  298loPI   C2B 4766   6.245  16.494   8.924 -0.2049  0.1246 -0.2225
  298loPI   C3B 4767   6.061  16.482   8.518 -0.1707  0.2007  0.2225
  298loPI   C4B 4768   5.844  16.698   8.234  0.1541  0.2378  0.0516
  299loPI    C1 4769   1.248  13.261  10.933  0.0153 -0.0905 -0.0537
  299loPI    C2 4770   1.360  13.359  11.305 -0.0253  0.1234 -0.0962
  299loPI    C3 4771   1.057  13.553  11.130 -0.3890 -0.3627 -0.0293
  299loPI   PO4 4772   1.421  13.295  10.795  0.2007  0.1769 -0.1882
  299loPI   GL1 4773   1.549  13.164  10.502 -0.0938 -0.4210 -0.2392
  299loPI   GL2 4774   1.377  12.889  10.493 -0.0408  0.3098 -0.1028
  299loPI   C1A 4775   1.527  13.287  10.137  0.0095  0.1281 -0.0355
  299loPI   C2A 4776   1.495  13.243   9.691 -0.2288 -0.0128  0.0043
  299loPI   C3A 4777   1.710  13.322   9.359 -0.0127 -0.1883 -0.2225
  299loPI   C4A 4778   1.726  13.401   8.866 -0.1144 -0.0433  0.2438
  299loPI   C5A 4779   1.484  13.419   8.540 -0.1341 -0.0326  0.2029
  299loPI   C6A 4780   1.209  13.614   8.375  0.0239  0.0758 -0.4018
  299loPI   C1B 4781   1.362  12.808  10.048  0.2216 -0.1992 -0.1675
  299loPI   C2B 4782   1.421  12.773   9.625 -0.0932 -0.3447  0.0183
  299loPI   C3B 4783   1.594  12.751   9.360  0.1920  0.1474  0.0447
  299loPI   C4B 4784   1.414  12.879   9.077 -0.0896  0.1423  0.1980
  300loPI    C1 4785   2.757   5.468  10.884 -0.1131 -0.0611 -0.2003
  300loPI    C2 4786   3.023   5.332  11.151 -0.1494  0.0712 -0.0961
  300loPI    C3 4787   2.631   5.314  11.231 -0.1559  0.2077 -0.0946
  300loPI   PO4 4788   2.759   5.378  10.622 -0.0231  0.0411 -0.0930
  300loPI   GL1 4789   2.881   5.448  10.224  0.1448  0.3643  0.1861
  300loPI   GL2 4790   2.601   5.413  10.156 -0.0451  0.0522  0.5174
  300loPI   C1A 4791   2.975   5.344   9.787 -0.0786  0.1229  0.3538
  300loPI   C2A 4792   2.938   5.559   9.432  0.0041  0.4001  0.1410
  300loPI   C3A 4793   2.715   5.604   9.076 -0.0637  0.2030 -0.0190
  300loPI   C4A 4794   2.572   6.008   8.895 -0.1987  0.1537  0.0951
  300loPI   C5A 4795   2.318   6.254   9.030 -0.4563  0.0038 -0.1834
  300loPI   C6A 4796   2.270   6.237   9.578 -0.0771  0.0261 -0.1090
  300loPI   C1B 4797   2.614   5.664   9.910 -0.2196 -0.0968  0.0681
  300loPI   C2B 4798   2.249   5.794   9.637 -0.2369  0.4747 -0.3099
  300loPI   C3B 4799   2.262   5.799   9.256 -0.0507  0.0985  0.1525
  300loPI   C4B 4800   2.257   5.639   8.919 -0.0123  0.2607  0.2761
  301loPI    C1 4801  17.502  17.035  10.594 -0.2516 -0.0789  0.1570
  301loPI    C2 4802  17.704  17.255  10.859  0.0693  0.0756 -0.2052
  301loPI    C3 4803  17.640  16.866  10.929 -0.1044  0.1761  0.2273
  301loPI   PO4 4804  17.601  17.121  10.368 -0.0705  0.1277  0.3622
  301loPI   GL1 4805  17.428  17.291  10.012 -0.0394  0.2290 -0.1372
  301loPI   GL2 4806  17.114  17.301   9.888 -0.1313  0.1413  0.0183
  301loPI   C1A 4807  17.584  17.101   9.613 -0.1536  0.0045 -0.1210
  301loPI   C2A 4808  18.025  17.003   9.495  0.0730  0.1709 -0.0535
  301loPI   C3A 4809  18.288  16.735   9.505 -0.0184 -0.1808 -0.1694
  301loPI   C4A 4810  18.640  16.570   9.257  0.2214 -0.0216  0.0191
  301loPI   C5A 4811  18.945  16.500   9.121  0.1684  0.1487  0.3869
  301loPI   C6A 4812  19.331  16.377   8.877 -0.0808  0.1140 -0.4354
  301loPI   C1B 4813  17.128  17.530   9.548 -0.0540 -0.0439  0.1978
  301loPI   C2B 4814  16.931  17.496   9.077 -0.0846 -0.0982  0.3982
  301loPI   C3B 4815  16.835  17.310   8.654  0.1967 -0.2108 -0.0650
  301loPI   C4B 4816  16.450  17.292   8.317  0.1688  0.2745 -0.1885
  302loPI    C1 4817  10.365   1.339  10.798  0.1401 -0.0126 -0.2466
  302loPI    C2 4818  10.614   1.281  11.106  0.1678 -0.3314 -0.3255
  302loPI    C3 4819  10.265   1.469  11.162  0.3592 -0.0101 -0.1860
  302loPI   PO4 4820  10.523   1.372  10.563 -0.1387 -0.0866  0.0401
  302loPI   GL1 4821  10.767   1.377  10.164  0.0188  0.0582  0.2039
  302loPI   GL2 4822  10.605   1.406   9.767 -0.1215 -0.0766  0.1312
  302loPI   C1A 4823  11.153   1.486   9.885 -0.0463  0.2241  0.2366
  302loPI   C2A 4824  11.285   1.656   9.482  0.0515  0.0234  0.0154
  302loPI   C3A 4825  11.025   1.654   9.155  0.2523 -0.2045  0.1638
  302loPI   C4A 4826  10.936   1.687   8.779  0.2635 -0.1987  0.1620
  302loPI   C5A 4827  10.941   1.810   8.367 -0.0742  0.1487 -0.2868
  302loPI   C6A 4828  11.129   1.674   8.080  0.0447 -0.1300  0.1079
  302loPI   C1B 4829  10.703   1.263   9.222  0.2565 -0.0290  0.1019
  302loPI   C2B 4830  10.944   1.210   8.874 -0.2678  0.1212  0.0269
  302loPI   C3B 4831  11.290   1.364   8.605 -0.1150 -0.0767  0.0758
  302loPI   C4B 4832  11.662   1.487   8.390 -0.0922  0.0136 -0.0261
  303loPI    C1 4833   9.057  12.520  10.964  0.0930  0.1335  0.2457
  303loPI    C2 4834   9.223  12.172  11.068  0.4255  0.1955 -0.0561
  303loPI    C3 4835   9.041  12.397  11.344  0.0843 -0.2761  0.1171
  303loPI   PO4 4836   9.186  12.631  10.777 -0.1098  0.1738 -0.4027
  303loPI   GL1 4837   9.519  12.843  10.591 -0.0264  0.3343  0.0646
  303loPI   GL2 4838   9.792  12.867  10.470  0.1973  0.1800 -0.2971
  303loPI   C1A 4839   9.404  12.702  10.180  0.1674  0.2309  0.1228
  303loPI   C2A 4840   9.356  12.446   9.797  0.0741  0.1205  0.2551
  303loPI   C3A 4841   9.278  12.294   9.388 -0.0743  0.0933 -0.0261
  303loPI   C4A 4842   9.212  12.089   8.995 -0.2613  0.1347  0.2262
  303loPI   C5A 4843   9.162  11.726   8.768 -0.1366  0.2555 -0.2747
  303loPI   C6A 4844   9.001  11.536   8.418 -0.0271 -0.3493  0.1252
  303loPI   C1B 4845   9.953  12.871  10.091  0.1576 -0.1024  0.2843
  303loPI   C2B 4846  10.011  12.872   9.609 -0.1737  0.0902 -0.1359
  303loPI   C3B 4847  10.370  12.915   9.450  0.3168  0.0585 -0.3227
  303loPI   C4B 4848  10.280  13.000   8.961  0.0025  0.2822 -0.0645
  304loPI    C1 4849  17.808   3.426  10.935  0.0227 -0.1202 -0.1216
  304loPI    C2 4850  18.076   3.719  10.982 -0.1925  0.0985 -0.2303
  304loPI    C3 4851  17.906   3.550  11.302  0.0029  0.0238 -0.1641
  304loPI   PO4 4852  17.695   3.537  10.716 -0.1896 -0.3370  0.3262
  304loPI   GL1 4853  17.622   3.616  10.301 -0.2254 -0.0073  0.3616
  304loPI   GL2 4854  17.598   3.838  10.165 -0.0087 -0.0335 -0.2135
  304loPI   C1A 4855  17.965   3.510  10.067 -0.0959  0.1647  0.0113
  304loPI   C2A 4856  17.946   3.396   9.729 -0.3974  0.1988  0.2133
  304loPI   C3A 4857  17.909   3.282   9.310 -0.3419 -0.3180 -0.0492
  304loPI   C4A 4858  17.936   3.430   8.872  0.0968 -0.0154  0.0120
  304loPI   C5A 4859  17.872   3.455   8.404 -0.2291 -0.2750 -0.1435
  304loPI   C6A 4860  18.203   3.575   8.060 -0.2059 -0.0338  0.0199
  304loPI   C1B 4861  17.519   3.752   9.787  0.0843 -0.1298  0.0025
  304loPI   C2B 4862  17.635   3.731   9.312  0.2526  0.0777 -0.1394
  304loPI   C3B 4863  17.513   3.716   8.788 -0.2429  0.0417  0.0463
  304loPI   C4B 4864  17.506   3.784   8.360 -0.1118  0.2298  0.3694
  305loPI    C1 4865  12.491   7.473  11.393 -0.1603  0.0270  0.1609
  305loPI    C2 4866  12.542   7.197  11.678 -0.0597  0.0468  0.1626
  305loPI    C3 4867  12.486   7.580  11.778  0.1466  0.0806  0.1522
  305loPI   PO4 4868  12.696   7.402  11.229 -0.0454  0.0207 -0.2206
  305loPI   GL1 4869  12.884   7.556  10.924  0.2597 -0.0943 -0.1279
  305loPI   GL2 4870  12.730   7.251  10.764  0.2972 -0.1272 -0.0913
  305loPI   C1A 4871  12.645   7.735  10.505  0.3942  0.1838  0.1712
  305loPI   C2A 4872  12.713   7.650  10.026 -0.0888 -0.0616  0.2866
  305loPI   C3A 4873  12.591   7.563   9.594  0.0091  0.1005 -0.0835
  305loPI   C4A 4874  12.649   7.615   9.182  0.2163 -0.1734  0.1260
  305loPI   C5A 4875  12.542   7.623   8.659  0.2127  0.1169  0.0909
  305loPI   C6A 4876  12.477   7.253   8.557 -0.3276  0.1526  0.1826
  305loPI   C1B 4877  12.649   7.077  10.416  0.1395 -0.1437 -0.2082
  305loPI   C2B 4878  12.605   7.102   9.969  0.1465  0.0356  0.0278
  305loPI   C3B 4879  12.519   7.094   9.540 -0.1380 -0.0971  0.2442
  305loPI   C4B 4880  12.525   7.176   9.086 -0.0773 -0.2956 -0.1345
  306loPI    C1 4881   8.559  14.791  11.018 -0.2074 -0.0628 -0.0323
  306loPI    C2 4882   8.500  14.531  11.316 -0.1283  0.1014  0.1282
  306loPI    C3 4883   8.789  14.465  11.048 -0.1190  0.0162  0.1590
  306loPI   PO4 4884   8.284  14.848  10.879 -0.1238 -0.2304 -0.2642
  306loPI   GL1 4885   8.158  14.910  10.450 -0.0673  0.1564 -0.4190
  306loPI   GL2 4886   8.301  15.131  10.253 -0.2460 -0.2975  0.3269
  306loPI   C1A 4887   8.453  14.633  10.291  0.1298 -0.1749  0.0437
  306loPI   C2A 4888   8.524  14.373   9.910  0.2516  0.0427  0.1808
  306loPI   C3A 4889   8.580  14.175   9.482 -0.0630  0.0890  0.0456
  306loPI   C4A 4890   8.387  14.060   8.935 -0.2239  0.0325  0.2589
  306loPI   C5A 4891   8.608  13.934   8.534 -0.1975  0.2336 -0.3042
  306loPI   C6A 4892   9.032  13.774   8.510 -0.1064 -0.0797  0.4555
  306loPI   C1B 4893   8.220  14.846   9.908 -0.0651  0.0474 -0.0328
  306loPI   C2B 4894   8.110  14.607   9.596 -0.1738  0.3147 -0.1416
  306loPI   C3B 4895   8.047  14.163   9.480 -0.3583 -0.1140  0.3366
  306loPI   C4B 4896   7.716  13.843   9.370  0.1049 -0.2430  0.0971
  307loPI    C1 4897  10.955   5.483  11.275  0.0753  0.0062  0.2278
  307loPI    C2 4898  11.017   5.149  11.486 -0.1617 -0.0699  0.1799
  307loPI    C3 4899  10.830   5.460  11.654 -0.0227  0.0061  0.1957
  307loPI   PO4 4900  10.916   5.427  11.020 -0.0252  0.1216  0.4120
  307loPI   GL1 4901  11.183   5.198  10.684 -0.0053  0.0846 -0.1657
  307loPI   GL2 4902  11.457   4.928  10.676  0.3181 -0.0586 -0.0028
  307loPI   C1A 4903  11.295   5.290  10.329 -0.1155  0.1867  0.0198
  307loPI   C2A 4904  11.321   5.240   9.832  0.0568  0.1600  0.2969
  307loPI   C3A 4905  11.329   5.222   9.354  0.0597  0.2380 -0.3235
  307loPI   C4A 4906  11.279   5.137   8.933 -0.0026  0.0415  0.0191
  307loPI   C5A 4907  11.244   5.083   8.459  0.0353 -0.2766  0.0060
  307loPI   C6A 4908  11.510   4.927   8.113  0.0048  0.0573  0.1341
  307loPI   C1B 4909  11.412   4.817  10.238 -0.1051 -0.0349 -0.1832
  307loPI   C2B 4910  11.330   4.570   9.854  0.0075 -0.0393 -0.0037
  307loPI   C3B 4911  11.138   4.722   9.518  0.0835 -0.0820 -0.0594
  307loPI   C4B 4912  11.238   4.691   9.132 -0.2574 -0.1809  0.0466
  308loPI    C1 4913   8.995   7.308  11.670  0.0897  0.2778 -0.1083
  308loPI    C2 4914   8.705   7.034  11.703  0.2398  0.1108 -0.1634
  308loPI    C3 4915   8.647   7.404  11.843  0.0308  0.0554 -0.0999
  308loPI   PO4 4916   9.040   7.321  11.417 -0.2277 -0.1573 -0.2300
  308loPI   GL1 4917   9.092   7.436  10.926  0.0376  0.1922 -0.1943
  308loPI   GL2 4918   9.247   7.195  10.896 -0.0341  0.0740 -0.3893
  308loPI   C1A 4919   9.103   7.740  10.590  0.1446 -0.0534  0.0356
  308loPI   C2A 4920   9.067   7.976  10.166 -0.3569  0.1034 -0.3324
  308loPI   C3A 4921   8.936   8.154   9.697 -0.1512 -0.5057 -0.3289
  308loPI   C4A 4922   8.923   8.101   9.258 -0.2741  0.1242 -0.3311
  308loPI   C5A 4923   8.979   8.079   8.807 -0.3537 -0.0887  0.1646
  308loPI   C6A 4924   9.272   8.111   8.376  0.3400  0.0230 -0.0572
  308loPI   C1B 4925   9.277   7.106  10.452  0.3745  0.0568 -0.0794
  308loPI   C2B 4926   9.300   7.177  10.076  0.1404  0.0264  0.2292
  308loPI   C3B 4927   9.227   7.213   9.629  0.0120 -0.1897 -0.0083
  308loPI   C4B 4928   9.354   7.295   9.244  0.0170  0.1742  0.0443
  309loPI    C1 4929   6.228   0.733  10.787 -0.0442  0.2025 -0.0807
  309loPI    C2 4930   5.948   0.471  10.900  0.0012  0.0964 -0.2122
  309loPI    C3 4931   5.944   0.843  11.046  0.0752 -0.0449  0.1605
  309loPI   PO4 4932   6.169   0.672  10.504  0.1204  0.2151  0.1496
  309loPI   GL1 4933   6.047   0.698  10.162  0.2454  0.0896 -0.0354
  309loPI   GL2 4934   6.400   0.643   9.925  0.0071  0.1073  0.1340
  309loPI   C1A 4935   5.912   0.768   9.808  0.0456  0.0670  0.0103
  309loPI   C2A 4936   5.913   0.810   9.379  0.0058 -0.0767 -0.1653
  309loPI   C3A 4937   6.032   0.882   8.948  0.1865 -0.0761 -0.3085
  309loPI   C4A 4938   6.182   1.196   8.867 -0.2410 -0.2797 -0.1112
  309loPI   C5A 4939   6.618   1.400   8.851 -0.1678  0.0658  0.1931
  309loPI   C6A 4940   6.949   1.593   8.718  0.0312 -0.0192  0.4136
  309loPI   C1B 4941   6.379   0.933   9.628 -0.0545  0.0777  0.0255
  309loPI   C2B 4942   6.416   1.006   9.259 -0.0260 -0.0105 -0.1306
  309loPI   C3B 4943   6.618   0.886   8.875 -0.2197  0.1682  0.1676
  309loPI   C4B 4944   7.069   0.697   8.736  0.1749  0.0492 -0.3970
  310loPI    C1 4945  17.233  15.016  10.936 -0.2034 -0.0616 -0.0293
  310loPI    C2 4946  17.306  14.895  11.311 -0.1739  0.0593  0.0043
  310loPI    C3 4947  16.929  14.936  11.184 -0.1863  0.2734  0.1050
  310loPI   PO4 4948  17.430  15.087  10.865  0.0628  0.1675 -0.0509
  310loPI   GL1 4949  17.524  15.018  10.420  0.1332  0.1766  0.0872
  310loPI   GL2 4950  17.280  14.746  10.501  0.0293  0.0955 -0.0876
  310loPI   C1A 4951  17.674  14.921  10.033  0.2885 -0.3428  0.2790
  310loPI   C2A 4952  17.960  14.824   9.667  0.0662  0.2296 -0.1612
  310loPI   C3A 4953  17.966  14.763   9.263 -0.0375 -0.1030  0.1202
  310loPI   C4A 4954  17.940  14.714   8.818 -0.2456 -0.0588  0.0407
  310loPI   C5A 4955  17.587  14.657   8.500  0.4407  0.3312  0.0646
  310loPI   C6A 4956  17.221  15.049   8.438  0.1755  0.1056  0.1416
  310loPI   C1B 4957  17.551  14.442  10.229  0.1702 -0.1042 -0.1057
  310loPI   C2B 4958  17.819  14.425   9.960  0.0505  0.0856  0.1045
  310loPI   C3B 4959  17.927  14.322   9.506 -0.0399  0.1159 -0.1243
  310loPI   C4B 4960  18.108  14.301   9.084 -0.0471  0.1700 -0.0323
  311loPI    C1 4961   4.822   8.149  11.176 -0.0674 -0.0528 -0.0089
  311loPI    C2 4962   4.819   7.790  11.353  0.0283 -0.0255  0.0485
  311loPI    C3 4963   4.762   8.121  11.571 -0.2044 -0.0143 -0.0264
  311loPI   PO4 4964   4.703   8.059  10.965  0.1623 -0.1878  0.1224
  311loPI   GL1 4965   4.533   8.205  10.516  0.0026  0.4591 -0.1103
  311loPI   GL2 4966   4.455   7.827  10.497 -0.0182  0.1040  0.1067
  311loPI   C1A 4967   4.844   8.159  10.186 -0.0894 -0.0348 -0.1665
  311loPI   C2A 4968   4.990   8.217   9.874  0.1937 -0.0409  0.2431
  311loPI   C3A 4969   4.941   8.313   9.385  0.3236  0.0105 -0.0262
  311loPI   C4A 4970   4.911   8.327   8.947  0.0990 -0.1986  0.2795
  311loPI   C5A 4971   4.944   8.176   8.532  0.0467  0.0299  0.1113
  311loPI   C6A 4972   5.098   8.180   8.079 -0.0229 -0.0501 -0.1372
  311loPI   C1B 4973   4.420   7.872  10.104 -0.3992 -0.2150 -0.2260
  311loPI   C2B 4974   4.476   8.070   9.680 -0.2842 -0.2726 -0.1057
  311loPI   C3B 4975   4.495   8.145   9.174  0.0516  0.2644 -0.0623
  311loPI   C4B 4976   4.472   8.091   8.786  0.1783  0.0361 -0.4517
  312loPI    C1 4977  15.932   1.954  10.672 -0.0833 -0.1020 -0.0206
  312loPI    C2 4978  16.149   1.919  11.007  0.1243 -0.1353 -0.1568
  312loPI    C3 4979  15.768   1.798  11.002  0.0892 -0.0403  0.0961
  312loPI   PO4 4980  16.082   1.849  10.420  0.3712 -0.1601  0.0009
  312loPI   GL1 4981  16.155   2.056  10.144  0.0708  0.0770  0.3112
  312loPI   GL2 4982  15.806   2.067  10.069  0.0046 -0.1357  0.2261
  312loPI   C1A 4983  16.267   1.777   9.761  0.1309 -0.1002 -0.0545
  312loPI   C2A 4984  16.365   1.852   9.282  0.0115  0.1722 -0.2361
  312loPI   C3A 4985  16.351   1.774   8.866  0.0756 -0.0560  0.1509
  312loPI   C4A 4986  16.296   1.857   8.455  0.2648  0.0848 -0.4820
  312loPI   C5A 4987  16.100   1.799   8.099 -0.1318 -0.0233 -0.1783
  312loPI   C6A 4988  16.171   1.502   7.689  0.0149 -0.1485  0.0576
  312loPI   C1B 4989  15.839   2.084   9.646 -0.1321 -0.1457 -0.0570
  312loPI   C2B 4990  15.942   2.193   9.308  0.2522  0.1032 -0.2068
  312loPI   C3B 4991  15.994   2.135   8.860 -0.0108 -0.2823 -0.2702
  312loPI   C4B 4992  15.813   2.095   8.517  0.0277  0.0895 -0.2599
  313loPI    C1 4993   8.519  11.700  11.227 -0.1697 -0.2306 -0.0162
  313loPI    C2 4994   8.504  11.654  11.624  0.0442 -0.1245  0.0054
  313loPI    C3 4995   8.449  12.016  11.462 -0.1809 -0.1916 -0.0717
  313loPI   PO4 4996   8.348  11.577  11.054  0.1882 -0.1437  0.3714
  313loPI   GL1 4997   8.123  11.578  10.710  0.0168 -0.0416 -0.1393
  313loPI   GL2 4998   8.233  11.249  10.649  0.1777 -0.0875 -0.0609
  313loPI   C1A 4999   7.742  11.397  10.459  0.0574  0.3627 -0.2994
  313loPI   C2A 5000   7.538  11.477  10.038 -0.0089 -0.0088  0.1324
  313loPI   C3A 5001   7.571  11.561   9.659 -0.0957  0.2035 -0.3765
  313loPI   C4A 5002   7.596  11.532   9.305 -0.1687  0.1125  0.1811
  313loPI   C5A 5003   7.617  11.436   8.930 -0.0947 -0.0091  0.0445
  313loPI   C6A 5004   7.675  11.233   8.611  0.1748  0.0115  0.3377
  313loPI   C1B 5005   8.273  11.218  10.231 -0.2001  0.0440 -0.0216
  313loPI   C2B 5006   8.446  11.118   9.823 -0.1367 -0.0041  0.2458
  313loPI   C3B 5007   8.394  11.151   9.403 -0.0830  0.0419  0.0178
  313loPI   C4B 5008   8.427  11.164   9.000  0.4292 -0.0601 -0.2581
  314loPI    C1 5009   6.670  10.185  11.030  0.1225  0.3886 -0.0008
  314loPI    C2 5010   6.901   9.939  11.244  0.2429  0.2323 -0.3049
  314loPI    C3 5011   6.836  10.312  11.371  0.1825  0.0951  0.0827
  314loPI   PO4 5012   6.724  10.125  10.782 -0.0677 -0.1175  0.1674
  314loPI   GL1 5013   6.268  10.072  10.546 -0.0814 -0.2799 -0.2134
  314loPI   GL2 5014   6.175   9.751  10.563 -0.1314  0.2081 -0.2949
  314loPI   C1A 5015   6.475   9.967  10.159  0.1078  0.3109 -0.1676
  314loPI   C2A 5016   6.461   9.947   9.685  0.1951  0.1075 -0.0491
  314loPI   C3A 5017   6.502   9.936   9.224  0.1525 -0.1914 -0.1289
  314loPI   C4A 5018   6.514   9.903   8.783  0.0525  0.1558 -0.0492
  314loPI   C5A 5019   6.231   9.892   8.488 -0.0161 -0.1515 -0.0184
  314loPI   C6A 5020   5.999  10.210   8.388  0.0277 -0.0142 -0.3859
  314loPI   C1B 5021   6.009   9.783  10.219 -0.0968  0.0687  0.0789
  314loPI   C2B 5022   6.069   9.722   9.844  0.0315 -0.0893 -0.0253
  314loPI   C3B 5023   6.058   9.776   9.399 -0.1308  0.1340  0.0136
  314loPI   C4B 5024   6.103   9.709   8.971 -0.5428 -0.0209  0.1067
  315loPI    C1 5025   9.816   4.618  11.540  0.0165  0.0003  0.1943
  315loPI    C2 5026   9.627   4.901  11.751 -0.2786 -0.0946  0.0624
  315loPI    C3 5027   9.573   4.515  11.841 -0.0729 -0.1203  0.0815
  315loPI   PO4 5028   9.742   4.701  11.222 -0.0285 -0.2246 -0.2040
  315loPI   GL1 5029   9.602   5.031  10.964  0.1432 -0.1129 -0.0518
  315loPI   GL2 5030   9.922   4.954  10.747  0.2771 -0.2642  0.0862
  315loPI   C1A 5031   9.444   5.271  10.537  0.2477  0.4136 -0.1056
  315loPI   C2A 5032   9.581   5.355  10.109 -0.0833  0.0127 -0.0017
  315loPI   C3A 5033   9.508   5.291   9.714  0.0542  0.1237 -0.0603
  315loPI   C4A 5034   9.542   5.497   9.243  0.0409  0.0550  0.0573
  315loPI   C5A 5035   9.543   5.442   8.789 -0.1767 -0.3376  0.1297
  315loPI   C6A 5036   9.736   5.699   8.562  0.0191  0.0344  0.0178
  315loPI   C1B 5037   9.671   4.889  10.358 -0.1188 -0.0484 -0.1406
  315loPI   C2B 5038   9.394   4.867   9.976 -0.1605  0.0604  0.0755
  315loPI   C3B 5039   9.381   4.811   9.607 -0.3808  0.1943  0.0413
  315loPI   C4B 5040   9.377   4.951   9.258  0.0754 -0.1111  0.2541
  316loPI    C1 5041  12.894  17.001  10.647  0.0566 -0.0630  0.1257
  316loPI    C2 5042  12.698  16.795  10.365  0.1976 -0.1661  0.1015
  316loPI    C3 5043  12.650  16.702  10.751 -0.2282  0.1689  0.1377
  316loPI   PO4 5044  13.004  17.225  10.596  0.0035 -0.0170  0.0597
  316loPI   GL1 5045  12.851  17.329  10.204 -0.0366 -0.3389  0.0128
  316loPI   GL2 5046  12.973  17.579  10.233  0.1536 -0.1384  0.1122
  316loPI   C1A 5047  12.747  17.530   9.799 -0.2568 -0.3198 -0.3135
  316loPI   C2A 5048  12.448  17.369   9.377  0.0065  0.2286  0.0792
  316loPI   C3A 5049  12.143  17.053   9.511  0.2406 -0.1040  0.0426
  316loPI   C4A 5050  12.049  16.670   9.760 -0.1808 -0.3822  0.4226
  316loPI   C5A 5051  11.632  16.330   9.675  0.1425 -0.0716 -0.1467
  316loPI   C6A 5052  11.498  16.125   9.242 -0.0209  0.0187 -0.2644
  316loPI   C1B 5053  13.044  17.939  10.046  0.0473  0.2106  0.0012
  316loPI   C2B 5054  12.979  17.932   9.586  0.0914 -0.1548  0.0808
  316loPI   C3B 5055  12.844  17.726   9.309  0.4688 -0.0770 -0.2325
  316loPI   C4B 5056  12.566  17.708   8.917 -0.1383  0.0968 -0.0016
  317loPI    C1 5057  14.897  16.324  10.678  0.1168 -0.0765 -0.0949
  317loPI    C2 5058  14.764  15.975  10.820 -0.0194 -0.0154 -0.0708
  317loPI    C3 5059  15.045  16.178  11.019  0.1124 -0.1456 -0.1226
  317loPI   PO4 5060  14.722  16.525  10.575 -0.0468 -0.3499  0.5659
  317loPI   GL1 5061  14.836  16.703  10.154  0.4055  0.1621  0.0906
  317loPI   GL2 5062  14.977  16.982  10.267 -0.0527  0.0491 -0.0825
  317loPI   C1A 5063  14.963  16.498   9.868  0.2115 -0.0666 -0.4072
  317loPI   C2A 5064  15.042  16.576   9.377  0.1289 -0.1411  0.2621
  317loPI   C3A 5065  15.043  16.751   8.919 -0.1275  0.1037  0.0829
  317loPI   C4A 5066  14.990  16.733   8.469  0.2751 -0.3322  0.2329
  317loPI   C5A 5067  14.625  17.098   8.234 -0.0475  0.1779 -0.2808
  317loPI   C6A 5068  14.636  17.362   7.820 -0.1996 -0.0037  0.0348
  317loPI   C1B 5069  14.735  17.223   9.997  0.0254 -0.0802  0.0569
  317loPI   C2B 5070  14.675  17.318   9.591  0.0836 -0.2104  0.0439
  317loPI   C3B 5071  14.687  17.639   9.211 -0.0860 -0.2842  0.2828
  317loPI   C4B 5072  14.646  17.582   8.777  0.1304 -0.1218  0.1396
  318loPI    C1 5073  16.198   8.625  11.388 -0.2452 -0.0230  0.3957
  318loPI    C2 5074  16.159   8.228  11.420  0.0615 -0.0710  0.2105
  318loPI    C3 5075  16.418   8.424  11.655  0.0371 -0.0038  0.1815
  318loPI   PO4 5076  16.197   8.580  11.056  0.2112  0.0254  0.1506
  318loPI   GL1 5077  16.489   8.594  10.669 -0.1252  0.1098 -0.2203
  318loPI   GL2 5078  16.611   8.224  10.591 -0.0704 -0.0025 -0.0228
  318loPI   C1A 5079  16.544   8.557  10.188 -0.1947 -0.2707 -0.0074
  318loPI   C2A 5080  16.356   8.594   9.798  0.1744 -0.0838 -0.0937
  318loPI   C3A 5081  16.430   8.598   9.393  0.1121  0.0375 -0.1075
  318loPI   C4A 5082  16.375   8.538   9.021 -0.2235 -0.0407  0.1213
  318loPI   C5A 5083  16.327   8.433   8.657  0.1260  0.0536  0.2492
  318loPI   C6A 5084  16.183   8.027   8.561  0.0912  0.0004  0.2043
  318loPI   C1B 5085  16.340   8.100  10.256 -0.2618 -0.2396 -0.5162
  318loPI   C2B 5086  16.273   8.140   9.897 -0.1472 -0.0965  0.1952
  318loPI   C3B 5087  16.307   8.102   9.457 -0.0336  0.2073  0.1987
  318loPI   C4B 5088  16.345   8.032   9.040 -0.0588 -0.2758  0.0084
  319loPI    C1 5089   6.550  13.416  10.335  0.3187 -0.0701  0.1907
  319loPI    C2 5090   6.665  13.618  10.661 -0.0415  0.2906  0.1028
  319loPI    C3 5091   6.515  13.249  10.696  0.0785  0.2616  0.3258
  319loPI   PO4 5092   6.491  13.594  10.242 -0.1233  0.3271  0.0957
  319loPI   GL1 5093   6.522  13.752   9.745  0.2471  0.1721 -0.0739
  319loPI   GL2 5094   6.570  14.127   9.797  0.1357 -0.2694  0.0876
  319loPI   C1A 5095   6.415  13.552   9.347  0.1822  0.0560  0.0304
  319loPI   C2A 5096   6.419  13.204   9.098 -0.0363  0.0782  0.4166
  319loPI   C3A 5097   6.589  12.783   9.124  0.1469 -0.3611  0.0846
  319loPI   C4A 5098   6.902  12.419   9.124 -0.1002  0.0554  0.1632
  319loPI   C5A 5099   7.075  12.277   8.720  0.1586  0.0677  0.1938
  319loPI   C6A 5100   7.258  12.494   8.413 -0.0816  0.1179 -0.1140
  319loPI   C1B 5101   6.425  14.097   9.377 -0.0862  0.0809  0.0969
  319loPI   C2B 5102   6.414  13.948   8.960 -0.3138  0.1683  0.0260
  319loPI   C3B 5103   6.392  13.956   8.532 -0.0457  0.2134  0.2016
  319loPI   C4B 5104   6.041  14.090   8.350 -0.2398  0.2916 -0.1971
  320loPI    C1 5105  15.637  11.564  10.765 -0.2385  0.0511 -0.0778
  320loPI    C2 5106  15.559  11.533  11.156  0.0898  0.1164 -0.0039
  320loPI    C3 5107  15.658  11.208  10.945  0.0500  0.1034 -0.0025
  320loPI   PO4 5108  15.515  11.824  10.739 -0.2944  0.1193 -0.0304
  320loPI   GL1 5109  15.488  12.018  10.390 -0.2477  0.0077 -0.0951
  320loPI   GL2 5110  15.668  11.704  10.280 -0.1744 -0.0649 -0.0487
  320loPI   C1A 5111  15.209  11.674  10.141 -0.0054  0.1129  0.0974
  320loPI   C2A 5112  14.973  11.632   9.766  0.1883 -0.1910  0.1028
  320loPI   C3A 5113  14.917  11.451   9.405  0.3778  0.1007 -0.0342
  320loPI   C4A 5114  14.818  11.593   9.003 -0.0352  0.1194 -0.1155
  320loPI   C5A 5115  14.890  11.822   8.608  0.3238  0.0384  0.0082
  320loPI   C6A 5116  15.069  12.160   8.363  0.1063  0.2323  0.0609
  320loPI   C1B 5117  15.712  11.730   9.837 -0.0696  0.0786 -0.0543
  320loPI   C2B 5118  15.677  11.670   9.383  0.3360 -0.3390  0.1776
  320loPI   C3B 5119  15.715  11.578   8.889  0.2355  0.2348  0.1176
  320loPI   C4B 5120  15.925  11.519   8.478  0.1992  0.0973  0.2821
  321loPI    C1 5121   8.162   5.711  11.304 -0.1761 -0.1725  0.0831
  321loPI    C2 5122   8.090   5.454  11.602  0.1856 -0.1247  0.2163
  321loPI    C3 5123   8.364   5.742  11.648 -0.1318  0.2155  0.0261
  321loPI   PO4 5124   8.177   5.637  11.082  0.2130  0.0388 -0.0855
  321loPI   GL1 5125   8.088   5.794  10.669  0.0048  0.0881  0.1158
  321loPI   GL2 5126   7.893   5.613  10.648 -0.2512  0.0830 -0.1047
  321loPI   C1A 5127   8.160   5.792  10.261 -0.2974  0.1698 -0.0669
  321loPI   C2A 5128   8.151   5.758   9.795 -0.1380  0.0599  0.0959
  321loPI   C3A 5129   8.186   5.914   9.377  0.4405 -0.0315 -0.1361
  321loPI   C4A 5130   8.295   5.943   8.981 -0.1937 -0.0664  0.0843
  321loPI   C5A 5131   8.149   5.564   8.653 -0.1436 -0.1070  0.2659
  321loPI   C6A 5132   7.688   5.627   8.403  0.0390 -0.0435  0.0523
  321loPI   C1B 5133   7.638   5.580  10.321 -0.1035 -0.0719  0.2497
  321loPI   C2B 5134   7.735   5.602   9.885 -0.1987 -0.0674 -0.1492
  321loPI   C3B 5135   7.805   5.599   9.449  0.1592 -0.1616  0.2141
  321loPI   C4B 5136   7.827   5.776   9.012  0.0364  0.0334 -0.2258
  322loPI    C1 5137   0.525   0.455  10.702 -0.4493  0.1242  0.0716
  322loPI    C2 5138   0.564   0.106  10.892 -0.1477  0.1612  0.0821
  322loPI    C3 5139   0.220   0.197  10.710 -0.1443 -0.2524 -0.1431
  322loPI   PO4 5140   0.731   0.569  10.480 -0.0372  0.1115  0.1272
  322loPI   GL1 5141   0.962   0.403  10.118  0.0038  0.2355  0.1106
  322loPI   GL2 5142   1.156   0.159   9.839  0.0633 -0.2246 -0.2158
  322loPI   C1A 5143   1.405   0.598   9.948  0.2175  0.1172  0.2938
  322loPI   C2A 5144   1.531   0.531   9.543 -0.0562 -0.0985 -0.2277
  322loPI   C3A 5145   1.528   0.654   9.159  0.1243  0.0786  0.0409
  322loPI   C4A 5146   1.599   0.710   8.774 -0.1160 -0.4324  0.1902
  322loPI   C5A 5147   1.826   0.826   8.479  0.2618 -0.0041  0.0433
  322loPI   C6A 5148   2.207   0.593   8.349 -0.1831  0.1940  0.0001
  322loPI   C1B 5149   1.085   0.314   9.480 -0.3160  0.1866 -0.2277
  322loPI   C2B 5150   0.988   0.483   9.144  0.0378 -0.1091  0.0108
  322loPI   C3B 5151   1.018   0.407   8.621 -0.0018 -0.3008  0.0323
  322loPI   C4B 5152   1.249   0.240   8.257  0.1901  0.2302 -0.0217
  323loPI    C1 5153   2.786  11.697  10.763  0.0931  0.0941 -0.1850
  323loPI    C2 5154   3.051  11.536  11.016 -0.1040 -0.0356 -0.0587
  323loPI    C3 5155   3.176  11.778  10.723  0.1584 -0.1349 -0.0314
  323loPI   PO4 5156   2.625  11.604  10.668 -0.0493 -0.2199  0.0078
  323loPI   GL1 5157   2.508  11.476  10.319  0.0001  0.0463  0.1633
  323loPI   GL2 5158   2.289  11.296  10.229 -0.0245  0.0668  0.0903
  323loPI   C1A 5159   2.563  11.731  10.056  0.2206  0.0085 -0.0954
  323loPI   C2A 5160   2.767  11.877   9.670  0.2900  0.0793  0.0873
  323loPI   C3A 5161   2.702  11.805   9.133  0.0838  0.2400  0.1268
  323loPI   C4A 5162   2.731  11.758   8.753 -0.0016 -0.1505 -0.0685
  323loPI   C5A 5163   2.761  11.824   8.403 -0.0113 -0.3143  0.2766
  323loPI   C6A 5164   2.562  11.867   7.984  0.2835 -0.2834 -0.3310
  323loPI   C1B 5165   2.104  11.136   9.937  0.1127 -0.0276 -0.1177
  323loPI   C2B 5166   2.189  10.915   9.540  0.3665  0.0019 -0.0174
  323loPI   C3B 5167   2.047  10.994   9.123  0.2601 -0.1995  0.3024
  323loPI   C4B 5168   2.156  11.249   8.658 -0.1722 -0.1653 -0.0544
  324loPI    C1 5169  14.405   2.988  11.029 -0.1542 -0.0259 -0.1441
  324loPI    C2 5170  14.266   2.673  10.826  0.2271 -0.2838 -0.0143
  324loPI    C3 5171  14.660   2.722  10.876  0.1781  0.2574 -0.0953
  324loPI   PO4 5172  14.393   3.241  10.889  0.0350  0.0953  0.0933
  324loPI   GL1 5173  14.177   3.460  10.594  0.2221 -0.2711 -0.1618
  324loPI   GL2 5174  14.073   3.788  10.538 -0.1590 -0.0297 -0.1315
  324loPI   C1A 5175  14.297   3.412  10.197 -0.1467  0.0401  0.1405
  324loPI   C2A 5176  14.293   3.386   9.770  0.0163  0.1364  0.2845
  324loPI   C3A 5177  14.253   3.545   9.393 -0.2266 -0.3084  0.0441
  324loPI   C4A 5178  14.259   3.543   8.963 -0.2953 -0.1108  0.0553
  324loPI   C5A 5179  14.327   3.493   8.522 -0.0712  0.3834  0.3595
  324loPI   C6A 5180  14.420   3.304   8.150 -0.1815  0.0352  0.0569
  324loPI   C1B 5181  13.815   3.696  10.234 -0.1827  0.0639 -0.1337
  324loPI   C2B 5182  13.864   3.793   9.803  0.0883 -0.2196 -0.3285
  324loPI   C3B 5183  13.798   3.782   9.428 -0.1393 -0.2796 -0.0461
  324loPI   C4B 5184  13.862   3.807   8.993 -0.1888  0.3417 -0.1189
  325loPI    C1 5185  14.547  11.977  10.948 -0.2246 -0.1544 -0.0412
  325loPI    C2 5186  14.785  12.237  11.137 -0.0255 -0.2471 -0.1612
  325loPI    C3 5187  14.668  11.902  11.322 -0.0822 -0.1902 -0.0937
  325loPI   PO4 5188  14.707  11.865  10.677  0.0032 -0.4509  0.2670
  325loPI   GL1 5189  14.544  11.671  10.247  0.0637 -0.1874  0.0407
  325loPI   GL2 5190  14.301  11.948  10.304 -0.1675 -0.0581  0.0671
  325loPI   C1A 5191  14.500  11.458   9.900 -0.0196 -0.0304  0.0829
  325loPI   C2A 5192  14.496  11.283   9.477  0.0751 -0.0197 -0.2662
  325loPI   C3A 5193  14.301  11.397   9.100 -0.2389 -0.1156  0.1127
  325loPI   C4A 5194  14.413  11.402   8.691 -0.0345  0.1059  0.0338
  325loPI   C5A 5195  14.124  11.332   8.374  0.0047  0.1117  0.1026
  325loPI   C6A 5196  13.757  11.660   8.270  0.0824  0.1343  0.0175
  325loPI   C1B 5197  14.127  11.782   9.942  0.1389 -0.1197  0.0799
  325loPI   C2B 5198  14.089  11.663   9.541 -0.1841 -0.2513 -0.1766
  325loPI   C3B 5199  13.864  11.601   9.181  0.2097  0.0046  0.1851
  325loPI   C4B 5200  13.854  11.541   8.746  0.0187 -0.2716  0.1927
  326loPI    C1 5201  15.157  11.260  11.091  0.0325 -0.0669 -0.0853
  326loPI    C2 5202  15.400  11.085  11.357 -0.1314  0.0044  0.1135
  326loPI    C3 5203  15.088  11.302  11.482 -0.0356  0.2908 -0.1329
  326loPI   PO4 5204  15.120  11.055  10.920  0.2600  0.0345 -0.1279
  326loPI   GL1 5205  14.900  10.985  10.603 -0.1683  0.1353 -0.2096
  326loPI   GL2 5206  14.692  11.239  10.538  0.0233 -0.0796  0.0798
  326loPI   C1A 5207  14.783  10.680  10.176  0.0910 -0.1902 -0.0999
  326loPI   C2A 5208  14.818  10.517   9.769  0.2894 -0.0247  0.0019
  326loPI   C3A 5209  14.814  10.401   9.343  0.1488 -0.2141 -0.0424
  326loPI   C4A 5210  14.955  10.168   8.912  0.0636  0.1567  0.1926
  326loPI   C5A 5211  14.773  10.160   8.452  0.0336 -0.0958  0.1467
  326loPI   C6A 5212  14.625   9.810   8.166  0.1321 -0.0015 -0.1514
  326loPI   C1B 5213  14.907  11.267  10.151  0.0522 -0.4718 -0.3767
  326loPI   C2B 5214  14.879  11.068   9.783  0.3055  0.0202 -0.1837
  326loPI   C3B 5215  14.865  10.995   9.336 -0.1584 -0.0323  0.0712
  326loPI   C4B 5216  14.708  11.095   8.904 -0.1608 -0.2757 -0.0366
  327loPI    C1 5217   8.766   1.102  11.011 -0.0770 -0.0704  0.0530
  327loPI    C2 5218   9.152   1.100  11.116 -0.0588 -0.0360 -0.0133
  327loPI    C3 5219   8.868   1.071  11.397 -0.0103  0.0586  0.0462
  327loPI   PO4 5220   8.726   1.341  10.850  0.2379 -0.0210  0.0072
  327loPI   GL1 5221   8.432   1.466  10.458 -0.1408 -0.0262  0.3774
  327loPI   GL2 5222   8.258   1.622  10.201  0.1087  0.1446  0.1605
  327loPI   C1A 5223   8.628   1.260  10.140  0.2819  0.0468  0.0879
  327loPI   C2A 5224   9.069   1.321   9.908 -0.1931  0.1508  0.3439
  327loPI   C3A 5225   9.164   1.655   9.589  0.1163 -0.3190  0.0243
  327loPI   C4A 5226   9.078   1.779   9.210 -0.0314 -0.0303  0.0973
  327loPI   C5A 5227   8.794   1.981   8.912  0.0307  0.1167 -0.2007
  327loPI   C6A 5228   8.643   2.186   8.589 -0.1216  0.0402 -0.1831
  327loPI   C1B 5229   8.138   1.643   9.862  0.2521 -0.1496  0.0866
  327loPI   C2B 5230   8.018   1.626   9.419  0.0869  0.2492 -0.1244
  327loPI   C3B 5231   7.891   1.616   9.038 -0.1947 -0.1320  0.1590
  327loPI   C4B 5232   7.977   1.488   8.649 -0.0153  0.0950 -0.1365
  328loPI    C1 5233   6.293   9.916  11.055 -0.0787  0.1196 -0.0752
  328loPI    C2 5234   6.402  10.049  11.416 -0.1376 -0.0617  0.0111
  328loPI    C3 5235   6.031   9.912  11.358 -0.1156 -0.0718 -0.1083
  328loPI   PO4 5236   6.496   9.679  11.002 -0.0910 -0.1241  0.1532
  328loPI   GL1 5237   6.649   9.629  10.590 -0.0596  0.0882 -0.0608
  328loPI   GL2 5238   6.808   9.633  10.323 -0.2007 -0.0192 -0.2540
  328loPI   C1A 5239   6.403   9.471  10.167 -0.1382 -0.0697  0.0919
  328loPI   C2A 5240   6.424   9.432   9.672 -0.0422 -0.1627 -0.2174
  328loPI   C3A 5241   6.491   9.369   9.257 -0.3527 -0.1565  0.3010
  328loPI   C4A 5242   6.492   9.396   8.814 -0.1269 -0.0592  0.2453
  328loPI   C5A 5243   6.397   9.364   8.470  0.0212 -0.2125  0.0581
  328loPI   C6A 5244   6.738   9.380   8.192  0.0156  0.0840  0.1614
  328loPI   C1B 5245   6.852   9.673   9.925  0.1527 -0.2063 -0.4405
  328loPI   C2B 5246   6.900   9.625   9.499  0.0615  0.1783  0.2736
  328loPI   C3B 5247   6.926   9.611   9.045  0.1195 -0.0469  0.1363
  328loPI   C4B 5248   6.940   9.588   8.609  0.0579  0.0931  0.1310
  329loPI    C1 5249   0.779  11.376  11.095  0.0711 -0.2715  0.1104
  329loPI    C2 5250   0.746  11.599  11.426  0.0270  0.0704 -0.1187
  329loPI    C3 5251   0.428  11.400  11.285  0.0337 -0.0370  0.0161
  329loPI   PO4 5252   0.837  11.591  10.899 -0.3091  0.0603 -0.0230
  329loPI   GL1 5253   0.813  11.640  10.383 -0.0309 -0.0144  0.0469
  329loPI   GL2 5254   1.063  11.433  10.254  0.2504  0.0840  0.2863
  329loPI   C1A 5255   0.676  11.765  10.000 -0.1644 -0.1697  0.2070
  329loPI   C2A 5256   0.588  11.604   9.641  0.3599  0.2270  0.0601
  329loPI   C3A 5257   0.780  11.597   9.332 -0.0197  0.1430 -0.0007
  329loPI   C4A 5258   1.056  11.470   8.992  0.1137 -0.0076 -0.0484
  329loPI   C5A 5259   1.167  11.295   8.550 -0.1468 -0.1298  0.0662
  329loPI   C6A 5260   1.417  10.989   8.412 -0.0714  0.1123  0.0598
  329loPI   C1B 5261   1.130  11.382   9.829 -0.0074  0.4062 -0.2574
  329loPI   C2B 5262   1.189  11.270   9.439  0.2460 -0.2973  0.2350
  329loPI   C3B 5263   1.309  11.025   8.981  0.1600 -0.2661  0.0217
  329loPI   C4B 5264   1.757  10.948   8.752 -0.1792  0.1002 -0.0431
  330loPI    C1 5265   2.976  14.469  10.899 -0.1151  0.2297  0.0462
  330loPI    C2 5266   3.198  14.270  11.165 -0.0095  0.3314  0.0350
  330loPI    C3 5267   3.068  14.638  11.249 -0.0633  0.3234 -0.0122
  330loPI   PO4 5268   3.052  14.511  10.603 -0.1765 -0.0324  0.2094
  330loPI   GL1 5269   3.195  14.435  10.187  0.2045 -0.0560  0.2734
  330loPI   GL2 5270   3.497  14.194  10.124 -0.0320 -0.1378 -0.0548
  330loPI   C1A 5271   3.258  14.481   9.742  0.1480  0.2335 -0.2327
  330loPI   C2A 5272   3.175  14.431   9.322 -0.3432  0.0601  0.0446
  330loPI   C3A 5273   3.188  14.279   8.899 -0.3132  0.0825 -0.0620
  330loPI   C4A 5274   3.286  14.274   8.461  0.2911  0.2619  0.0830
  330loPI   C5A 5275   3.309  14.204   7.990 -0.1509 -0.0329  0.0876
  330loPI   C6A 5276   3.246  13.958   7.710 -0.1050 -0.0403 -0.1735
  330loPI   C1B 5277   3.588  14.020   9.697 -0.0860 -0.1732 -0.1213
  330loPI   C2B 5278   3.624  14.079   9.188 -0.3047 -0.2640  0.0328
  330loPI   C3B 5279   3.593  13.994   8.727  0.0401  0.3938 -0.1216
  330loPI   C4B 5280   3.597  13.779   8.228  0.0012 -0.0720 -0.1594
  331loPI    C1 5281  15.883  10.771  11.194  0.1607 -0.0374 -0.0266
  331loPI    C2 5282  15.794  10.387  11.265 -0.1419  0.0344 -0.0007
  331loPI    C3 5283  15.602  10.677  11.463  0.2057  0.1984  0.1061
  331loPI   PO4 5284  16.102  10.704  11.001  0.3468  0.1036  0.0084
  331loPI   GL1 5285  16.236  10.833  10.649 -0.0959 -0.2533  0.2175
  331loPI   GL2 5286  15.878  10.780  10.551 -0.0225  0.0604  0.1410
  331loPI   C1A 5287  16.289  10.798  10.209 -0.1270 -0.0148  0.2546
  331loPI   C2A 5288  16.377  10.787   9.767  0.1683  0.0220  0.0422
  331loPI   C3A 5289  16.333  11.005   9.377  0.0701  0.3725 -0.1709
  331loPI   C4A 5290  16.347  10.992   8.882 -0.0834  0.0753 -0.1716
  331loPI   C5A 5291  16.009  10.987   8.529 -0.0739  0.2487 -0.0310
  331loPI   C6A 5292  15.886  10.881   8.132 -0.3362  0.0023  0.0478
  331loPI   C1B 5293  15.746  10.780  10.145  0.0544 -0.1107 -0.0495
  331loPI   C2B 5294  15.891  10.863   9.753 -0.1816 -0.1414 -0.1265
  331loPI   C3B 5295  15.815  10.956   9.325 -0.0852  0.1012  0.1366
  331loPI   C4B 5296  15.702  11.111   8.870 -0.1473 -0.1649 -0.1957
  332loPI    C1 5297   1.294  12.524  11.127 -0.0968  0.1033  0.0310
  332loPI    C2 5298   1.504  12.862  11.088  0.2953 -0.1381 -0.0017
  332loPI    C3 5299   1.246  12.820  11.391  0.2257  0.1963 -0.0109
  332loPI   PO4 5300   1.162  12.422  10.938  0.0206 -0.1401  0.2651
  332loPI   GL1 5301   1.097  12.463  10.510 -0.2719  0.0061  0.0664
  332loPI   GL2 5302   1.356  12.379  10.395  0.0000 -0.0735 -0.1345
  332loPI   C1A 5303   0.937  12.585  10.081  0.0993  0.1523  0.2555
  332loPI   C2A 5304   1.002  12.517   9.680 -0.1126  0.0257  0.1081
  332loPI   C3A 5305   1.019  12.632   9.281  0.1259  0.0620  0.4213
  332loPI   C4A 5306   1.103  12.714   8.759 -0.0209 -0.1698 -0.3278
  332loPI   C5A 5307   1.441  12.717   8.495  0.2791 -0.1038  0.0876
  332loPI   C6A 5308   1.679  12.589   8.082 -0.1900  0.1214 -0.0088
  332loPI   C1B 5309   1.386  12.332   9.952  0.3818 -0.1363  0.0055
  332loPI   C2B 5310   1.393  12.257   9.460 -0.2356 -0.1211 -0.0027
  332loPI   C3B 5311   1.458  12.417   9.012  0.1109  0.0627 -0.1934
  332loPI   C4B 5312   1.324  12.246   8.584  0.1632 -0.0172 -0.0034
  333loPI    C1 5313   7.447   6.954  11.283 -0.2632  0.3286 -0.3255
  333loPI    C2 5314   7.226   7.019  11.609 -0.1495  0.0157 -0.1814
  333loPI    C3 5315   7.233   6.656  11.442  0.1890  0.0429 -0.2330
  333loPI   PO4 5316   7.382   7.200  11.131 -0.3609 -0.1178  0.1639
  333loPI   GL1 5317   7.301   7.496  11.004 -0.2282 -0.1727 -0.1493
  333loPI   GL2 5318   7.390   7.727  10.799  0.1101 -0.0657 -0.1060
  333loPI   C1A 5319   7.180   7.285  10.556  0.1916 -0.1186 -0.3704
  333loPI   C2A 5320   7.134   7.257  10.177 -0.1599  0.2253  0.3151
  333loPI   C3A 5321   7.127   7.312   9.696 -0.0835 -0.0285 -0.0546
  333loPI   C4A 5322   7.079   7.405   9.311  0.1781  0.1571  0.2345
  333loPI   C5A 5323   7.041   7.353   8.768 -0.2523 -0.0159 -0.2082
  333loPI   C6A 5324   6.795   7.437   8.465 -0.0158 -0.1569  0.2810
  333loPI   C1B 5325   7.228   7.804  10.472  0.1380  0.0847  0.2373
  333loPI   C2B 5326   7.172   7.740  10.007 -0.0980 -0.2652  0.2152
  333loPI   C3B 5327   7.060   7.846   9.566 -0.2701  0.0460  0.1474
  333loPI   C4B 5328   7.072   7.855   9.046 -0.1623 -0.0354 -0.0098
  334loPI    C1 5329  17.492  12.934  10.833 -0.0748 -0.1622  0.0349
  334loPI    C2 5330  17.820  12.880  11.055 -0.1020 -0.2344  0.0577
  334loPI    C3 5331  17.577  13.190  11.128  0.1734  0.0538 -0.2172
  334loPI   PO4 5332  17.381  12.664  10.749 -0.0282 -0.0497  0.0238
  334loPI   GL1 5333  17.327  12.558  10.312 -0.0489 -0.0176  0.2509
  334loPI   GL2 5334  17.717  12.651  10.368 -0.2061 -0.0501  0.0547
  334loPI   C1A 5335  17.363  12.813   9.940 -0.2039  0.0201  0.1015
  334loPI   C2A 5336  17.514  13.001   9.606  0.0300 -0.0930  0.0252
  334loPI   C3A 5337  17.576  12.915   9.200 -0.3606  0.3397 -0.1928
  334loPI   C4A 5338  17.670  12.898   8.791  0.0159  0.0770  0.2827
  334loPI   C5A 5339  17.933  12.551   8.576 -0.0752 -0.0825  0.1763
  334loPI   C6A 5340  17.907  12.292   8.333 -0.2702 -0.1180 -0.1584
  334loPI   C1B 5341  17.846  12.700   9.912 -0.2259  0.0259  0.0913
  334loPI   C2B 5342  17.995  12.796   9.500  0.2624  0.0091  0.0416
  334loPI   C3B 5343  18.077  12.960   9.142  0.0515  0.0515 -0.0428
  334loPI   C4B 5344  18.197  12.972   8.739 -0.0319 -0.2114 -0.1895
  335loPI    C1 5345  17.400   1.565  10.969 -0.2718 -0.1702  0.1297
  335loPI    C2 5346  17.410   1.964  10.996  0.0056 -0.1482 -0.2202
  335loPI    C3 5347  17.084   1.764  11.114 -0.2045  0.1941 -0.2036
  335loPI   PO4 5348  17.511   1.494  10.740  0.0246  0.0002 -0.0503
  335loPI   GL1 5349  17.479   1.524  10.347 -0.0795  0.0568 -0.1824
  335loPI   GL2 5350  17.481   1.332  10.077 -0.1579 -0.0770 -0.0342
  335loPI   C1A 5351  17.651   1.900  10.072 -0.2528 -0.0559  0.1129
  335loPI   C2A 5352  17.702   1.849   9.681 -0.2559 -0.1840 -0.0288
  335loPI   C3A 5353  17.762   1.865   9.254  0.0963  0.0800  0.1642
  335loPI   C4A 5354  17.734   1.918   8.768 -0.2217 -0.2087 -0.2076
  335loPI   C5A 5355  17.580   1.819   8.424  0.2106 -0.2399  0.0517
  335loPI   C6A 5356  17.203   1.838   8.151 -0.0456  0.2186  0.2129
  335loPI   C1B 5357  17.640   1.341   9.675  0.0148 -0.1400  0.0370
  335loPI   C2B 5358  17.650   1.395   9.231  0.0856 -0.0473  0.0861
  335loPI   C3B 5359  17.725   1.420   8.809  0.1340 -0.0175  0.1190
  335loPI   C4B 5360  17.745   1.258   8.481  0.1785 -0.0152 -0.0019
  336loPI    C1 5361  15.283  10.333  11.248  0.0253  0.0843  0.0122
  336loPI    C2 5362  14.905  10.251  11.349  0.0532  0.0483  0.0874
  336loPI    C3 5363  15.161  10.388  11.625  0.1148  0.0011  0.0537
  336loPI   PO4 5364  15.268  10.218  10.961 -0.0904 -0.0117  0.2606
  336loPI   GL1 5365  15.232  10.341  10.516 -0.0424 -0.2792  0.0330
  336loPI   GL2 5366  15.202  10.592  10.524 -0.1969 -0.0341  0.1159
  336loPI   C1A 5367  15.159  10.275  10.102 -0.1375  0.0902  0.1076
  336loPI   C2A 5368  15.169  10.223   9.629  0.1345 -0.0420 -0.4570
  336loPI   C3A 5369  15.281   9.992   9.246  0.0404  0.0250  0.2158
  336loPI   C4A 5370  15.421   9.824   8.919 -0.3251  0.0101 -0.0401
  336loPI   C5A 5371  15.192   9.496   8.793 -0.0810 -0.2709  0.0769
  336loPI   C6A 5372  14.941   9.306   8.462 -0.2810 -0.0374 -0.2602
  336loPI   C1B 5373  15.259  10.790  10.101  0.1581  0.3266  0.0452
  336loPI   C2B 5374  15.307  10.745   9.661 -0.0131  0.1555 -0.0248
  336loPI   C3B 5375  15.259  10.741   9.248 -0.1824 -0.0315  0.1239
  336loPI   C4B 5376  15.101  10.717   8.847  0.2776  0.1141 -0.1530
  337loPI    C1 5377  10.560   9.585  11.335  0.1138  0.2152 -0.0478
  337loPI    C2 5378  10.342   9.762  11.620 -0.0624 -0.0525 -0.0125
  337loPI    C3 5379  10.590   9.462  11.714  0.4213  0.3282 -0.0328
  337loPI   PO4 5380  10.576   9.796  11.187 -0.0549 -0.3502  0.1021
  337loPI   GL1 5381  10.714   9.895  10.819 -0.0196  0.2181 -0.1346
  337loPI   GL2 5382  10.266   9.859  10.765 -0.1814  0.0406 -0.2674
  337loPI   C1A 5383  10.949   9.559  10.528 -0.0805  0.1575  0.0596
  337loPI   C2A 5384  10.924   9.498  10.126  0.0741  0.0751 -0.0544
  337loPI   C3A 5385  11.033   9.412   9.745 -0.3823  0.3659  0.0099
  337loPI   C4A 5386  11.011   9.462   9.310  0.2845  0.3654  0.1188
  337loPI   C5A 5387  10.960   9.446   8.824 -0.2347  0.3732  0.0394
  337loPI   C6A 5388  11.450   9.552   8.669 -0.0861  0.1395 -0.0077
  337loPI   C1B 5389  10.447   9.783  10.373  0.0078  0.4201  0.0076
  337loPI   C2B 5390  10.524   9.765   9.959  0.0010  0.1170 -0.0861
  337loPI   C3B 5391  10.614   9.768   9.489  0.0672  0.0497  0.1447
  337loPI   C4B 5392  10.567   9.725   9.012  0.0892 -0.2013 -0.4409
  338loPI    C1 5393  13.095  13.726  10.510 -0.0716 -0.4228 -0.2385
  338loPI    C2 5394  12.732  13.651  10.359 -0.1856 -0.0759 -0.1485
  338loPI    C3 5395  12.852  14.029  10.411  0.1566 -0.1883 -0.0951
  338loPI   PO4 5396  13.341  13.576  10.387 -0.0002  0.0967 -0.3043
  338loPI   GL1 5397  13.528  13.722  10.072  0.1634 -0.0926 -0.0302
  338loPI   GL2 5398  13.521  13.418   9.868 -0.2033 -0.1302  0.1568
  338loPI   C1A 5399  13.639  13.939   9.716 -0.4430  0.1152  0.0840
  338loPI   C2A 5400  13.714  13.910   9.343 -0.1528  0.3360  0.2496
  338loPI   C3A 5401  13.981  13.857   8.943 -0.0771 -0.1424  0.0287
  338loPI   C4A 5402  14.288  14.034   8.583  0.0042 -0.0908 -0.2992
  338loPI   C5A 5403  14.470  14.233   8.254 -0.0859 -0.0747 -0.2645
  338loPI   C6A 5404  14.381  14.477   7.824 -0.0407  0.1323 -0.3257
  338loPI   C1B 5405  13.706  13.381   9.489 -0.2793  0.0314  0.2415
  338loPI   C2B 5406  13.795  13.371   9.093  0.2029  0.1260 -0.1242
  338loPI   C3B 5407  14.109  13.448   8.680  0.1393 -0.0139  0.0557
  338loPI   C4B 5408  14.089  13.611   8.264 -0.1795 -0.2159  0.0006
  339loPI    C1 5409   6.902   8.353  11.638 -0.3283 -0.0317 -0.2272
  339loPI    C2 5410   6.905   8.753  11.648  0.0592 -0.0371  0.1314
  339loPI    C3 5411   6.705   8.547  11.927  0.0197 -0.0954  0.0602
  339loPI   PO4 5412   6.853   8.246  11.325  0.0254  0.3256  0.1707
  339loPI   GL1 5413   6.968   8.374  10.894  0.2419  0.0563 -0.1108
  339loPI   GL2 5414   7.236   8.171  10.973 -0.2450  0.2085  0.1506
  339loPI   C1A 5415   6.787   8.508  10.373 -0.2448  0.0952 -0.1525
  339loPI   C2A 5416   6.796   8.593   9.911  0.0844  0.1086  0.1548
  339loPI   C3A 5417   6.740   8.610   9.484  0.1213 -0.0967  0.1957
  339loPI   C4A 5418   6.784   8.575   9.118 -0.0729  0.2136  0.2781
  339loPI   C5A 5419   6.684   8.650   8.617 -0.2261  0.4494  0.1719
  339loPI   C6A 5420   6.920   8.801   8.330 -0.2510  0.0052  0.0085
  339loPI   C1B 5421   7.351   8.265  10.596  0.1951 -0.1827  0.3735
  339loPI   C2B 5422   7.248   8.253  10.168 -0.1099 -0.0127 -0.0464
  339loPI   C3B 5423   7.196   8.302   9.733  0.2825 -0.1048  0.0108
  339loPI   C4B 5424   7.156   8.301   9.320  0.1742 -0.1784  0.1167
  340loPI    C1 5425   8.298   9.376  11.136  0.1003 -0.0473  0.1821
  340loPI    C2 5426   8.589   9.122  11.239 -0.1049 -0.3165  0.1095
  340loPI    C3 5427   8.250   9.133  11.450 -0.2507 -0.3794 -0.1181
  340loPI   PO4 5428   8.440   9.506  10.917 -0.0153  0.0084 -0.0320
  340loPI   GL1 5429   8.651   9.311  10.584 -0.1586  0.0472  0.1636
  340loPI   GL2 5430   8.713   9.039  10.678 -0.2689 -0.0193 -0.2500
  340loPI   C1A 5431   8.704   9.400  10.182 -0.1182  0.3177 -0.2067
  340loPI   C2A 5432   8.729   9.406   9.737 -0.0966  0.0468  0.0617
  340loPI   C3A 5433   8.647   9.420   9.313 -0.0053 -0.0890  0.0942
  340loPI   C4A 5434   8.615   9.402   8.935 -0.0252 -0.1166  0.2944
  340loPI   C5A 5435   8.664   9.610   8.534  0.0133 -0.2364 -0.1805
  340loPI   C6A 5436   8.588  10.022   8.507  0.1046  0.0723 -0.3557
  340loPI   C1B 5437   8.656   8.852  10.334  0.0298 -0.3224 -0.1502
  340loPI   C2B 5438   8.627   8.959   9.945 -0.1080 -0.0903 -0.0685
  340loPI   C3B 5439   8.612   8.936   9.576 -0.0793  0.0662 -0.1438
  340loPI   C4B 5440   8.667   8.864   9.103  0.2744  0.1424  0.0620
  341loPI    C1 5441   6.044  11.771  10.857  0.1432  0.1428  0.0686
  341loPI    C2 5442   5.749  12.023  10.956  0.0178  0.0179  0.0158
  341loPI    C3 5443   5.895  11.768  11.228  0.2697  0.2693  0.1213
  341loPI   PO4 5444   5.965  11.621  10.625  0.1137  0.3341 -0.1098
  341loPI   GL1 5445   5.655  11.398  10.394  0.0435  0.1785  0.2598
  341loPI   GL2 5446   5.387  11.611  10.393  0.0712  0.0801  0.0735
  341loPI   C1A 5447   5.749  11.509   9.969  0.2417  0.0627 -0.1983
  341loPI   C2A 5448   5.852  11.508   9.519  0.1659  0.0966  0.1228
  341loPI   C3A 5449   5.766  11.448   9.041 -0.0417  0.2672 -0.0045
  341loPI   C4A 5450   5.909  11.478   8.674 -0.0865 -0.1775  0.1999
  341loPI   C5A 5451   5.767  11.348   8.301  0.0133 -0.2726  0.0273
  341loPI   C6A 5452   5.404  11.131   8.162  0.0963  0.0419  0.0288
  341loPI   C1B 5453   5.257  11.461  10.031 -0.2618 -0.4061 -0.0036
  341loPI   C2B 5454   5.284  11.411   9.599 -0.0994 -0.1940 -0.0076
  341loPI   C3B 5455   5.353  11.274   9.178  0.1710  0.1269 -0.2534
  341loPI   C4B 5456   5.367  11.316   8.735 -0.0801 -0.1535 -0.1524
  342loPI    C1 5457   4.401  11.391  10.911  0.0032 -0.0555 -0.0465
  342loPI    C2 5458   4.001  11.391  10.919  0.0028  0.0497 -0.0463
  342loPI    C3 5459   4.207  11.215  11.213 -0.0433 -0.0078 -0.0482
  342loPI   PO4 5460   4.469  11.406  10.646  0.1244 -0.0002  0.1600
  342loPI   GL1 5461   4.344  11.210  10.235  0.0024 -0.0208  0.2126
  342loPI   GL2 5462   4.240  11.380  10.041 -0.3707  0.1314  0.0587
  342loPI   C1A 5463   4.342  10.966   9.871 -0.1241 -0.1112  0.2970
  342loPI   C2A 5464   4.405  11.020   9.396 -0.0151 -0.4304  0.0295
  342loPI   C3A 5465   4.365  10.969   8.919 -0.0842 -0.2660 -0.0348
  342loPI   C4A 5466   4.326  10.790   8.572  0.1477  0.0978  0.1675
  342loPI   C5A 5467   4.405  10.535   8.204  0.1281 -0.2731 -0.1878
  342loPI   C6A 5468   4.265  10.518   7.809 -0.0782 -0.2392 -0.2707
  342loPI   C1B 5469   4.046  11.383   9.622 -0.2439 -0.0661  0.1166
  342loPI   C2B 5470   4.011  11.330   9.220  0.1840  0.0088  0.0228
  342loPI   C3B 5471   3.934  11.234   8.819 -0.0146  0.1644 -0.1371
  342loPI   C4B 5472   3.878  11.190   8.407  0.3246 -0.1625 -0.0208
  343loPI    C1 5473  16.734  17.501  10.744 -0.3296 -0.0672 -0.4350
  343loPI    C2 5474  16.898  17.822  10.570  0.1087 -0.0946 -0.0888
  343loPI    C3 5475  16.769  17.843  10.948  0.0997 -0.3144 -0.0782
  343loPI   PO4 5476  16.603  17.381  10.570  0.2836  0.1833 -0.1597
  343loPI   GL1 5477  16.632  17.393  10.092 -0.2430 -0.1479  0.1823
  343loPI   GL2 5478  16.834  17.688  10.037 -0.0406  0.1226 -0.0112
  343loPI   C1A 5479  16.691  17.259   9.669  0.0125 -0.4950  0.0012
  343loPI   C2A 5480  16.537  17.245   9.223  0.2681  0.0443 -0.0610
  343loPI   C3A 5481  16.397  17.164   8.892 -0.2898 -0.0237 -0.2873
  343loPI   C4A 5482  16.422  16.805   8.548  0.0957 -0.1848 -0.4474
  343loPI   C5A 5483  16.593  16.558   8.285  0.1330 -0.1743  0.2267
  343loPI   C6A 5484  16.600  16.162   8.003  0.3750  0.1267 -0.3111
  343loPI   C1B 5485  16.932  17.978   9.691  0.1077 -0.4026 -0.0855
  343loPI   C2B 5486  16.939  17.997   9.261 -0.1073  0.3393 -0.2534
  343loPI   C3B 5487  17.172  18.026   8.942 -0.0989  0.1930 -0.2185
  343loPI   C4B 5488  17.006  17.815   8.629 -0.1095 -0.1436 -0.2342
  344loPI    C1 5489  10.586   2.709  11.105  0.1255 -0.1224 -0.1639
  344loPI    C2 5490  10.306   2.492  11.290  0.1294 -0.0499 -0.0719
  344loPI    C3 5491  10.691   2.382  11.309  0.1190 -0.0946 -0.1161
  344loPI   PO4 5492  10.494   2.743  10.756 -0.1005 -0.1216 -0.1421
  344loPI   GL1 5493  10.673   2.683  10.425 -0.0530 -0.0283  0.0374
  344loPI   GL2 5494  10.596   3.043  10.369  0.0249 -0.2529  0.1949
  344loPI   C1A 5495  10.712   2.765  10.021 -0.0198 -0.0132 -0.2739
  344loPI   C2A 5496  10.867   2.534   9.650  0.0481  0.0395 -0.0155
  344loPI   C3A 5497  11.078   2.569   9.202 -0.1671 -0.2177 -0.2224
  344loPI   C4A 5498  10.906   2.722   8.969  0.0495 -0.0820  0.1549
  344loPI   C5A 5499  10.566   3.012   8.717 -0.3143  0.1219 -0.1241
  344loPI   C6A 5500  10.146   3.008   8.759  0.2898 -0.0731 -0.1216
  344loPI   C1B 5501  10.402   3.138  10.041 -0.1301  0.2147  0.0284
  344loPI   C2B 5502  10.475   2.902   9.596 -0.1717  0.0993  0.2772
  344loPI   C3B 5503  10.536   2.896   9.207  0.1231  0.3500  0.3109
  344loPI   C4B 5504  10.367   2.592   8.942  0.1271  0.0297 -0.0933
  345loPI    C1 5505   3.699  12.878  10.846  0.0584 -0.1314  0.1446
  345loPI    C2 5506   4.014  13.036  11.034  0.0277  0.0508  0.0457
  345loPI    C3 5507   3.644  13.118  11.161  0.0125  0.0391  0.0089
  345loPI   PO4 5508   3.806  12.707  10.602  0.1292 -0.0185  0.3111
  345loPI   GL1 5509   4.172  12.622  10.287 -0.3670  0.0015 -0.1957
  345loPI   GL2 5510   3.835  12.833  10.069 -0.1497  0.3318 -0.2228
  345loPI   C1A 5511   4.267  12.474   9.867  0.2750 -0.0878  0.0467
  345loPI   C2A 5512   4.210  12.323   9.473  0.0388 -0.1457  0.1010
  345loPI   C3A 5513   4.248  12.281   8.988 -0.2120 -0.2721  0.0167
  345loPI   C4A 5514   4.152  12.185   8.532 -0.2957  0.0642  0.0931
  345loPI   C5A 5515   3.887  12.069   8.260  0.0739  0.3346  0.0774
  345loPI   C6A 5516   3.700  11.770   8.063  0.1965  0.0898  0.0656
  345loPI   C1B 5517   3.782  12.668   9.719  0.1253 -0.1663  0.1572
  345loPI   C2B 5518   3.772  12.648   9.319 -0.1049  0.4786 -0.1236
  345loPI   C3B 5519   3.882  12.525   8.869  0.3952 -0.1061  0.1063
  345loPI   C4B 5520   3.722  12.574   8.454 -0.2668  0.1648 -0.2002
  346loPI    C1 5521  16.937  13.351  10.784  0.1392  0.1041  0.1073
  346loPI    C2 5522  17.055  13.096  11.068 -0.1821  0.0148  0.1642
  346loPI    C3 5523  16.941  12.958  10.710 -0.0946  0.1010  0.1028
  346loPI   PO4 5524  17.111  13.531  10.627  0.1915  0.1826 -0.3323
  346loPI   GL1 5525  16.958  13.756  10.274  0.0431 -0.0179 -0.1848
  346loPI   GL2 5526  16.731  13.834  10.212  0.1374  0.2292  0.3638
  346loPI   C1A 5527  17.058  13.597   9.905  0.2168  0.0564  0.0562
  346loPI   C2A 5528  17.105  13.232   9.640  0.1125 -0.2961 -0.0192
  346loPI   C3A 5529  17.274  13.261   9.217 -0.0648  0.0137 -0.2840
  346loPI   C4A 5530  17.238  13.047   8.888 -0.0659 -0.2996  0.2725
  346loPI   C5A 5531  17.218  12.826   8.476 -0.0181  0.0504 -0.1691
  346loPI   C6A 5532  16.955  12.479   8.394 -0.2396 -0.0119 -0.0876
  346loPI   C1B 5533  16.520  13.722   9.911 -0.0082 -0.1623  0.1090
  346loPI   C2B 5534  16.701  13.486   9.467 -0.0382 -0.1856 -0.0683
  346loPI   C3B 5535  16.769  13.245   9.142  0.0544  0.1911 -0.0648
  346loPI   C4B 5536  16.773  12.920   8.891 -0.2173 -0.2162  0.1379
  347loPI    C1 5537  15.822   0.655  10.845 -0.1174  0.1390 -0.0883
  347loPI    C2 5538  15.620   0.779  11.168  0.0333  0.0782  0.0309
  347loPI    C3 5539  15.823   0.435  11.179  0.1692  0.1541 -0.0771
  347loPI   PO4 5540  15.923   0.889  10.786 -0.0476  0.1223  0.0308
  347loPI   GL1 5541  15.842   1.023  10.340  0.0805 -0.1800  0.1753
  347loPI   GL2 5542  15.527   1.024  10.289 -0.2331  0.0190  0.0706
  347loPI   C1A 5543  15.867   1.102   9.929 -0.1810 -0.1391  0.0910
  347loPI   C2A 5544  15.764   1.127   9.463 -0.2633 -0.1366  0.0237
  347loPI   C3A 5545  15.871   1.131   9.053  0.3254 -0.3597 -0.0220
  347loPI   C4A 5546  15.924   0.922   8.707  0.0597  0.0182  0.4021
  347loPI   C5A 5547  15.690   0.898   8.248  0.2207  0.2632  0.2546
  347loPI   C6A 5548  15.551   0.744   7.890  0.1089  0.1488 -0.1721
  347loPI   C1B 5549  15.295   1.249   9.903  0.2161 -0.1048 -0.0958
  347loPI   C2B 5550  15.362   1.498   9.409  0.0656 -0.0082 -0.1933
  347loPI   C3B 5551  15.427   1.363   9.064  0.0095  0.2345 -0.1356
  347loPI   C4B 5552  15.450   1.269   8.591 -0.3177 -0.2332 -0.1990
  348loPI    C1 5553  12.782   1.369  11.040  0.0821  0.2576  0.1501
  348loPI    C2 5554  12.624   1.635  11.294 -0.1291  0.1555  0.1278
  348loPI    C3 5555  12.402   1.485  10.997  0.1187  0.2821 -0.1269
  348loPI   PO4 5556  12.976   1.434  10.892  0.3009 -0.1165  0.1214
  348loPI   GL1 5557  13.154   1.464  10.452 -0.5456  0.2329  0.0098
  348loPI   GL2 5558  12.946   1.509  10.201  0.2327  0.2160  0.0997
  348loPI   C1A 5559  13.203   1.141  10.090  0.2804 -0.0171  0.1247
  348loPI   C2A 5560  13.319   0.888   9.725 -0.0562 -0.0360 -0.0291
  348loPI   C3A 5561  13.327   0.945   9.270  0.1046  0.0323 -0.0816
  348loPI   C4A 5562  13.325   0.922   8.899  0.1423 -0.0881  0.3262
  348loPI   C5A 5563  13.464   1.052   8.645  0.0483 -0.0604 -0.2164
  348loPI   C6A 5564  13.757   1.094   8.310 -0.1640 -0.1469 -0.0278
  348loPI   C1B 5565  13.131   1.724   9.776 -0.1789 -0.0102 -0.1603
  348loPI   C2B 5566  13.065   1.784   9.356  0.0001 -0.0119 -0.0985
  348loPI   C3B 5567  12.954   1.761   9.016 -0.0564  0.1083 -0.0578
  348loPI   C4B 5568  12.932   1.768   8.571 -0.2811  0.1954  0.1176
  349loPI    C1 5569   2.204   8.423  11.127  0.1732 -0.1699  0.0081
  349loPI    C2 5570   2.048   8.737  11.318  0.0774 -0.0745 -0.2233
  349loPI    C3 5571   2.210   8.437  11.526 -0.1399 -0.0330  0.0112
  349loPI   PO4 5572   2.162   8.508  10.841 -0.1287  0.3812  0.2106
  349loPI   GL1 5573   2.108   8.359  10.515 -0.0179 -0.0474  0.2342
  349loPI   GL2 5574   1.760   8.554  10.485  0.1176  0.0146 -0.2199
  349loPI   C1A 5575   1.870   8.416  10.040 -0.0997 -0.1621  0.0503
  349loPI   C2A 5576   1.829   8.453   9.577 -0.1550  0.0299  0.1799
  349loPI   C3A 5577   1.802   8.399   9.095 -0.0195  0.0307 -0.0283
  349loPI   C4A 5578   1.669   8.498   8.629  0.3447 -0.1631  0.0423
  349loPI   C5A 5579   1.557   8.882   8.339 -0.0078 -0.2541  0.0591
  349loPI   C6A 5580   1.477   9.258   8.169  0.0599  0.4584  0.2152
  349loPI   C1B 5581   1.425   8.721  10.159  0.3280  0.0240  0.2812
  349loPI   C2B 5582   1.408   8.727   9.673 -0.0498  0.0004  0.1418
  349loPI   C3B 5583   1.367   8.793   9.218 -0.2187 -0.1597 -0.1896
  349loPI   C4B 5584   1.233   8.656   8.811  0.0787  0.0567  0.0582
  350loPI    C1 5585   8.547  12.552  10.936 -0.0595 -0.2112  0.0871
  350loPI    C2 5586   8.458  12.850  11.188 -0.0186 -0.1649  0.0469
  350loPI    C3 5587   8.546  12.487  11.330  0.0208 -0.1345  0.1004
  350loPI   PO4 5588   8.359  12.471  10.708  0.1649  0.2606 -0.2414
  350loPI   GL1 5589   8.392  12.383  10.348  0.1304 -0.1422  0.0957
  350loPI   GL2 5590   8.163  12.525  10.226 -0.2903  0.1453 -0.0380
  350loPI   C1A 5591   8.631  12.524  10.014 -0.0232  0.2123 -0.4198
  350loPI   C2A 5592   8.781  12.474   9.705 -0.0133  0.1803  0.1482
  350loPI   C3A 5593   8.816  12.323   9.319  0.2497 -0.2553  0.1208
  350loPI   C4A 5594   8.767  12.169   8.803 -0.1477  0.0650 -0.1007
  350loPI   C5A 5595   8.538  11.997   8.574 -0.1648  0.1362 -0.1330
  350loPI   C6A 5596   8.592  11.722   8.274  0.4042  0.2748 -0.1906
  350loPI   C1B 5597   8.257  12.236   9.825  0.2839 -0.2655  0.0593
  350loPI   C2B 5598   8.274  12.196   9.433 -0.0314  0.0611  0.0892
  350loPI   C3B 5599   8.255  12.193   9.025 -0.0544  0.2734 -0.1282
  350loPI   C4B 5600   8.068  12.049   8.681 -0.1785  0.0397 -0.0994
  351loPI    C1 5601  12.950   3.055  11.118  0.1452  0.1495  0.0603
  351loPI    C2 5602  13.040   3.297  11.424  0.1689 -0.0049  0.1762
  351loPI    C3 5603  13.014   2.902  11.482  0.1339 -0.0311 -0.0131
  351loPI   PO4 5604  13.103   3.104  10.926  0.2216  0.3055  0.0965
  351loPI   GL1 5605  13.391   2.952  10.631 -0.2787 -0.0049  0.0907
  351loPI   GL2 5606  13.231   2.718  10.619 -0.4083 -0.3718  0.1302
  351loPI   C1A 5607  13.300   2.968  10.166 -0.0460 -0.3056 -0.4393
  351loPI   C2A 5608  13.287   3.094   9.738  0.0235  0.2194 -0.2518
  351loPI   C3A 5609  13.245   3.121   9.283  0.0176  0.0152 -0.1102
  351loPI   C4A 5610  13.328   3.134   8.951 -0.0366  0.0406  0.0341
  351loPI   C5A 5611  12.989   3.412   8.757 -0.5283 -0.2376  0.0853
  351loPI   C6A 5612  13.039   3.765   8.417  0.1258 -0.0688 -0.0410
  351loPI   C1B 5613  13.189   2.489  10.203  0.1309 -0.0637  0.0624
  351loPI   C2B 5614  13.217   2.604   9.787 -0.2609  0.1210  0.1117
  351loPI   C3B 5615  13.204   2.613   9.363  0.0180 -0.0555 -0.0574
  351loPI   C4B 5616  13.249   2.636   8.977 -0.1987 -0.0367 -0.1941
  352loPI    C1 5617   1.162  16.209  10.425  0.0674 -0.0488  0.1068
  352loPI    C2 5618   1.338  16.100  10.767  0.1622  0.4092  0.2112
  352loPI    C3 5619   0.945  16.048  10.719  0.2177 -0.0569  0.2147
  352loPI   PO4 5620   1.246  16.498  10.366 -0.2160  0.2199 -0.0091
  352loPI   GL1 5621   1.399  16.607   9.917  0.0293 -0.0828 -0.0789
  352loPI   GL2 5622   1.600  16.757   9.820  0.2422 -0.0740 -0.3165
  352loPI   C1A 5623   1.288  16.269   9.609 -0.1259 -0.0488 -0.2141
  352loPI   C2A 5624   1.427  16.094   9.279  0.0671 -0.2258  0.0048
  352loPI   C3A 5625   1.574  15.899   8.877  0.0365  0.1813 -0.1057
  352loPI   C4A 5626   1.430  15.837   8.514 -0.0899  0.0504  0.2998
  352loPI   C5A 5627   0.963  15.998   8.359  0.1459 -0.1204  0.0363
  352loPI   C6A 5628   0.532  15.856   8.405  0.0421  0.1145  0.1855
  352loPI   C1B 5629   1.739  16.586   9.450  0.3760 -0.0224  0.0316
  352loPI   C2B 5630   1.909  16.194   9.179 -0.0069  0.0987  0.0865
  352loPI   C3B 5631   2.057  16.058   8.812 -0.0913 -0.2496 -0.0003
  352loPI   C4B 5632   1.905  15.897   8.535  0.0865  0.1296 -0.1555
  353loPI    C1 5633  15.091   7.870  11.321  0.0355  0.1311 -0.0751
  353loPI    C2 5634  14.764   7.949  11.537 -0.0704  0.0661 -0.2105
  353loPI    C3 5635  15.109   7.864  11.721 -0.1280  0.1385 -0.0671
  353loPI   PO4 5636  14.909   7.769  11.091  0.5315  0.1815 -0.1103
  353loPI   GL1 5637  14.799   7.708  10.638  0.2093 -0.1445 -0.0028
  353loPI   GL2 5638  14.487   7.507  10.519  0.0556 -0.1162  0.2835
  353loPI   C1A 5639  14.897   7.606  10.177 -0.1458  0.1702  0.1911
  353loPI   C2A 5640  14.888   7.490   9.827  0.0187  0.1165 -0.1618
  353loPI   C3A 5641  14.884   7.522   9.428  0.1155  0.1705  0.1619
  353loPI   C4A 5642  14.945   7.491   9.014  0.1761  0.0442 -0.0018
  353loPI   C5A 5643  14.889   7.638   8.647 -0.3060 -0.1589  0.0027
  353loPI   C6A 5644  15.176   7.959   8.483 -0.0003  0.0113  0.0094
  353loPI   C1B 5645  14.458   7.371  10.006  0.2170  0.2446 -0.0561
  353loPI   C2B 5646  14.417   7.329   9.592  0.2306 -0.0615 -0.0638
  353loPI   C3B 5647  14.351   7.367   9.154  0.1123  0.2076 -0.1801
  353loPI   C4B 5648  14.326   7.217   8.830  0.1765 -0.1280  0.2488
  354loPI    C1 5649  17.690  13.727  11.127  0.0127 -0.2412  0.1083
  354loPI    C2 5650  17.300  13.657  11.075 -0.0770  0.1785  0.1861
  354loPI    C3 5651  17.460  13.636  11.441 -0.0138 -0.0458  0.1466
  354loPI   PO4 5652  17.686  13.913  10.787  0.2711 -0.0689  0.2522
  354loPI   GL1 5653  17.797  14.007  10.361  0.0164 -0.1853 -0.2399
  354loPI   GL2 5654  18.075  14.049  10.284 -0.0306  0.0833  0.0731
  354loPI   C1A 5655  17.834  13.643  10.034  0.1185  0.0363  0.1644
  354loPI   C2A 5656  17.521  13.534   9.636  0.1827  0.2913  0.1589
  354loPI   C3A 5657  17.099  13.704   9.414  0.0291  0.0302 -0.3296
  354loPI   C4A 5658  16.876  13.732   9.019 -0.2193  0.0838  0.3643
  354loPI   C5A 5659  16.787  13.790   8.572  0.2766  0.1370 -0.0674
  354loPI   C6A 5660  16.529  14.018   8.283 -0.2653 -0.0019  0.1378
  354loPI   C1B 5661  18.118  14.057   9.854 -0.4872 -0.0493 -0.0188
  354loPI   C2B 5662  17.992  13.801   9.514  0.0095  0.1374  0.0716
  354loPI   C3B 5663  17.942  13.840   9.126  0.1392 -0.0783 -0.1159
  354loPI   C4B 5664  17.816  13.921   8.701 -0.0761  0.2199 -0.0502
  355loPI    C1 5665   0.177   5.456  11.233 -0.0454 -0.1355 -0.0726
  355loPI    C2 5666  -0.160   5.599  11.394 -0.0284 -0.0402 -0.1209
  355loPI    C3 5667  -0.114   5.204  11.345 -0.0646 -0.0649  0.0381
  355loPI   PO4 5668   0.233   5.572  11.006 -0.0610 -0.2086  0.0608
  355loPI   GL1 5669   0.118   5.635  10.586 -0.4006 -0.1257  0.0018
  355loPI   GL2 5670   0.291   5.316  10.594  0.0428 -0.1730  0.2772
  355loPI   C1A 5671  -0.020   5.879  10.372 -0.2492 -0.2690 -0.0361
  355loPI   C2A 5672   0.019   5.815   9.992  0.2621 -0.1102  0.0046
  355loPI   C3A 5673  -0.031   5.797   9.555  0.0245  0.4176 -0.1018
  355loPI   C4A 5674   0.043   5.826   9.069 -0.1320 -0.4488  0.3465
  355loPI   C5A 5675   0.036   5.872   8.614 -0.3341  0.0708  0.0607
  355loPI   C6A 5676   0.031   6.077   8.239  0.1230  0.1265 -0.4721
  355loPI   C1B 5677   0.355   5.454  10.164 -0.4287  0.1873  0.0682
  355loPI   C2B 5678   0.395   5.421   9.679  0.1794 -0.0244 -0.1024
  355loPI   C3B 5679   0.380   5.498   9.256 -0.3108  0.2386 -0.0683
  355loPI   C4B 5680   0.400   5.446   8.842  0.0597  0.0504 -0.0667
  356loPI    C1 5681   0.347  12.021  10.689 -0.1694 -0.1904 -0.0615
  356loPI    C2 5682   0.476  11.894  11.046  0.0034  0.0394 -0.0405
  356loPI    C3 5683   0.119  12.072  11.014 -0.0384 -0.0354  0.0072
  356loPI   PO4 5684   0.396  11.868  10.576 -0.0488 -0.0673 -0.1797
  356loPI   GL1 5685   0.195  11.724  10.204 -0.4798 -0.1577 -0.1306
  356loPI   GL2 5686   0.323  11.446  10.296  0.1797 -0.0772  0.0924
  356loPI   C1A 5687   0.171  11.733   9.813  0.0483 -0.0108  0.0578
  356loPI   C2A 5688   0.374  11.870   9.308  0.3122 -0.2625  0.2902
  356loPI   C3A 5689   0.582  11.909   8.954  0.2746 -0.1260 -0.1436
  356loPI   C4A 5690   0.932  11.799   8.680  0.0938 -0.2293  0.1336
  356loPI   C5A 5691   0.951  11.661   8.224 -0.1233 -0.0546  0.1684
  356loPI   C6A 5692   0.826  11.561   7.839  0.0935 -0.0766 -0.4028
  356loPI   C1B 5693   0.158  11.081  10.129 -0.1940 -0.2076  0.0262
  356loPI   C2B 5694   0.038  10.914   9.810  0.0325 -0.1331 -0.1638
  356loPI   C3B 5695   0.254  10.869   9.390 -0.1257 -0.0115  0.0280
  356loPI   C4B 5696   0.291  10.936   8.958 -0.0705 -0.2276  0.0121
  357loPI    C1 5697  14.295   5.083  11.097  0.0184 -0.0771 -0.1604
  357loPI    C2 5698  14.618   5.074  11.332 -0.0391 -0.2912 -0.0868
  357loPI    C3 5699  14.252   5.081  11.495 -0.0734 -0.0241 -0.1698
  357loPI   PO4 5700  14.379   5.107  10.895  0.0928 -0.3625  0.3617
  357loPI   GL1 5701  14.360   4.897  10.575 -0.1179 -0.2710 -0.2484
  357loPI   GL2 5702  14.610   4.749  10.443 -0.1336 -0.1562 -0.0964
  357loPI   C1A 5703  14.149   4.662  10.308  0.2152 -0.0721  0.1829
  357loPI   C2A 5704  13.992   4.787   9.938  0.0912 -0.0782 -0.2626
  357loPI   C3A 5705  13.960   4.761   9.552  0.2642  0.0754  0.0403
  357loPI   C4A 5706  14.012   4.814   9.076 -0.3661 -0.1152 -0.1042
  357loPI   C5A 5707  13.863   4.820   8.634  0.0009  0.3494 -0.0300
  357loPI   C6A 5708  13.705   4.463   8.373 -0.0338 -0.0671 -0.3365
  357loPI   C1B 5709  14.513   4.954  10.043 -0.2226 -0.1642  0.1061
  357loPI   C2B 5710  14.409   4.947   9.607 -0.1126  0.0236 -0.2346
  357loPI   C3B 5711  14.433   5.007   9.190  0.0258 -0.0603 -0.1604
  357loPI   C4B 5712  14.355   4.954   8.742  0.2506 -0.1207  0.0932
  358loPI    C1 5713  15.298   7.238  11.219  0.1295  0.1079  0.0396
  358loPI    C2 5714  15.559   7.217  10.916  0.0917  0.0808  0.0089
  358loPI    C3 5715  15.675   7.120  11.286  0.0779 -0.1034 -0.0340
  358loPI   PO4 5716  15.057   7.315  10.994 -0.3397 -0.0960 -0.0471
  358loPI   GL1 5717  14.865   7.180  10.665 -0.1441 -0.1999  0.0771
  358loPI   GL2 5718  15.276   7.031  10.573 -0.1269 -0.0751 -0.2072
  358loPI   C1A 5719  14.764   7.129  10.330  0.2741 -0.1846 -0.1979
  358loPI   C2A 5720  14.793   6.992   9.897 -0.0287 -0.0792 -0.2540
  358loPI   C3A 5721  14.816   7.009   9.441 -0.0525  0.0368  0.0413
  358loPI   C4A 5722  14.747   7.018   9.021  0.0003  0.4858  0.2776
  358loPI   C5A 5723  14.825   7.071   8.613 -0.2188 -0.0685  0.0022
  358loPI   C6A 5724  15.146   6.949   8.304  0.0550 -0.0250  0.2652
  358loPI   C1B 5725  15.607   6.898  10.295  0.1201  0.3442  0.3452
  358loPI   C2B 5726  15.629   6.898   9.888 -0.0451 -0.3117 -0.1439
  358loPI   C3B 5727  15.592   6.770   9.513 -0.1831 -0.3426  0.4058
  358loPI   C4B 5728  15.671   6.851   9.099  0.3100  0.1264  0.3222
  359loPI    C1 5729   4.035   3.894  11.156  0.1557  0.1473  0.0076
  359loPI    C2 5730   4.213   3.874  11.514  0.1666  0.0644 -0.0023
  359loPI    C3 5731   3.902   3.636  11.431  0.2532 -0.0163 -0.0974
  359loPI   PO4 5732   4.263   4.037  10.948 -0.1054  0.1124 -0.4018
  359loPI   GL1 5733   4.356   4.050  10.548 -0.2575 -0.1187  0.3157
  359loPI   GL2 5734   4.295   3.719  10.358  0.0997  0.0549 -0.1607
  359loPI   C1A 5735   4.250   4.337  10.187  0.0575  0.0572 -0.0976
  359loPI   C2A 5736   4.231   4.418   9.784 -0.2207  0.0199  0.1170
  359loPI   C3A 5737   4.179   4.856   9.677  0.0671  0.3135 -0.2302
  359loPI   C4A 5738   4.312   5.120   9.317  0.2561 -0.0551 -0.1169
  359loPI   C5A 5739   4.427   5.195   8.941 -0.0478 -0.2209 -0.4169
  359loPI   C6A 5740   4.408   5.219   8.515  0.0988 -0.1378  0.0430
  359loPI   C1B 5741   4.264   3.854   9.875 -0.3744 -0.0326  0.1203
  359loPI   C2B 5742   4.397   3.660   9.584  0.1989  0.0649 -0.0348
  359loPI   C3B 5743   4.527   3.673   9.163 -0.1502  0.0615  0.3476
  359loPI   C4B 5744   4.365   3.770   8.673  0.0850 -0.0465  0.2428
  360loPI    C1 5745  10.990  11.379  11.201  0.2514 -0.2126  0.2459
  360loPI    C2 5746  11.227  11.418  11.521 -0.1331  0.0540  0.5076
  360loPI    C3 5747  10.878  11.227  11.553 -0.2003  0.1311  0.2602
  360loPI   PO4 5748  10.990  11.156  10.977  0.0527  0.3510  0.3975
  360loPI   GL1 5749  10.781  11.070  10.447  0.1759 -0.2334 -0.1329
  360loPI   GL2 5750  11.137  11.141  10.509  0.0827  0.2795  0.0108
  360loPI   C1A 5751  10.764  10.784  10.112 -0.1624  0.0376 -0.3228
  360loPI   C2A 5752  10.617  10.706   9.726 -0.0563 -0.2209 -0.2618
  360loPI   C3A 5753  10.786  10.746   9.363  0.1726  0.1707 -0.0808
  360loPI   C4A 5754  10.913  10.794   8.926 -0.0569 -0.1146 -0.0106
  360loPI   C5A 5755  10.649  10.672   8.506 -0.1362 -0.0720 -0.0672
  360loPI   C6A 5756  10.405  10.449   8.249 -0.1961  0.1070 -0.5077
  360loPI   C1B 5757  11.206  10.975  10.208  0.2325 -0.1224  0.1929
  360loPI   C2B 5758  11.254  10.971   9.724  0.0041 -0.1463  0.0015
  360loPI   C3B 5759  11.234  11.001   9.271  0.1578 -0.0467 -0.2227
  360loPI   C4B 5760  11.344  11.037   8.868 -0.0347  0.1511  0.1383
  361loPI    C1 5761   0.253  14.163  11.071  0.2650  0.1714 -0.0946
  361loPI    C2 5762  -0.027  14.421  10.950 -0.0310 -0.0931  0.0120
  361loPI    C3 5763   0.092  14.420  11.331  0.0293 -0.0607 -0.0067
  361loPI   PO4 5764   0.422  14.214  10.742  0.3432 -0.0269 -0.1193
  361loPI   GL1 5765   0.609  14.555  10.538  0.0954 -0.1042  0.2464
  361loPI   GL2 5766   0.990  14.559  10.595  0.0475 -0.1270 -0.1412
  361loPI   C1A 5767   0.533  14.415  10.112  0.2256 -0.0772  0.1566
  361loPI   C2A 5768   0.528  14.576   9.641 -0.1133 -0.0272  0.3880
  361loPI   C3A 5769   0.645  14.556   9.114 -0.2227  0.4008 -0.0044
  361loPI   C4A 5770   0.546  14.544   8.746 -0.3281  0.0702 -0.4020
  361loPI   C5A 5771   0.161  14.397   8.441  0.3307 -0.0652  0.1304
  361loPI   C6A 5772  -0.150  14.200   8.239  0.1545 -0.2357  0.2307
  361loPI   C1B 5773   0.978  14.579  10.219 -0.0781  0.0194  0.1556
  361loPI   C2B 5774   1.003  14.513   9.806  0.0475 -0.2286  0.0477
  361loPI   C3B 5775   0.932  14.835   9.431 -0.1691 -0.0834 -0.1278
  361loPI   C4B 5776   1.022  15.033   9.064  0.1287  0.5083  0.1255
  362loPI    C1 5777  14.559   2.216  10.995 -0.1343 -0.1119 -0.2505
  362loPI    C2 5778  14.162   2.243  11.040 -0.0941  0.0413  0.0402
  362loPI    C3 5779  14.382   2.055  11.316  0.0354 -0.0565 -0.1277
  362loPI   PO4 5780  14.605   2.085  10.764 -0.0795 -0.2500 -0.1108
  362loPI   GL1 5781  14.612   2.165  10.295  0.1113  0.0372  0.1267
  362loPI   GL2 5782  14.626   2.525  10.300  0.0542 -0.0055 -0.1377
  362loPI   C1A 5783  14.560   1.971   9.886 -0.1673  0.0531  0.0247
  362loPI   C2A 5784  14.408   1.955   9.428  0.2635  0.0350  0.0459
  362loPI   C3A 5785  14.417   2.137   8.916  0.1129 -0.1704 -0.0025
  362loPI   C4A 5786  14.458   1.960   8.497 -0.1288 -0.0227 -0.2154
  362loPI   C5A 5787  14.686   1.774   8.278  0.0246 -0.2170  0.0313
  362loPI   C6A 5788  14.853   1.738   7.875 -0.0825  0.0535  0.1096
  362loPI   C1B 5789  14.676   2.572   9.801 -0.0739 -0.2062 -0.0470
  362loPI   C2B 5790  14.527   2.491   9.334  0.0419  0.0828  0.0356
  362loPI   C3B 5791  14.346   2.630   8.987 -0.2670  0.2242  0.1817
  362loPI   C4B 5792  14.052   2.480   8.644 -0.0350  0.1040 -0.3039
  363loPI    C1 5793   0.457   8.211  11.326  0.0745  0.0356 -0.0821
  363loPI    C2 5794   0.753   8.256  11.591 -0.0655  0.0778  0.0686
  363loPI    C3 5795   0.393   8.133  11.713 -0.1346  0.1095 -0.1007
  363loPI   PO4 5796   0.551   8.378  11.134  0.0382 -0.2469 -0.0687
  363loPI   GL1 5797   0.519   8.384  10.807  0.1570  0.1640 -0.2779
  363loPI   GL2 5798   0.552   8.758  10.697  0.1360 -0.0984 -0.0252
  363loPI   C1A 5799   0.522   8.377  10.325  0.0569 -0.0584 -0.0356
  363loPI   C2A 5800   0.464   8.357   9.957  0.0166 -0.0262 -0.1196
  363loPI   C3A 5801   0.421   8.262   9.489 -0.1357 -0.2238 -0.0262
  363loPI   C4A 5802   0.349   8.364   9.178  0.0227 -0.1245 -0.1857
  363loPI   C5A 5803   0.206   8.323   8.712  0.1201 -0.7006 -0.0731
  363loPI   C6A 5804   0.489   8.146   8.375  0.0909 -0.2471  0.4122
  363loPI   C1B 5805   0.628   8.885  10.272  0.1400 -0.0267 -0.0285
  363loPI   C2B 5806   0.559   8.873   9.816 -0.1855  0.1619 -0.0658
  363loPI   C3B 5807   0.434   8.906   9.371 -0.1529  0.2957 -0.0640
  363loPI   C4B 5808   0.429   8.846   8.910  0.0330  0.1692  0.0480
  364loPI    C1 5809  15.383  13.148  10.965 -0.0858 -0.0213  0.0129
  364loPI    C2 5810  15.650  13.366  11.169 -0.1884  0.1271 -0.0095
  364loPI    C3 5811  15.432  13.089  11.358  0.1081 -0.1224 -0.0256
  364loPI   PO4 5812  15.199  13.362  10.813 -0.3086 -0.1227  0.1218
  364loPI   GL1 5813  15.159  13.436  10.365  0.3687 -0.0732  0.1963
  364loPI   GL2 5814  15.386  13.438  10.226  0.0495  0.0233  0.1318
  364loPI   C1A 5815  14.951  13.459   9.971  0.0235 -0.0902  0.2491
  364loPI   C2A 5816  14.928  13.498   9.552 -0.1551  0.4964  0.0801
  364loPI   C3A 5817  14.934  13.426   9.127  0.3150  0.2418 -0.0125
  364loPI   C4A 5818  15.027  13.465   8.729 -0.1047  0.0799 -0.1563
  364loPI   C5A 5819  15.002  13.480   8.267  0.1715 -0.0302  0.1909
  364loPI   C6A 5820  15.135  13.882   7.986 -0.1320 -0.0591  0.2915
  364loPI   C1B 5821  15.440  13.531   9.771  0.2560  0.0104 -0.1786
  364loPI   C2B 5822  15.751  13.564   9.472  0.1429 -0.0967 -0.1228
  364loPI   C3B 5823  15.925  13.709   9.018 -0.2419  0.1551  0.2306
  364loPI   C4B 5824  16.280  13.876   8.717 -0.1036 -0.0385 -0.2247
  365loPI    C1 5825   4.146  10.939  10.670  0.1657 -0.2680 -0.2295
  365loPI    C2 5826   3.931  10.809  10.982  0.1068  0.0565 -0.1315
  365loPI    C3 5827   4.269  10.622  10.880  0.0972 -0.0857  0.0924
  365loPI   PO4 5828   4.013  10.977  10.512  0.1291  0.0161 -0.2156
  365loPI   GL1 5829   3.896  10.874  10.064  0.0465 -0.0299  0.1166
  365loPI   GL2 5830   3.760  11.140  10.049 -0.0319 -0.0654 -0.0872
  365loPI   C1A 5831   3.981  10.908   9.564  0.1876  0.0421  0.1539
  365loPI   C2A 5832   3.940  10.779   9.023  0.0350  0.0354 -0.1099
  365loPI   C3A 5833   3.839  10.727   8.723  0.0224 -0.1122  0.3677
  365loPI   C4A 5834   3.889  10.699   8.321 -0.0007  0.0564 -0.5035
  365loPI   C5A 5835   3.525  10.683   8.055  0.2519  0.0883  0.2377
  365loPI   C6A 5836   3.425  10.682   7.753 -0.0193 -0.0329  0.0921
  365loPI   C1B 5837   3.566  11.164   9.655  0.0737 -0.0074 -0.3796
  365loPI   C2B 5838   3.494  11.129   9.204  0.0782 -0.0608  0.0946
  365loPI   C3B 5839   3.455  11.149   8.814 -0.0524  0.0461  0.0812
  365loPI   C4B 5840   3.467  10.970   8.482  0.0718  0.2002  0.3049
  366loPI    C1 5841  14.585  17.862  10.948 -0.1335 -0.0540  0.1104
  366loPI    C2 5842  14.553  18.257  11.002  0.0293 -0.0311  0.0465
  366loPI    C3 5843  14.374  18.005  11.256 -0.0587  0.0831  0.0988
  366loPI   PO4 5844  14.558  17.834  10.680  0.1078 -0.1440  0.1104
  366loPI   GL1 5845  14.457  18.172  10.488  0.0264  0.0495 -0.2308
  366loPI   GL2 5846  14.181  18.350  10.357 -0.1031  0.1381 -0.0351
  366loPI   C1A 5847  14.600  18.314  10.055  0.1344  0.0521 -0.2098
  366loPI   C2A 5848  14.655  18.461   9.598  0.0618  0.3237  0.0334
  366loPI   C3A 5849  14.782  18.674   9.260 -0.0543 -0.3051 -0.0434
  366loPI   C4A 5850  14.767  18.642   8.797  0.0084  0.0881 -0.2823
  366loPI   C5A 5851  15.029  18.800   8.526  0.1709 -0.1096  0.2548
  366loPI   C6A 5852  15.217  18.870   8.185  0.3635 -0.2150 -0.1948
  366loPI   C1B 5853  14.210  18.677  10.089  0.1164  0.0386  0.0611
  366loPI   C2B 5854  14.258  18.825   9.659 -0.0444 -0.0445 -0.3854
  366loPI   C3B 5855  14.382  18.969   9.283  0.2134  0.1162 -0.0524
  366loPI   C4B 5856  14.405  18.894   8.908 -0.0913  0.2676  0.2952
  367loPI    C1 5857   2.920   6.037  11.114 -0.1743 -0.1016 -0.0037
  367loPI    C2 5858   2.782   5.736  11.338  0.0260 -0.0782  0.1541
  367loPI    C3 5859   3.175   5.780  11.284 -0.0177 -0.0476 -0.1548
  367loPI   PO4 5860   2.787   6.009  10.861  0.1588  0.1530  0.2715
  367loPI   GL1 5861   2.927   5.943  10.367  0.0762  0.1249 -0.0854
  367loPI   GL2 5862   3.292   6.184  10.403  0.5439  0.1389  0.0229
  367loPI   C1A 5863   3.024   5.946   9.995  0.0845 -0.1482 -0.0602
  367loPI   C2A 5864   3.222   5.995   9.644  0.0283  0.0310  0.3807
  367loPI   C3A 5865   3.603   5.902   9.450 -0.1160 -0.3175  0.0146
  367loPI   C4A 5866   3.731   5.948   9.135  0.0026  0.0371 -0.0120
  367loPI   C5A 5867   3.679   5.994   8.683  0.1352  0.2051  0.1112
  367loPI   C6A 5868   3.443   6.195   8.331  0.0597  0.0492 -0.0859
  367loPI   C1B 5869   3.526   6.195  10.026  0.2873  0.1668  0.0879
  367loPI   C2B 5870   3.541   6.346   9.612  0.2779  0.1264 -0.1171
  367loPI   C3B 5871   3.852   6.450   9.288  0.1570  0.0726 -0.1839
  367loPI   C4B 5872   3.865   6.419   8.880  0.0610 -0.1226 -0.1966
  368loPI    C1 5873   3.478   7.290  11.115  0.0831  0.0863 -0.0721
  368loPI    C2 5874   3.850   7.358  11.243  0.1097 -0.0613 -0.0696
  368loPI    C3 5875   3.549   7.588  11.371  0.1671 -0.0782  0.0980
  368loPI   PO4 5876   3.540   7.327  10.790  0.1664  0.1075  0.0398
  368loPI   GL1 5877   3.469   7.064  10.496 -0.0894  0.0940  0.3683
  368loPI   GL2 5878   3.728   6.968  10.376 -0.0217  0.1745  0.1619
  368loPI   C1A 5879   3.399   7.215  10.094  0.1982  0.3913 -0.1015
  368loPI   C2A 5880   3.471   7.238   9.664 -0.0713  0.1511 -0.0408
  368loPI   C3A 5881   3.499   7.288   9.193 -0.4594  0.0816 -0.1465
  368loPI   C4A 5882   3.456   7.154   8.847 -0.1910 -0.0367  0.2358
  368loPI   C5A 5883   3.304   6.922   8.537 -0.0287  0.0444 -0.0515
  368loPI   C6A 5884   3.260   6.670   8.189  0.0048 -0.0660  0.4069
  368loPI   C1B 5885   3.856   6.978   9.959  0.2091 -0.0378  0.2803
  368loPI   C2B 5886   3.845   6.978   9.513  0.3989  0.3105 -0.2403
  368loPI   C3B 5887   3.933   6.923   9.097  0.1466  0.0648 -0.2818
  368loPI   C4B 5888   3.894   6.852   8.637 -0.2327 -0.2227 -0.0666
  369loPI    C1 5889  10.582   3.308  10.759 -0.0454 -0.1478  0.0864
  369loPI    C2 5890  10.746   3.164  11.094  0.1201  0.1529  0.1378
  369loPI    C3 5891  10.915   3.088  10.739  0.0208 -0.0519  0.1326
  369loPI   PO4 5892  10.498   3.497  10.832  0.0406 -0.3266 -0.0185
  369loPI   GL1 5893  10.238   3.657  10.575  0.1425 -0.0471 -0.1087
  369loPI   GL2 5894  10.147   3.936  10.643  0.0093  0.3827 -0.0073
  369loPI   C1A 5895  10.477   3.624  10.199 -0.0342 -0.0415  0.0141
  369loPI   C2A 5896  10.636   3.843   9.783  0.0409  0.2188 -0.0672
  369loPI   C3A 5897  10.699   3.949   9.387 -0.2009 -0.0906 -0.2021
  369loPI   C4A 5898  10.668   4.003   9.016 -0.0005 -0.1882 -0.1964
  369loPI   C5A 5899  10.911   4.178   8.676 -0.1737 -0.2119 -0.0642
  369loPI   C6A 5900  10.770   4.394   8.339  0.0438  0.0068 -0.2037
  369loPI   C1B 5901  10.245   4.183  10.200  0.0958  0.0302  0.0167
  369loPI   C2B 5902  10.273   4.181   9.749 -0.0318 -0.2027  0.3236
  369loPI   C3B 5903  10.230   4.225   9.405  0.1664  0.1662  0.2081
  369loPI   C4B 5904  10.259   4.293   8.999  0.2145 -0.2014 -0.2795
  370loPI    C1 5905  14.193  14.031  10.713  0.0175 -0.0312 -0.1282
  370loPI    C2 5906  14.369  14.354  10.869 -0.0621  0.0049 -0.1128
  370loPI    C3 5907  14.328  14.023  11.089  0.4101 -0.1637 -0.2674
  370loPI   PO4 5908  14.296  13.971  10.503 -0.3039 -0.0750 -0.0329
  370loPI   GL1 5909  14.326  13.941  10.127  0.1626 -0.1450  0.2011
  370loPI   GL2 5910  14.119  13.621  10.088 -0.1729 -0.2660 -0.2669
  370loPI   C1A 5911  14.493  13.898   9.838 -0.0341  0.0365  0.1252
  370loPI   C2A 5912  14.725  13.954   9.511  0.0298 -0.0194  0.2463
  370loPI   C3A 5913  14.830  13.933   9.173 -0.0522 -0.0552 -0.3901
  370loPI   C4A 5914  15.189  13.921   8.901 -0.0921  0.0982  0.0171
  370loPI   C5A 5915  15.318  14.245   8.591 -0.0749 -0.3575  0.0263
  370loPI   C6A 5916  15.741  14.517   8.518 -0.1014  0.2475  0.0168
  370loPI   C1B 5917  14.072  13.674   9.693  0.2046 -0.3578  0.3185
  370loPI   C2B 5918  14.176  13.706   9.360 -0.2005 -0.0647  0.0719
  370loPI   C3B 5919  14.489  13.653   9.008 -0.0163  0.0575 -0.1223
  370loPI   C4B 5920  14.597  13.615   8.581  0.3912 -0.0404 -0.2544
  371loPI    C1 5921  13.107  16.183  10.810 -0.1088 -0.1352  0.1460
  371loPI    C2 5922  13.468  16.034  10.721 -0.0860 -0.0294  0.0590
  371loPI    C3 5923  13.417  16.252  11.053 -0.0770 -0.0705  0.0875
  371loPI   PO4 5924  12.911  16.359  10.506  0.0201  0.0698  0.3457
  371loPI   GL1 5925  12.807  16.165  10.190  0.1889 -0.2045 -0.1363
  371loPI   GL2 5926  12.873  16.466  10.011  0.4146  0.0318 -0.1841
  371loPI   C1A 5927  13.112  16.097   9.840  0.0087 -0.1098 -0.1466
  371loPI   C2A 5928  13.095  15.883   9.510  0.0200 -0.0257 -0.0066
  371loPI   C3A 5929  12.820  15.721   9.132 -0.0439 -0.3190  0.0148
  371loPI   C4A 5930  12.493  15.347   9.060 -0.5266 -0.0792 -0.3566
  371loPI   C5A 5931  12.361  14.900   8.927 -0.0710  0.0583  0.0172
  371loPI   C6A 5932  12.320  14.592   9.128  0.1425 -0.2691 -0.2910
  371loPI   C1B 5933  12.822  16.476   9.567  0.0953  0.2530  0.0346
  371loPI   C2B 5934  12.880  16.328   9.191  0.0509 -0.0023  0.0847
  371loPI   C3B 5935  13.335  16.110   9.080  0.0398  0.3977  0.1727
  371loPI   C4B 5936  13.406  15.948   8.703 -0.1763  0.4056  0.0442
  372loPI    C1 5937   9.963  13.673  11.025 -0.1107  0.0244  0.1294
  372loPI    C2 5938   9.698  13.466  11.241 -0.1856  0.0206  0.0343
  372loPI    C3 5939  10.089  13.409  11.298 -0.2046  0.0356  0.1842
  372loPI   PO4 5940   9.802  13.624  10.763 -0.2773  0.1992 -0.0266
  372loPI   GL1 5941   9.683  13.382  10.404  0.1769 -0.2539 -0.0869
  372loPI   GL2 5942   9.461  13.310  10.596  0.0232  0.0409  0.0615
  372loPI   C1A 5943   9.562  13.183  10.081 -0.1047 -0.1163  0.1036
  372loPI   C2A 5944   9.460  12.953   9.700 -0.1793  0.2090  0.1283
  372loPI   C3A 5945   9.573  12.722   9.378 -0.2424  0.1656  0.1104
  372loPI   C4A 5946   9.419  12.742   8.941 -0.1575 -0.2028 -0.1417
  372loPI   C5A 5947   9.475  12.524   8.686  0.1178  0.0497  0.3336
  372loPI   C6A 5948   9.627  12.152   8.472 -0.0811 -0.2357 -0.0286
  372loPI   C1B 5949   9.284  13.560  10.175  0.1892 -0.2272  0.0771
  372loPI   C2B 5950   9.358  13.656   9.869 -0.0122  0.2914 -0.3037
  372loPI   C3B 5951   9.380  13.688   9.414 -0.1023  0.1980  0.2354
  372loPI   C4B 5952   9.221  13.875   8.980 -0.0647 -0.2509 -0.1390
  373loPI    C1 5953   9.344   0.376  10.916 -0.0234 -0.3971  0.3696
  373loPI    C2 5954   9.498   0.617  11.196 -0.1626  0.1352  0.0025
  373loPI    C3 5955   9.105   0.623  11.121 -0.1491 -0.1181 -0.0968
  373loPI   PO4 5956   9.468   0.451  10.647 -0.0002 -0.1045 -0.1754
  373loPI   GL1 5957   9.271   0.739  10.300  0.1249 -0.2504 -0.2222
  373loPI   GL2 5958   9.128   0.391  10.234 -0.1232 -0.0644 -0.1083
  373loPI   C1A 5959   8.936   0.838   9.968 -0.2633  0.0307  0.3306
  373loPI   C2A 5960   8.763   0.974   9.658  0.1238 -0.2612 -0.0990
  373loPI   C3A 5961   8.790   0.989   9.230 -0.4102  0.1233  0.2404
  373loPI   C4A 5962   9.021   1.207   8.853 -0.0222  0.2028 -0.0481
  373loPI   C5A 5963   8.950   1.528   8.576 -0.1340 -0.1166 -0.4393
  373loPI   C6A 5964   8.781   1.821   8.277  0.0349  0.1053  0.1605
  373loPI   C1B 5965   9.287   0.528   9.868 -0.1106  0.0852 -0.0679
  373loPI   C2B 5966   9.235   0.933   9.567  0.1522  0.4177 -0.1970
  373loPI   C3B 5967   9.313   1.331   9.275 -0.4323  0.3166  0.0316
  373loPI   C4B 5968   9.500   1.357   8.812  0.2923  0.0977 -0.2092
  374loPI    C1 5969  16.629   2.058  10.992  0.1986  0.2465  0.1572
  374loPI    C2 5970  16.609   1.693  11.154  0.1185  0.1716 -0.0193
  374loPI    C3 5971  16.509   2.014  11.371 -0.2383  0.0507  0.0026
  374loPI   PO4 5972  16.816   2.096  10.819  0.0392  0.0181  0.1842
  374loPI   GL1 5973  16.813   2.288  10.418  0.0085  0.1273 -0.2714
  374loPI   GL2 5974  16.863   2.513  10.481  0.0195  0.1178 -0.0896
  374loPI   C1A 5975  16.735   2.101  10.066 -0.1246  0.0020 -0.1485
  374loPI   C2A 5976  16.764   1.936   9.630  0.2302 -0.2979  0.3890
  374loPI   C3A 5977  16.795   2.008   9.223 -0.2069  0.0363 -0.0292
  374loPI   C4A 5978  16.826   1.982   8.800 -0.0242  0.0702 -0.0082
  374loPI   C5A 5979  16.765   2.294   8.369  0.4832 -0.0147  0.0869
  374loPI   C6A 5980  16.676   2.627   8.069 -0.0527  0.2086 -0.4609
  374loPI   C1B 5981  16.907   2.656  10.062 -0.2297 -0.3537  0.0989
  374loPI   C2B 5982  16.895   2.575   9.668  0.1757 -0.0238 -0.1303
  374loPI   C3B 5983  16.890   2.547   9.245  0.0124 -0.0199 -0.1116
  374loPI   C4B 5984  16.883   2.523   8.787 -0.1932  0.1841 -0.1503
  375loPI    C1 5985   9.447   7.631  11.408 -0.0049  0.1499  0.0998
  375loPI    C2 5986   9.482   8.028  11.376 -0.2463  0.1856  0.2547
  375loPI    C3 5987   9.561   7.848  11.724  0.2660  0.0470  0.0759
  375loPI   PO4 5988   9.520   7.509  11.172 -0.0132  0.0160  0.3236
  375loPI   GL1 5989   9.720   7.542  10.807 -0.0287  0.1206  0.1177
  375loPI   GL2 5990   9.577   7.890  10.793 -0.2765  0.0261  0.2917
  375loPI   C1A 5991   9.684   7.479  10.375 -0.2243 -0.1497 -0.0743
  375loPI   C2A 5992   9.511   7.578   9.982  0.0437 -0.3053  0.0295
  375loPI   C3A 5993   9.441   7.739   9.683 -0.2870  0.1701 -0.0313
  375loPI   C4A 5994   9.442   7.787   9.260  0.0366  0.2766  0.0871
  375loPI   C5A 5995   9.391   7.897   8.886 -0.0724 -0.1190 -0.1998
  375loPI   C6A 5996   9.390   8.383   8.731  0.2161  0.3726 -0.2292
  375loPI   C1B 5997   9.424   8.176  10.517 -0.3481  0.1278  0.0378
  375loPI   C2B 5998   9.488   8.224  10.114  0.2789  0.1372  0.1472
  375loPI   C3B 5999   9.492   8.269   9.699 -0.1203  0.1489  0.0342
  375loPI   C4B 6000   9.372   8.310   9.239 -0.1398  0.2171 -0.0757
  376loPI    C1 6001  15.050  17.030  10.798  0.1895  0.1293 -0.1716
  376loPI    C2 6002  15.203  16.713  10.608 -0.0226 -0.0698 -0.0160
  376loPI    C3 6003  15.176  16.713  11.007  0.1728  0.2353  0.0008
  376loPI   PO4 6004  15.156  17.199  10.654  0.1407 -0.0739 -0.0395
  376loPI   GL1 6005  15.212  17.419  10.283 -0.0224 -0.1202 -0.0065
  376loPI   GL2 6006  14.927  17.587  10.324  0.0675 -0.1354 -0.3292
  376loPI   C1A 6007  15.127  17.566   9.839  0.1486 -0.0031  0.0346
  376loPI   C2A 6008  15.109  17.773   9.443  0.1255 -0.1205 -0.0132
  376loPI   C3A 6009  15.131  17.810   9.086  0.0925  0.2745 -0.2557
  376loPI   C4A 6010  15.175  17.741   8.649  0.0155  0.3072  0.0007
  376loPI   C5A 6011  15.214  17.990   8.295 -0.3095  0.0958  0.0689
  376loPI   C6A 6012  15.427  18.354   8.359  0.2735  0.0167  0.0522
  376loPI   C1B 6013  14.681  17.736   9.951  0.0579 -0.1822  0.0635
  376loPI   C2B 6014  14.651  17.968   9.645 -0.1220 -0.1609 -0.0451
  376loPI   C3B 6015  14.788  18.130   9.254 -0.0106 -0.1789  0.0877
  376loPI   C4B 6016  14.702  18.038   8.833 -0.1469 -0.1230 -0.0258
  377loPI    C1 6017   5.110   0.578  10.536  0.0215 -0.1282  0.1688
  377loPI    C2 6018   4.738   0.430  10.555 -0.0936  0.1494  0.1261
  377loPI    C3 6019   4.978   0.411  10.875 -0.0133 -0.3595  0.0438
  377loPI   PO4 6020   5.191   0.571  10.273 -0.1828  0.2967 -0.3696
  377loPI   GL1 6021   5.078   0.352   9.911 -0.0070 -0.1417 -0.0721
  377loPI   GL2 6022   5.451   0.408   9.891 -0.0204 -0.0078 -0.0536
  377loPI   C1A 6023   5.059   0.662   9.642 -0.0760  0.2965  0.1226
  377loPI   C2A 6024   4.872   0.661   9.220 -0.2472  0.1938 -0.0737
  377loPI   C3A 6025   4.828   0.588   8.742  0.2489  0.0129  0.2020
  377loPI   C4A 6026   4.685   0.760   8.376 -0.1594  0.0552 -0.0836
  377loPI   C5A 6027   4.365   0.942   8.236  0.0900  0.0122  0.0288
  377loPI   C6A 6028   3.926   0.968   8.055  0.1528 -0.3274 -0.1076
  377loPI   C1B 6029   5.511   0.417   9.430 -0.0595  0.1276  0.1929
  377loPI   C2B 6030   5.710   0.496   9.100  0.2149 -0.0941 -0.0373
  377loPI   C3B 6031   5.776   0.609   8.581 -0.1976 -0.0772 -0.2153
  377loPI   C4B 6032   5.438   0.695   8.338 -0.5297 -0.0428  0.0094
  378loPI    C1 6033   5.469   2.307  10.953  0.1052 -0.0034 -0.2436
  378loPI    C2 6034   5.270   2.618  11.106  0.0783 -0.0377 -0.2086
  378loPI    C3 6035   5.527   2.413  11.334 -0.1312 -0.2295 -0.1412
  378loPI   PO4 6036   5.271   2.325  10.704 -0.0962  0.2303  0.1500
  378loPI   GL1 6037   5.297   1.923  10.354 -0.4000 -0.2314  0.1048
  378loPI   GL2 6038   5.070   1.822  10.459  0.0426  0.1454  0.0806
  378loPI   C1A 6039   5.191   2.034   9.938 -0.0337 -0.4692  0.3196
  378loPI   C2A 6040   5.417   2.003   9.477 -0.1760 -0.0019 -0.2644
  378loPI   C3A 6041   5.317   1.999   9.074  0.2287  0.1778  0.0258
  378loPI   C4A 6042   5.135   1.916   8.592 -0.1204  0.1259 -0.0902
  378loPI   C5A 6043   4.752   2.003   8.342  0.2660 -0.0102 -0.0159
  378loPI   C6A 6044   4.368   1.918   8.243  0.0221  0.1374  0.3934
  378loPI   C1B 6045   4.814   1.667  10.118  0.2192 -0.0652 -0.1169
  378loPI   C2B 6046   4.370   1.873   9.956  0.0699  0.3729 -0.2126
  378loPI   C3B 6047   4.213   2.170   9.669 -0.1419  0.0305  0.1447
  378loPI   C4B 6048   4.344   2.610   9.461  0.0238 -0.0094  0.5773
  379loPI    C1 6049  10.227  11.745  10.888 -0.3977 -0.1439  0.0648
  379loPI    C2 6050   9.999  12.073  10.916 -0.1673  0.0049  0.2323
  379loPI    C3 6051  10.246  11.975  11.215  0.1964  0.0031 -0.0621
  379loPI   PO4 6052  10.077  11.528  10.780  0.3599 -0.3631 -0.1936
  379loPI   GL1 6053  10.111  11.233  10.552  0.1041 -0.2444 -0.0072
  379loPI   GL2 6054   9.829  11.435  10.382 -0.0662  0.0089  0.1295
  379loPI   C1A 6055  10.270  11.050  10.085 -0.0768 -0.2065  0.1909
  379loPI   C2A 6056  10.264  11.017   9.632  0.1207 -0.1806  0.1507
  379loPI   C3A 6057  10.276  11.035   9.271 -0.2342 -0.1001 -0.2431
  379loPI   C4A 6058  10.417  10.962   8.906 -0.0592  0.4673  0.0314
  379loPI   C5A 6059  10.337  11.156   8.564  0.1776  0.2471  0.1150
  379loPI   C6A 6060  10.094  11.484   8.416  0.3773 -0.0936  0.1301
  379loPI   C1B 6061   9.708  11.533   9.970 -0.1166  0.2807 -0.0314
  379loPI   C2B 6062   9.834  11.582   9.568 -0.1499 -0.2124  0.0828
  379loPI   C3B 6063   9.875  11.308   9.220  0.0831  0.0564  0.0342
  379loPI   C4B 6064   9.825  11.248   8.800  0.0123 -0.0170  0.0179
  380loPI    C1 6065  11.839   4.487  10.998 -0.0591 -0.2231  0.0450
  380loPI    C2 6066  12.161   4.417  11.226 -0.0599  0.1717  0.1739
  380loPI    C3 6067  11.795   4.347  11.371 -0.0386 -0.2323  0.0439
  380loPI   PO4 6068  11.882   4.749  10.887  0.1822  0.1389  0.0238
  380loPI   GL1 6069  11.911   4.798  10.450  0.1095 -0.1678  0.2305
  380loPI   GL2 6070  12.258   4.929  10.542 -0.0886 -0.3489  0.0273
  380loPI   C1A 6071  11.765   4.901   9.901  0.1390  0.1986 -0.0248
  380loPI   C2A 6072  11.658   4.912   9.579 -0.2977 -0.2149 -0.2230
  380loPI   C3A 6073  11.684   4.826   9.215 -0.0295  0.1009  0.0561
  380loPI   C4A 6074  11.653   4.744   8.772 -0.1864  0.0258 -0.1468
  380loPI   C5A 6075  11.818   4.685   8.415 -0.0117  0.2782 -0.0215
  380loPI   C6A 6076  12.113   4.298   8.136 -0.2203 -0.2960  0.0742
  380loPI   C1B 6077  12.265   4.942  10.053 -0.0935 -0.1549 -0.0075
  380loPI   C2B 6078  12.168   5.017   9.615  0.1994  0.1281  0.1169
  380loPI   C3B 6079  12.235   5.109   9.190 -0.1269  0.3830  0.1983
  380loPI   C4B 6080  12.210   5.059   8.745 -0.3352  0.1769 -0.2369
  381loPI    C1 6081   2.725   1.851  11.059 -0.1510  0.1027  0.0789
  381loPI    C2 6082   2.726   2.239  11.154  0.1391  0.1530 -0.1167
  381loPI    C3 6083   2.728   1.962  11.443 -0.2292  0.2925  0.0256
  381loPI   PO4 6084   2.829   1.911  10.753 -0.0369 -0.0061  0.0918
  381loPI   GL1 6085   2.646   2.159  10.364 -0.0917 -0.0293 -0.1022
  381loPI   GL2 6086   2.549   1.889  10.346 -0.0751 -0.1063  0.1255
  381loPI   C1A 6087   2.883   2.333  10.009 -0.2147 -0.2750  0.1613
  381loPI   C2A 6088   3.013   2.284   9.598  0.1050  0.1175  0.0775
  381loPI   C3A 6089   2.947   2.672   9.251 -0.0157  0.1297  0.0439
  381loPI   C4A 6090   2.926   2.728   8.840 -0.0026  0.0369 -0.0139
  381loPI   C5A 6091   2.985   2.496   8.402 -0.1609  0.0757 -0.1306
  381loPI   C6A 6092   3.187   2.120   8.144  0.1907  0.1219 -0.1016
  381loPI   C1B 6093   2.732   1.749   9.964 -0.1277  0.4934  0.1991
  381loPI   C2B 6094   2.996   1.429   9.862 -0.2221 -0.1856  0.0165
  381loPI   C3B 6095   3.044   1.399   9.442  0.0287 -0.1155  0.0873
  381loPI   C4B 6096   3.057   1.433   9.049 -0.2397 -0.0053  0.2343
  382loPI    C1 6097  13.787  11.536  11.294 -0.0488 -0.1304 -0.1794
  382loPI    C2 6098  13.397  11.625  11.300 -0.0857 -0.2973 -0.0454
  382loPI    C3 6099  13.631  11.733  11.606  0.0347  0.0653 -0.2590
  382loPI   PO4 6100  13.840  11.618  10.969  0.1113  0.2217  0.0436
  382loPI   GL1 6101  13.808  11.508  10.606  0.0898 -0.1029  0.0054
  382loPI   GL2 6102  13.751  11.814  10.391  0.2254  0.0149  0.0603
  382loPI   C1A 6103  14.033  11.362  10.238  0.2553 -0.0057 -0.1451
  382loPI   C2A 6104  13.986  11.226   9.862 -0.1401 -0.2316 -0.0239
  382loPI   C3A 6105  13.993  11.131   9.447 -0.2791 -0.1462  0.2795
  382loPI   C4A 6106  13.822  11.084   8.989  0.1088  0.1047  0.1236
  382loPI   C5A 6107  13.697  10.878   8.587  0.0386 -0.0801 -0.1808
  382loPI   C6A 6108  13.230  10.694   8.415 -0.2670  0.1932  0.5303
  382loPI   C1B 6109  13.667  11.584  10.068 -0.2544 -0.0302 -0.0978
  382loPI   C2B 6110  13.557  11.460   9.671 -0.0779  0.1487  0.0435
  382loPI   C3B 6111  13.419  11.455   9.183  0.1903 -0.0374 -0.2512
  382loPI   C4B 6112  13.258  11.584   8.696 -0.1837  0.1916 -0.0001
  383loPI    C1 6113   7.165   0.646  10.731  0.1367  0.0485 -0.1702
  383loPI    C2 6114   7.161   0.367  11.017 -0.0590  0.2145 -0.0078
  383loPI    C3 6115   7.501   0.558  10.929  0.0286  0.0765  0.0274
  383loPI   PO4 6116   7.072   0.512  10.531 -0.0043  0.0708  0.2173
  383loPI   GL1 6117   6.908   0.489  10.058  0.2336 -0.0712  0.1732
  383loPI   GL2 6118   7.197   0.316  10.087 -0.1264 -0.1303  0.0534
  383loPI   C1A 6119   6.880   0.757   9.716 -0.0633 -0.2697  0.0345
  383loPI   C2A 6120   6.907   0.838   9.307 -0.1337  0.0987 -0.2847
  383loPI   C3A 6121   7.027   1.162   8.952 -0.0653  0.0295 -0.0451
  383loPI   C4A 6122   7.032   1.161   8.510 -0.0174  0.1854  0.1641
  383loPI   C5A 6123   7.091   1.255   8.086  0.1559 -0.3113 -0.0879
  383loPI   C6A 6124   7.015   1.548   7.743 -0.1320  0.2460  0.2159
  383loPI   C1B 6125   7.174   0.377   9.690 -0.2640  0.0744  0.0446
  383loPI   C2B 6126   7.257   0.361   9.286 -0.1884 -0.3093 -0.0543
  383loPI   C3B 6127   7.309   0.258   8.821 -0.1005  0.0985  0.0396
  383loPI   C4B 6128   7.273   0.221   8.408 -0.0012 -0.0690  0.3058
  384loPI    C1 6129   3.341   4.201  10.893  0.0933  0.1003 -0.1005
  384loPI    C2 6130   3.730   4.229  10.982  0.0649 -0.1081  0.0987
  384loPI    C3 6131   3.465   4.461  11.170  0.0894  0.0198 -0.0229
  384loPI   PO4 6132   3.302   4.031  10.647  0.0439 -0.1431  0.1183
  384loPI   GL1 6133   3.289   3.935  10.215 -0.0667  0.0588  0.0430
  384loPI   GL2 6134   3.469   4.205  10.174  0.0194 -0.1120 -0.3538
  384loPI   C1A 6135   3.731   3.884   9.960  0.0770 -0.1301 -0.0733
  384loPI   C2A 6136   3.944   4.002   9.568  0.1468 -0.4075  0.1379
  384loPI   C3A 6137   4.047   4.030   9.219 -0.3398  0.2861  0.1906
  384loPI   C4A 6138   4.107   4.200   8.734 -0.0521  0.1913  0.0468
  384loPI   C5A 6139   4.057   4.532   8.414 -0.0187  0.0139 -0.2561
  384loPI   C6A 6140   3.917   4.921   8.289 -0.1397 -0.0255 -0.0757
  384loPI   C1B 6141   3.467   4.267   9.799  0.1590 -0.1180 -0.1292
  384loPI   C2B 6142   3.499   4.141   9.347  0.1978 -0.2061  0.0775
  384loPI   C3B 6143   3.674   4.454   9.039 -0.0130  0.0545  0.0338
  384loPI   C4B 6144   3.621   4.562   8.688  0.1483  0.0676  0.0437
  385loPI    C1 6145  15.488   3.631  10.925  0.0188 -0.1507 -0.2038
  385loPI    C2 6146  15.741   3.341  11.034  0.0229 -0.1071 -0.0963
  385loPI    C3 6147  15.858   3.621  10.774  0.0745 -0.1059 -0.0718
  385loPI   PO4 6148  15.263   3.509  10.798 -0.1251 -0.0646 -0.4328
  385loPI   GL1 6149  15.368   3.297  10.539 -0.0522  0.1257  0.3985
  385loPI   GL2 6150  15.619   3.206  10.513 -0.2739  0.1777  0.1804
  385loPI   C1A 6151  15.186   3.249  10.218 -0.1143 -0.1541 -0.0157
  385loPI   C2A 6152  15.146   3.246   9.834  0.1289  0.1716 -0.2868
  385loPI   C3A 6153  15.073   3.306   9.420  0.0117  0.2073 -0.1930
  385loPI   C4A 6154  15.219   3.339   9.006  0.2367  0.3762 -0.0405
  385loPI   C5A 6155  15.241   3.426   8.587  0.4596 -0.0240  0.1272
  385loPI   C6A 6156  15.520   3.420   8.245 -0.2764  0.3626 -0.0860
  385loPI   C1B 6157  15.661   3.456  10.167  0.0206  0.1243  0.0935
  385loPI   C2B 6158  15.603   3.494   9.730  0.0092  0.1730  0.0692
  385loPI   C3B 6159  15.632   3.483   9.311 -0.2699  0.0247  0.2599
  385loPI   C4B 6160  15.710   3.480   8.788  0.3407  0.1418 -0.5239
  386loPI    C1 6161  16.707  14.180  10.779  0.0837 -0.0902  0.3398
  386loPI    C2 6162  16.646  13.796  10.687  0.0006 -0.0315  0.1443
  386loPI    C3 6163  16.347  14.015  10.839  0.0305 -0.0275  0.1979
  386loPI   PO4 6164  16.775  14.334  10.577  0.0965  0.2464 -0.0913
  386loPI   GL1 6165  17.103  14.240  10.258  0.4891  0.0751 -0.3583
  386loPI   GL2 6166  16.773  14.316  10.097 -0.0251 -0.0418  0.2004
  386loPI   C1A 6167  17.367  13.986   9.848 -0.0047  0.4292  0.3091
  386loPI   C2A 6168  17.503  13.996   9.388 -0.0448 -0.1583 -0.3844
  386loPI   C3A 6169  17.401  13.706   8.987  0.1409 -0.0793 -0.1836
  386loPI   C4A 6170  17.350  13.455   8.663  0.0517  0.0327 -0.1062
  386loPI   C5A 6171  16.918  13.333   8.639  0.2716 -0.1148  0.0972
  386loPI   C6A 6172  16.815  13.214   8.248 -0.4206  0.2302  0.1148
  386loPI   C1B 6173  16.899  14.081   9.640 -0.1701  0.2511 -0.1444
  386loPI   C2B 6174  17.058  14.191   9.317  0.2232 -0.0835 -0.0581
  386loPI   C3B 6175  17.114  14.227   8.975  0.1794  0.1775  0.1234
  386loPI   C4B 6176  17.286  14.019   8.578  0.1309  0.3312  0.1623
  387loPI    C1 6177  10.686   1.739  10.837 -0.0239 -0.1341 -0.0400
  387loPI    C2 6178  11.041   1.843  10.990 -0.0618 -0.2506  0.1295
  387loPI    C3 6179  10.731   1.774  11.233 -0.2168 -0.0934 -0.0207
  387loPI   PO4 6180  10.721   1.812  10.562  0.1202 -0.2278 -0.1440
  387loPI   GL1 6181  10.790   1.957  10.222  0.0748  0.1225  0.0306
  387loPI   GL2 6182  10.828   2.260  10.174 -0.3152 -0.0859 -0.2094
  387loPI   C1A 6183  10.554   1.906   9.832 -0.1647  0.1947  0.1311
  387loPI   C2A 6184  10.650   1.764   9.441  0.3791  0.0658 -0.3702
  387loPI   C3A 6185  10.443   1.618   9.066  0.0807  0.1125 -0.1856
  387loPI   C4A 6186  10.531   1.358   8.701  0.0792  0.1778  0.1443
  387loPI   C5A 6187  10.853   1.314   8.354 -0.0861 -0.1957 -0.0124
  387loPI   C6A 6188  10.820   0.966   7.974 -0.0408  0.0697 -0.0518
  387loPI   C1B 6189  11.050   2.050   9.800  0.0331 -0.0834  0.1602
  387loPI   C2B 6190  11.087   2.093   9.368 -0.0530 -0.2037  0.3773
  387loPI   C3B 6191  11.068   2.161   8.899 -0.3523 -0.3458  0.0415
  387loPI   C4B 6192  11.174   2.336   8.613 -0.2101 -0.4327  0.0731
  388loPI    C1 6193   1.328  15.027  11.064  0.1896 -0.0193  0.0546
  388loPI    C2 6194   1.283  15.362  11.277 -0.1387 -0.0902  0.1027
  388loPI    C3 6195   1.221  15.007  11.449  0.3843 -0.1898  0.1016
  388loPI   PO4 6196   1.241  14.986  10.769  0.2030 -0.3426 -0.0353
  388loPI   GL1 6197   1.408  15.241  10.400  0.1376  0.0461  0.0326
  388loPI   GL2 6198   1.102  15.163  10.336  0.0979  0.1225 -0.0235
  388loPI   C1A 6199   1.494  15.279   9.948 -0.1000  0.2421 -0.5392
  388loPI   C2A 6200   1.470  15.074   9.489  0.1657 -0.1272 -0.0967
  388loPI   C3A 6201   1.494  15.034   8.968 -0.2984 -0.2239 -0.0845
  388loPI   C4A 6202   1.563  14.677   8.787 -0.2001 -0.1753  0.3500
  388loPI   C5A 6203   1.515  14.574   8.341 -0.3175  0.0492 -0.3085
  388loPI   C6A 6204   1.467  14.560   7.960 -0.0734  0.1254  0.2364
  388loPI   C1B 6205   1.061  15.005   9.987  0.2044  0.3113 -0.1803
  388loPI   C2B 6206   1.009  15.359   9.645 -0.0950  0.0869  0.0567
  388loPI   C3B 6207   0.822  15.505   9.183  0.2026 -0.2921  0.0471
  388loPI   C4B 6208   0.516  15.813   8.963  0.1851 -0.2065  0.0065
  389loPI    C1 6209  14.255  17.515  11.130 -0.0256  0.0174  0.2779
  389loPI    C2 6210  14.471  17.186  11.201  0.0197  0.0018  0.0740
  389loPI    C3 6211  14.574  17.533  11.371  0.1415 -0.0288  0.0637
  389loPI   PO4 6212  14.245  17.497  10.833 -0.1960  0.1855 -0.1139
  389loPI   GL1 6213  14.121  17.701  10.393 -0.1215 -0.1400  0.1328
  389loPI   GL2 6214  14.415  17.503  10.337 -0.1066 -0.3198  0.0966
  389loPI   C1A 6215  14.257  17.989  10.017  0.1868  0.2556 -0.0199
  389loPI   C2A 6216  14.201  18.172   9.609 -0.0735  0.0424  0.0247
  389loPI   C3A 6217  14.256  18.414   9.331 -0.2878 -0.1875 -0.1367
  389loPI   C4A 6218  14.405  18.382   8.995 -0.1644  0.0439  0.0923
  389loPI   C5A 6219  14.322  18.285   8.489 -0.2189 -0.1246 -0.1118
  389loPI   C6A 6220  14.087  17.933   8.209  0.2694  0.0629  0.1510
  389loPI   C1B 6221  14.202  17.540   9.929 -0.0204  0.1935 -0.0464
  389loPI   C2B 6222  14.190  17.696   9.515 -0.0308  0.0774  0.1104
  389loPI   C3B 6223  14.182  17.742   9.105 -0.1897 -0.1342  0.0710
  389loPI   C4B 6224  14.208  17.804   8.669  0.1475 -0.0134 -0.1041
  390loPI    C1 6225  10.436  14.911  10.776 -0.1296 -0.3125  0.0182
  390loPI    C2 6226  10.179  14.694  10.993 -0.0364 -0.1921  0.2521
  390loPI    C3 6227  10.433  14.944  11.175  0.0840 -0.1331  0.0067
  390loPI   PO4 6228  10.246  15.007  10.602 -0.0393  0.2429  0.0399
  390loPI   GL1 6229  10.110  14.922  10.110  0.1015 -0.0870 -0.3205
  390loPI   GL2 6230   9.795  14.947  10.209 -0.1850  0.1050 -0.0489
  390loPI   C1A 6231  10.245  14.870   9.596 -0.2359 -0.1698 -0.3470
  390loPI   C2A 6232  10.144  14.663   9.306 -0.0298  0.2017  0.0841
  390loPI   C3A 6233  10.049  14.272   9.056  0.2180 -0.1998 -0.0029
  390loPI   C4A 6234  10.080  14.056   8.802 -0.0679  0.0775  0.0541
  390loPI   C5A 6235  10.176  14.019   8.421 -0.0036  0.1326  0.1263
  390loPI   C6A 6236  10.311  13.624   8.072 -0.0603  0.0192 -0.0490
  390loPI   C1B 6237   9.779  14.954   9.745 -0.0336  0.2091 -0.0314
  390loPI   C2B 6238   9.823  15.062   9.285 -0.1793  0.0842 -0.0113
  390loPI   C3B 6239  10.017  15.059   8.914  0.0651 -0.2348  0.0651
  390loPI   C4B 6240  10.028  15.279   8.516 -0.4234 -0.2015  0.1016
  391loPI    C1 6241   4.842  14.090  10.677 -0.1707  0.2664  0.0849
  391loPI    C2 6242   4.572  13.842  10.838  0.0401 -0.0512 -0.0412
  391loPI    C3 6243   4.944  13.856  10.985 -0.0062  0.2923  0.0512
  391loPI   PO4 6244   4.884  14.045  10.454 -0.1271  0.0456 -0.1382
  391loPI   GL1 6245   4.788  13.835  10.100 -0.1934 -0.4593 -0.0815
  391loPI   GL2 6246   4.556  13.555   9.989  0.1217  0.1385 -0.0974
  391loPI   C1A 6247   4.640  14.015   9.762  0.0962  0.1122  0.0009
  391loPI   C2A 6248   4.475  13.959   9.326 -0.3445  0.2300 -0.3248
  391loPI   C3A 6249   4.620  13.891   8.924  0.0573 -0.1741 -0.0315
  391loPI   C4A 6250   4.595  13.726   8.501  0.0258 -0.2057 -0.2039
  391loPI   C5A 6251   4.202  13.760   8.198 -0.2980  0.3915  0.1029
  391loPI   C6A 6252   3.983  13.488   8.035 -0.1188 -0.2193 -0.1973
  391loPI   C1B 6253   4.411  13.371   9.553 -0.1802  0.2804  0.2849
  391loPI   C2B 6254   4.475  13.446   9.139 -0.3511  0.0379 -0.1190
  391loPI   C3B 6255   4.375  13.331   8.764 -0.1579  0.4768  0.2695
  391loPI   C4B 6256   4.416  13.259   8.305  0.0035 -0.1474 -0.0700
  392loPI    C1 6257  12.825   9.324  11.290 -0.0586 -0.0722  0.0209
  392loPI    C2 6258  12.678   8.955  11.338  0.1975 -0.2079 -0.2076
  392loPI    C3 6259  12.878   9.131  11.636  0.1009 -0.2645 -0.1085
  392loPI   PO4 6260  12.901   9.319  11.084 -0.3183 -0.1235  0.2956
  392loPI   GL1 6261  12.907   9.036  10.769  0.0228  0.2123 -0.0373
  392loPI   GL2 6262  13.099   8.836  10.675  0.1304  0.0673 -0.0423
  392loPI   C1A 6263  12.831   9.150  10.331 -0.0774  0.2367  0.1874
  392loPI   C2A 6264  12.791   9.144   9.931  0.4563 -0.1397 -0.0187
  392loPI   C3A 6265  12.844   9.088   9.436 -0.0244 -0.0128  0.2650
  392loPI   C4A 6266  12.788   9.093   9.007  0.0591  0.0205  0.1697
  392loPI   C5A 6267  12.829   8.918   8.529 -0.1773 -0.0695 -0.1001
  392loPI   C6A 6268  13.206   8.722   8.382  0.0067 -0.0136  0.0154
  392loPI   C1B 6269  13.298   8.845  10.179 -0.0777  0.1612 -0.2173
  392loPI   C2B 6270  13.238   8.783   9.743  0.3045  0.4152 -0.1762
  392loPI   C3B 6271  13.259   8.835   9.307  0.1045 -0.0465  0.3879
  392loPI   C4B 6272  13.160   8.800   8.873 -0.1411  0.0683 -0.0448
  393loPI    C1 6273  15.750  12.234  10.955  0.1509  0.2225  0.0578
  393loPI    C2 6274  16.021  12.488  10.806  0.0588  0.3707  0.1398
  393loPI    C3 6275  15.994  12.434  11.201  0.1805  0.1156  0.1158
  393loPI   PO4 6276  15.559  12.358  10.738 -0.0198  0.1494  0.1159
  393loPI   GL1 6277  15.769  12.442  10.313 -0.1502 -0.0289 -0.1837
  393loPI   GL2 6278  15.782  12.734  10.279 -0.1856  0.0872 -0.3491
  393loPI   C1A 6279  15.891  12.167   9.984 -0.2022  0.2097  0.3575
  393loPI   C2A 6280  16.022  12.073   9.559  0.0563 -0.0842  0.2395
  393loPI   C3A 6281  16.069  11.908   9.116 -0.3209  0.2555 -0.1310
  393loPI   C4A 6282  15.977  12.043   8.750 -0.1899 -0.1935 -0.0514
  393loPI   C5A 6283  16.019  12.469   8.498  0.0748  0.0115  0.1720
  393loPI   C6A 6284  15.974  12.750   8.136 -0.0327  0.2321  0.0994
  393loPI   C1B 6285  15.619  12.587   9.842 -0.0685 -0.0249 -0.0831
  393loPI   C2B 6286  15.571  12.645   9.409  0.0815  0.0020 -0.0710
  393loPI   C3B 6287  15.698  12.892   9.031  0.1941 -0.0963  0.1229
  393loPI   C4B 6288  15.790  12.964   8.580 -0.2058 -0.0960 -0.0137
  394loPI    C1 6289  13.390   5.148  10.985  0.0454 -0.1427  0.2196
  394loPI    C2 6290  13.290   5.049  11.360 -0.1796  0.0620  0.2159
  394loPI    C3 6291  13.295   5.433  11.249  0.2854  0.0339  0.1187
  394loPI   PO4 6292  13.655   5.048  10.930 -0.0038  0.0771  0.0942
  394loPI   GL1 6293  13.852   5.048  10.583 -0.0817  0.1328 -0.3364
  394loPI   GL2 6294  13.456   5.029  10.491  0.1518  0.2275  0.2741
  394loPI   C1A 6295  14.098   5.203  10.222  0.1850  0.1189  0.1754
  394loPI   C2A 6296  14.040   5.299   9.783  0.2344 -0.0925  0.3581
  394loPI   C3A 6297  14.092   5.253   9.475 -0.3008 -0.2964 -0.1308
  394loPI   C4A 6298  14.104   5.365   9.059  0.3067  0.1299  0.3573
  394loPI   C5A 6299  13.976   5.291   8.573 -0.1335  0.0758 -0.0480
  394loPI   C6A 6300  14.028   5.458   8.110  0.0597 -0.3535 -0.0698
  394loPI   C1B 6301  13.584   5.100  10.079  0.1409  0.0873 -0.1460
  394loPI   C2B 6302  13.599   5.105   9.650  0.1038 -0.3003  0.0641
  394loPI   C3B 6303  13.655   5.108   9.313 -0.0453  0.0633 -0.2039
  394loPI   C4B 6304  13.579   5.133   8.857  0.2527 -0.0222  0.1360
  395loPI    C1 6305   8.031   3.392  11.050 -0.0232  0.2226 -0.0598
  395loPI    C2 6306   8.345   3.300  11.280 -0.1476 -0.2502 -0.0700
  395loPI    C3 6307   8.078   3.570  11.405  0.1138 -0.0486  0.0611
  395loPI   PO4 6308   8.092   3.471  10.803 -0.2065 -0.0889  0.2203
  395loPI   GL1 6309   7.945   3.711  10.479 -0.0031  0.2539  0.2992
  395loPI   GL2 6310   7.678   3.820  10.462  0.0145 -0.0383  0.2113
  395loPI   C1A 6311   7.978   3.609   9.960  0.1401 -0.2078  0.0210
  395loPI   C2A 6312   7.869   3.791   9.536 -0.2745 -0.1883  0.0782
  395loPI   C3A 6313   7.809   3.813   9.094 -0.0491  0.1273 -0.1498
  395loPI   C4A 6314   7.789   3.790   8.657 -0.2236  0.0222 -0.3939
  395loPI   C5A 6315   7.796   3.546   8.363 -0.2423  0.2491 -0.1180
  395loPI   C6A 6316   7.618   3.431   8.028  0.2562 -0.1677  0.0883
  395loPI   C1B 6317   7.466   3.905  10.132  0.1129 -0.1721  0.0993
  395loPI   C2B 6318   7.461   4.087   9.702 -0.0615 -0.0756 -0.0204
  395loPI   C3B 6319   7.493   4.185   9.262  0.2109  0.1700  0.1165
  395loPI   C4B 6320   7.492   4.201   8.756 -0.0586 -0.0237  0.0528
  396loPI    C1 6321   9.631  15.965  10.674 -0.1844  0.0665 -0.2048
  396loPI    C2 6322   9.587  15.668  10.937  0.0822 -0.1964 -0.4498
  396loPI    C3 6323   9.295  15.938  10.890  0.0465 -0.1196  0.1382
  396loPI   PO4 6324   9.742  15.778  10.414 -0.0247 -0.2697  0.2372
  396loPI   GL1 6325   9.760  15.725   9.974 -0.1476 -0.0256  0.2276
  396loPI   GL2 6326  10.064  15.904   9.977  0.1507 -0.0777  0.3828
  396loPI   C1A 6327  10.004  15.449   9.665 -0.2557 -0.0732 -0.1346
  396loPI   C2A 6328  10.318  15.330   9.495 -0.0381  0.2902 -0.2103
  396loPI   C3A 6329  10.587  15.054   9.306 -0.1678  0.3688 -0.2425
  396loPI   C4A 6330  10.436  14.831   8.976  0.0800 -0.2016  0.1619
  396loPI   C5A 6331  10.223  14.617   8.678  0.0145  0.1193  0.0518
  396loPI   C6A 6332   9.811  14.535   8.674 -0.0500 -0.1100 -0.0388
  396loPI   C1B 6333   9.967  16.164   9.581 -0.2541 -0.1257 -0.2355
  396loPI   C2B 6334   9.969  16.486   9.231 -0.0484 -0.1602  0.1272
  396loPI   C3B 6335  10.232  16.659   8.975 -0.1942  0.0251  0.1585
  396loPI   C4B 6336  10.321  16.712   8.524 -0.0871 -0.1284  0.0759
  397loPI    C1 6337   2.668   9.739  10.818  0.0526  0.2122  0.0313
  397loPI    C2 6338   2.390   9.980  10.975  0.1328  0.1240  0.3151
  397loPI    C3 6339   2.404   9.594  11.082  0.0526  0.0079 -0.0786
  397loPI   PO4 6340   2.828   9.977  10.680 -0.2287  0.0757 -0.1292
  397loPI   GL1 6341   3.077   9.918  10.425 -0.1336 -0.0811 -0.1267
  397loPI   GL2 6342   3.082  10.252  10.337  0.0538 -0.2913 -0.2297
  397loPI   C1A 6343   3.337   9.686  10.037 -0.0910 -0.4561  0.3486
  397loPI   C2A 6344   3.278   9.614   9.618 -0.1208  0.0936  0.1098
  397loPI   C3A 6345   3.343   9.535   9.155 -0.4343  0.2699  0.0033
  397loPI   C4A 6346   3.214   9.567   8.755 -0.2199 -0.2399  0.2131
  397loPI   C5A 6347   3.230   9.453   8.334  0.3383  0.0079  0.1655
  397loPI   C6A 6348   3.494   9.362   8.097 -0.2393  0.0656  0.2624
  397loPI   C1B 6349   2.955   9.998   9.961 -0.0253  0.2428 -0.0684
  397loPI   C2B 6350   2.904   9.957   9.507 -0.1602  0.0636 -0.0099
  397loPI   C3B 6351   2.821   9.843   9.090 -0.0704  0.1935  0.1569
  397loPI   C4B 6352   2.729   9.798   8.712  0.1254 -0.0115 -0.0180
  398loPI    C1 6353  17.290  16.449  10.650  0.0906 -0.1908 -0.0707
  398loPI    C2 6354  17.188  16.547  11.024 -0.2189  0.2103 -0.2530
  398loPI    C3 6355  17.171  16.165  10.906 -0.0783  0.0740  0.1497
  398loPI   PO4 6356  17.163  16.621  10.519 -0.0060 -0.3635 -0.1851
  398loPI   GL1 6357  17.288  16.758  10.138  0.0018 -0.0356 -0.0590
  398loPI   GL2 6358  17.698  16.809   9.973  0.0132 -0.1122  0.0471
  398loPI   C1A 6359  16.981  16.830   9.834 -0.0059  0.0112 -0.1152
  398loPI   C2A 6360  17.035  16.972   9.429 -0.0249  0.0536  0.1687
  398loPI   C3A 6361  17.300  17.142   9.195 -0.2182  0.1926  0.1206
  398loPI   C4A 6362  17.308  17.171   8.732 -0.2378  0.2359 -0.2217
  398loPI   C5A 6363  17.058  17.057   8.352  0.0471 -0.0426 -0.0238
  398loPI   C6A 6364  16.845  17.014   7.975 -0.3801  0.1670 -0.0818
  398loPI   C1B 6365  17.403  16.589   9.710 -0.0638  0.0700  0.2603
  398loPI   C2B 6366  17.307  16.420   9.407  0.0189  0.2291 -0.2625
  398loPI   C3B 6367  17.201  16.607   9.120 -0.2079 -0.0686 -0.0121
  398loPI   C4B 6368  17.464  16.691   8.728  0.1131  0.1964  0.0658
  399loPI    C1 6369   2.803  17.858  10.642  0.0452 -0.3819  0.1702
  399loPI    C2 6370   2.840  18.206  10.449  0.2583 -0.4333  0.1157
  399loPI    C3 6371   2.560  18.163  10.731  0.3991 -0.1330  0.3064
  399loPI   PO4 6372   2.688  17.700  10.405  0.1912 -0.0968 -0.1844
  399loPI   GL1 6373   2.786  17.529  10.044  0.0551 -0.0462  0.1389
  399loPI   GL2 6374   2.807  17.216  10.246  0.1214  0.0914  0.0802
  399loPI   C1A 6375   2.862  17.482   9.719  0.0265 -0.2514 -0.0658
  399loPI   C2A 6376   2.763  17.436   9.354  0.1482 -0.2453  0.2020
  399loPI   C3A 6377   2.732  17.511   8.902 -0.0367  0.2254 -0.1552
  399loPI   C4A 6378   2.563  17.598   8.514 -0.2004 -0.0516  0.2109
  399loPI   C5A 6379   2.434  17.946   8.297 -0.0207 -0.3125 -0.4073
  399loPI   C6A 6380   2.107  18.026   8.108  0.2048 -0.1055 -0.2568
  399loPI   C1B 6381   2.875  16.999   9.799 -0.0119 -0.0673  0.1211
  399loPI   C2B 6382   2.684  16.910   9.455 -0.0371 -0.2382 -0.0964
  399loPI   C3B 6383   2.535  17.001   9.025  0.2032 -0.2695 -0.0620
  399loPI   C4B 6384   2.403  17.056   8.596 -0.1225 -0.3145 -0.1802
  400loPI    C1 6385  13.874  10.843  11.465 -0.0442  0.1059  0.1814
  400loPI    C2 6386  13.689  11.172  11.599 -0.3443 -0.1556  0.4269
  400loPI    C3 6387  13.852  10.914  11.858  0.1248 -0.0737  0.2253
  400loPI   PO4 6388  13.677  10.740  11.276  0.0905  0.3221  0.1553
  400loPI   GL1 6389  13.648  10.711  10.793 -0.0517 -0.0667 -0.0223
  400loPI   GL2 6390  13.521  10.385  10.886 -0.0622 -0.3245  0.0334
  400loPI   C1A 6391  13.767  10.669  10.428  0.0445  0.3992 -0.4807
  400loPI   C2A 6392  13.874  10.655  10.074 -0.0372 -0.1998 -0.1128
  400loPI   C3A 6393  13.983  10.686   9.686 -0.1148  0.2036 -0.0316
  400loPI   C4A 6394  13.910  10.485   9.241  0.3962 -0.0253  0.0994
  400loPI   C5A 6395  14.121  10.439   8.825  0.0075  0.0682  0.3221
  400loPI   C6A 6396  14.576  10.437   8.771  0.2205 -0.0046  0.1829
  400loPI   C1B 6397  13.438  10.333  10.455  0.1991 -0.0348 -0.0985
  400loPI   C2B 6398  13.408  10.338   9.973  0.1520 -0.1147 -0.2366
  400loPI   C3B 6399  13.490  10.340   9.550 -0.1346  0.0690 -0.2743
  400loPI   C4B 6400  13.541  10.195   9.052  0.0942  0.0262  0.0226
  401loPI    C1 6401   1.438   6.755  11.265 -0.0216 -0.1753 -0.2990
  401loPI    C2 6402   1.486   6.368  11.178  0.0871 -0.2160 -0.0654
  401loPI    C3 6403   1.488   6.489  11.560  0.0053  0.0088 -0.1348
  401loPI   PO4 6404   1.553   6.842  11.019  0.0936  0.2059 -0.3662
  401loPI   GL1 6405   1.633   7.048  10.599 -0.3651  0.2161 -0.0160
  401loPI   GL2 6406   1.345   6.959  10.545 -0.2720  0.0811 -0.2977
  401loPI   C1A 6407   1.701   7.361  10.224  0.0353 -0.0643  0.0912
  401loPI   C2A 6408   1.601   7.384   9.913  0.0003 -0.1513  0.1480
  401loPI   C3A 6409   1.554   7.363   9.528 -0.0570  0.0827 -0.0644
  401loPI   C4A 6410   1.548   7.465   9.136  0.0906  0.2257  0.1153
  401loPI   C5A 6411   1.593   7.356   8.673  0.0818  0.4559 -0.0913
  401loPI   C6A 6412   1.576   7.066   8.290 -0.0408  0.1995  0.1186
  401loPI   C1B 6413   1.464   6.943  10.138  0.1902  0.0898 -0.3624
  401loPI   C2B 6414   1.569   6.918   9.775 -0.0449 -0.0298  0.1259
  401loPI   C3B 6415   1.425   6.874   9.397 -0.1298  0.1052  0.0024
  401loPI   C4B 6416   1.585   6.886   8.943 -0.0134 -0.4959 -0.1220
  402loPI    C1 6417   1.321  11.897  10.978  0.0564  0.0425 -0.1657
  402loPI    C2 6418   0.980  11.955  11.179  0.0038 -0.0395 -0.2301
  402loPI    C3 6419   1.332  12.025  11.357 -0.0383 -0.2370 -0.0657
  402loPI   PO4 6420   1.343  12.017  10.731  0.1266  0.1127  0.5238
  402loPI   GL1 6421   1.348  11.854  10.297  0.3932  0.0944  0.1276
  402loPI   GL2 6422   1.095  11.987  10.177  0.0464  0.0783  0.0666
  402loPI   C1A 6423   1.568  11.896  10.019 -0.0226 -0.1637 -0.0859
  402loPI   C2A 6424   1.821  11.919   9.657 -0.2569 -0.3709  0.1534
  402loPI   C3A 6425   1.850  12.074   9.197  0.0723 -0.1104 -0.1516
  402loPI   C4A 6426   1.827  12.086   8.703 -0.2195  0.3020 -0.3328
  402loPI   C5A 6427   1.823  12.129   8.275 -0.1276 -0.1537 -0.2264
  402loPI   C6A 6428   1.933  11.863   7.929  0.0923 -0.1998 -0.1035
  402loPI   C1B 6429   1.060  11.847   9.678 -0.0428 -0.2063 -0.0539
  402loPI   C2B 6430   1.377  11.734   9.291 -0.2774 -0.2061 -0.2660
  402loPI   C3B 6431   1.416  11.773   8.871 -0.2997  0.0094  0.1140
  402loPI   C4B 6432   1.395  11.781   8.417  0.0667  0.0044  0.1477
  403loPI    C1 6433   9.937   7.185  11.482  0.1423 -0.0615  0.2058
  403loPI    C2 6434  10.286   7.337  11.604  0.0602  0.2372  0.0767
  403loPI    C3 6435   9.944   7.524  11.694 -0.0544  0.0432  0.0482
  403loPI   PO4 6436   9.941   7.146  11.217 -0.3530 -0.0741 -0.1850
  403loPI   GL1 6437  10.158   7.250  10.820 -0.1785 -0.0271 -0.3772
  403loPI   GL2 6438  10.473   7.201  10.719  0.0249 -0.0768  0.0909
  403loPI   C1A 6439  10.184   7.362  10.370 -0.0267  0.1641 -0.0680
  403loPI   C2A 6440   9.973   7.428   9.995  0.1276 -0.0713  0.2006
  403loPI   C3A 6441   9.866   7.497   9.543 -0.0730  0.2095 -0.0877
  403loPI   C4A 6442   9.841   7.445   9.123  0.2921 -0.0014 -0.0867
  403loPI   C5A 6443   9.500   7.386   8.750 -0.0348 -0.1478 -0.0489
  403loPI   C6A 6444   9.435   7.611   8.370 -0.0129  0.0996 -0.2158
  403loPI   C1B 6445  10.762   6.947  10.534  0.0893  0.1648  0.0716
  403loPI   C2B 6446  10.894   6.922  10.125  0.1215 -0.1037  0.0385
  403loPI   C3B 6447  10.675   6.826   9.638  0.0765  0.0582  0.2465
  403loPI   C4B 6448  10.718   6.837   9.146  0.2010 -0.0637 -0.1496
  404loPI    C1 6449  10.082   6.660  11.319  0.0792  0.0714 -0.1109
  404loPI    C2 6450  10.366   6.448  11.505 -0.0782  0.0160  0.0704
  404loPI    C3 6451  10.256   6.804  11.649 -0.1410  0.0118  0.0335
  404loPI   PO4 6452  10.092   6.633  11.068 -0.2287 -0.0134  0.1253
  404loPI   GL1 6453  10.310   6.718  10.755  0.0930 -0.0304  0.1676
  404loPI   GL2 6454  10.263   6.447  10.626  0.0129  0.0929 -0.2243
  404loPI   C1A 6455  10.248   6.879  10.370  0.0874  0.1289 -0.2829
  404loPI   C2A 6456  10.382   7.070  10.028 -0.2130  0.2026 -0.1924
  404loPI   C3A 6457  10.251   7.139   9.524 -0.0374  0.0339  0.0650
  404loPI   C4A 6458  10.279   7.097   9.053 -0.3385  0.2250 -0.1439
  404loPI   C5A 6459  10.249   7.088   8.577  0.2454 -0.1991 -0.2225
  404loPI   C6A 6460  10.088   7.023   8.275  0.3927 -0.0061  0.0105
  404loPI   C1B 6461  10.091   6.488  10.190 -0.1752 -0.0133 -0.1653
  404loPI   C2B 6462  10.136   6.631   9.683  0.0194 -0.0528  0.2755
  404loPI   C3B 6463  10.243   6.697   9.283 -0.0970  0.1902 -0.0790
  404loPI   C4B 6464  10.163   6.564   8.829  0.0324 -0.0777 -0.1042
  405loPI    C1 6465   4.205   8.042  10.964  0.0293 -0.0691 -0.1330
  405loPI    C2 6466   4.033   7.802  11.234  0.1841 -0.2359 -0.1800
  405loPI    C3 6467   4.351   8.022  11.336 -0.0019  0.0086 -0.1164
  405loPI   PO4 6468   4.084   8.169  10.853  0.0950 -0.0017  0.0222
  405loPI   GL1 6469   3.957   8.042  10.373  0.1786  0.0473  0.0918
  405loPI   GL2 6470   3.974   8.351  10.381 -0.2596  0.0606  0.1300
  405loPI   C1A 6471   3.904   7.933   9.986 -0.1062 -0.2753 -0.1562
  405loPI   C2A 6472   3.999   7.911   9.499 -0.0646  0.1765  0.1345
  405loPI   C3A 6473   4.070   7.884   9.041  0.1390 -0.2127  0.3437
  405loPI   C4A 6474   3.989   7.846   8.635  0.0504 -0.0722 -0.1553
  405loPI   C5A 6475   3.743   7.815   8.305  0.2276  0.1104 -0.1535
  405loPI   C6A 6476   3.346   7.772   8.126 -0.2350  0.0002 -0.1812
  405loPI   C1B 6477   4.146   8.418   9.922  0.2547  0.0117 -0.0633
  405loPI   C2B 6478   4.119   8.339   9.501  0.0623 -0.0551 -0.0419
  405loPI   C3B 6479   4.032   8.396   9.087  0.0079  0.1198 -0.2039
  405loPI   C4B 6480   4.029   8.349   8.683 -0.1469 -0.1077  0.1736
  406loPI    C1 6481   9.912   6.246  11.472  0.1148 -0.0029  0.0722
  406loPI    C2 6482   9.686   6.221  11.801 -0.0878 -0.0489 -0.0683
  406loPI    C3 6483  10.046   6.045  11.791 -0.1422 -0.1709  0.0774
  406loPI   PO4 6484   9.827   6.154  11.273 -0.0103 -0.0016 -0.1638
  406loPI   GL1 6485   9.878   6.182  10.860 -0.1570  0.1013  0.2014
  406loPI   GL2 6486   9.721   6.430  10.756  0.0227  0.0020  0.0982
  406loPI   C1A 6487  10.022   6.012  10.531  0.1846 -0.0102 -0.4126
  406loPI   C2A 6488  10.016   5.734  10.214 -0.1051  0.4223  0.1114
  406loPI   C3A 6489  10.000   5.501   9.808 -0.1287  0.1074 -0.3262
  406loPI   C4A 6490  10.045   5.607   9.357 -0.0431  0.1784 -0.0916
  406loPI   C5A 6491   9.985   5.601   8.999  0.0600  0.1368  0.4320
  406loPI   C6A 6492  10.063   5.340   8.712 -0.1584  0.0324  0.0093
  406loPI   C1B 6493   9.606   6.339  10.416 -0.1506  0.0120  0.0392
  406loPI   C2B 6494   9.718   6.341   9.918  0.1281  0.0608  0.1200
  406loPI   C3B 6495   9.688   6.411   9.503  0.0783 -0.1779  0.1272
  406loPI   C4B 6496   9.766   6.500   9.125 -0.0254 -0.2468  0.0082
  407loPI    C1 6497   9.921   8.418  11.399 -0.2140  0.0450 -0.1787
  407loPI    C2 6498  10.010   8.062  11.558  0.1625  0.3171  0.2488
  407loPI    C3 6499   9.773   8.316  11.756 -0.1833  0.2769 -0.0980
  407loPI   PO4 6500   9.821   8.399  11.199 -0.2210 -0.1319 -0.3165
  407loPI   GL1 6501   9.907   8.576  10.811  0.2055 -0.0578 -0.1883
  407loPI   GL2 6502   9.675   8.622  10.600  0.2807 -0.1202 -0.2365
  407loPI   C1A 6503  10.069   8.555  10.343  0.0330  0.1018 -0.1740
  407loPI   C2A 6504   9.894   8.532   9.930  0.0089 -0.2377  0.0082
  407loPI   C3A 6505   9.928   8.513   9.462 -0.4012 -0.2326  0.0399
  407loPI   C4A 6506   9.919   8.456   9.050  0.2921  0.1664  0.1185
  407loPI   C5A 6507  10.200   8.306   8.753 -0.0336  0.2184 -0.0904
  407loPI   C6A 6508  10.216   7.969   8.452 -0.2501 -0.0114 -0.1324
  407loPI   C1B 6509   9.585   8.674  10.307 -0.1434 -0.0132 -0.1604
  407loPI   C2B 6510   9.435   8.719   9.917  0.1824 -0.0822 -0.1319
  407loPI   C3B 6511   9.502   8.870   9.484 -0.0482 -0.0671 -0.2505
  407loPI   C4B 6512   9.520   8.859   9.119  0.4090  0.2928 -0.0580
  408loPI    C1 6513   3.625  14.851  10.545  0.0214  0.0335  0.0270
  408loPI    C2 6514   3.378  14.805  10.857  0.1162 -0.1023  0.0828
  408loPI    C3 6515   3.743  14.958  10.912  0.1267 -0.1103  0.0358
  408loPI   PO4 6516   3.620  14.582  10.413 -0.1564  0.0849 -0.0149
  408loPI   GL1 6517   3.833  14.561   9.982 -0.3332  0.2170 -0.3215
  408loPI   GL2 6518   3.581  14.791   9.981  0.2551 -0.1937 -0.0566
  408loPI   C1A 6519   3.683  14.500   9.542 -0.1725  0.1911 -0.0502
  408loPI   C2A 6520   3.729  14.642   9.183 -0.0040 -0.3286  0.0674
  408loPI   C3A 6521   3.719  14.501   8.822  0.0212  0.1419  0.0649
  408loPI   C4A 6522   3.797  14.289   8.385 -0.2409 -0.0861 -0.3023
  408loPI   C5A 6523   3.925  14.136   8.121  0.0928 -0.0480 -0.1053
  408loPI   C6A 6524   4.070  14.219   7.781  0.1364 -0.0841 -0.0033
  408loPI   C1B 6525   3.458  14.946   9.566 -0.1175 -0.3110 -0.0012
  408loPI   C2B 6526   3.334  14.996   9.158 -0.1367 -0.1881 -0.0430
  408loPI   C3B 6527   3.294  14.743   8.789  0.0577 -0.1414 -0.3733
  408loPI   C4B 6528   3.231  14.743   8.307  0.4849  0.1912  0.2164
  409loPI    C1 6529   6.902  14.472  10.503  0.2673 -0.0249  0.0646
  409loPI    C2 6530   7.099  14.782  10.344  0.4108 -0.1734 -0.0512
  409loPI    C3 6531   7.139  14.697  10.733 -0.1134  0.3254  0.1259
  409loPI   PO4 6532   6.924  14.302  10.325 -0.2003  0.1312 -0.2830
  409loPI   GL1 6533   7.073  14.178   9.883  0.0389 -0.1036  0.1866
  409loPI   GL2 6534   7.019  13.883   9.852 -0.2217 -0.1393 -0.1824
  409loPI   C1A 6535   7.530  14.043   9.908 -0.2701  0.1705 -0.0174
  409loPI   C2A 6536   7.874  13.722   9.887 -0.3300  0.1792  0.0609
  409loPI   C3A 6537   7.925  13.415   9.536 -0.1996 -0.1476  0.1172
  409loPI   C4A 6538   8.203  13.150   9.247 -0.0177  0.3395 -0.2792
  409loPI   C5A 6539   8.257  13.047   8.887  0.1282  0.1843  0.1057
  409loPI   C6A 6540   8.452  13.079   8.463 -0.0984 -0.3679  0.1110
  409loPI   C1B 6541   6.950  13.961   9.368 -0.0595 -0.2289 -0.0871
  409loPI   C2B 6542   6.882  14.190   8.982 -0.1239  0.2392  0.2065
  409loPI   C3B 6543   6.719  14.369   8.605  0.0457  0.0332  0.0184
  409loPI   C4B 6544   6.932  14.561   8.396  0.0697  0.1955 -0.1065
  410loPI    C1 6545  16.679  16.059  10.755  0.2486  0.2745 -0.1665
  410loPI    C2 6546  16.760  16.184  11.126 -0.1303  0.1652 -0.0421
  410loPI    C3 6547  16.531  15.861  11.070  0.0119  0.1183 -0.3718
  410loPI   PO4 6548  16.513  16.174  10.483  0.0805  0.0108 -0.1784
  410loPI   GL1 6549  16.663  16.140   9.995  0.1182 -0.0869  0.0356
  410loPI   GL2 6550  16.329  16.197  10.001  0.0008  0.0305 -0.2313
  410loPI   C1A 6551  16.819  15.932   9.663  0.0363 -0.0010  0.0894
  410loPI   C2A 6552  16.778  15.700   9.237  0.0919  0.0877 -0.2071
  410loPI   C3A 6553  16.798  15.861   8.827 -0.1411  0.1194  0.1157
  410loPI   C4A 6554  16.746  16.046   8.437 -0.0794  0.0127  0.3706
  410loPI   C5A 6555  16.623  15.707   8.205  0.0075 -0.0859  0.0057
  410loPI   C6A 6556  16.564  15.300   8.240  0.1604  0.0097 -0.1444
  410loPI   C1B 6557  16.382  16.139   9.507 -0.2280  0.2465  0.1916
  410loPI   C2B 6558  16.357  15.864   9.096  0.0777  0.0236  0.1084
  410loPI   C3B 6559  16.324  15.796   8.660 -0.4017 -0.4559  0.0049
  410loPI   C4B 6560  16.223  15.950   8.304  0.1917  0.2411  0.2004
  411loPI    C1 6561   3.241  15.768  10.670  0.0306 -0.0478 -0.0480
  411loPI    C2 6562   3.128  16.151  10.689 -0.2142 -0.1161 -0.0973
  411loPI    C3 6563   3.189  15.944  11.025  0.0420  0.0003 -0.0701
  411loPI   PO4 6564   3.383  15.728  10.351 -0.2687  0.0851 -0.0242
  411loPI   GL1 6565   3.185  15.409  10.127 -0.1601 -0.0948 -0.0336
  411loPI   GL2 6566   3.246  15.221   9.961  0.1236 -0.4491  0.1278
  411loPI   C1A 6567   2.864  15.620   9.801  0.2064  0.1030 -0.2173
  411loPI   C2A 6568   2.583  15.567   9.425 -0.2636 -0.1443 -0.0335
  411loPI   C3A 6569   2.237  15.599   9.082 -0.0726 -0.1671 -0.2061
  411loPI   C4A 6570   2.171  15.456   8.664 -0.0633 -0.1989 -0.3530
  411loPI   C5A 6571   2.246  15.607   8.264 -0.0997 -0.0105  0.2007
  411loPI   C6A 6572   2.482  15.367   7.971  0.0827  0.1203  0.0499
  411loPI   C1B 6573   2.964  15.179   9.611  0.2459  0.1880 -0.1805
  411loPI   C2B 6574   2.856  15.160   9.137  0.3209 -0.4170  0.1410
  411loPI   C3B 6575   3.000  15.264   8.748  0.2116  0.0014  0.0705
  411loPI   C4B 6576   3.263  15.269   8.425 -0.0920  0.0654 -0.0805
  412loPI    C1 6577  12.049   2.827  11.183 -0.1831  0.0525  0.0617
  412loPI    C2 6578  12.163   2.467  11.316  0.0423  0.0398 -0.1588
  412loPI    C3 6579  11.818   2.626  11.440  0.0713 -0.1319  0.1506
  412loPI   PO4 6580  12.141   2.812  10.974 -0.1318  0.2944  0.1305
  412loPI   GL1 6581  11.972   2.641  10.636 -0.0183  0.0058  0.0303
  412loPI   GL2 6582  12.124   2.455  10.468  0.0360  0.1043 -0.2282
  412loPI   C1A 6583  12.129   2.928  10.244  0.1337  0.0131  0.1557
  412loPI   C2A 6584  12.359   3.080   9.863  0.0894 -0.0130  0.1052
  412loPI   C3A 6585  12.427   3.234   9.445 -0.0995 -0.0645  0.1224
  412loPI   C4A 6586  12.369   3.206   8.976  0.0822  0.1953  0.1332
  412loPI   C5A 6587  12.203   3.339   8.588 -0.0456  0.1878 -0.1505
  412loPI   C6A 6588  11.877   3.304   8.258  0.2875 -0.2426 -0.3339
  412loPI   C1B 6589  11.996   2.218  10.136  0.0527  0.1167  0.3179
  412loPI   C2B 6590  11.888   2.336   9.745 -0.1373 -0.0173  0.1923
  412loPI   C3B 6591  11.862   2.492   9.314 -0.0429 -0.1799 -0.0295
  412loPI   C4B 6592  12.026   2.383   8.896 -0.0964 -0.0130 -0.1914
  413loPI    C1 6593   1.136  14.007  11.304  0.0511 -0.0655  0.0883
  413loPI    C2 6594   0.739  13.960  11.293  0.0499 -0.0465  0.0516
  413loPI    C3 6595   0.904  14.198  11.569  0.0256  0.0495 -0.0162
  413loPI   PO4 6596   1.180  14.042  11.047 -0.1438 -0.1656 -0.1617
  413loPI   GL1 6597   1.217  14.104  10.750  0.2901  0.1824  0.0679
  413loPI   GL2 6598   1.479  14.122  10.547 -0.0349 -0.0262  0.2077
  413loPI   C1A 6599   0.943  14.100  10.404 -0.2583 -0.4838  0.0956
  413loPI   C2A 6600   0.830  14.029   9.927 -0.1210 -0.0341  0.2188
  413loPI   C3A 6601   0.787  14.116   9.536 -0.0711 -0.5201  0.1205
  413loPI   C4A 6602   0.565  13.903   9.243 -0.0767 -0.0613  0.0974
  413loPI   C5A 6603   0.426  13.939   8.752  0.3479 -0.0691  0.1133
  413loPI   C6A 6604   0.623  13.967   8.417 -0.0553 -0.0516  0.0513
  413loPI   C1B 6605   1.468  14.225  10.092 -0.3327 -0.0202 -0.1143
  413loPI   C2B 6606   1.309  14.189   9.638 -0.3821 -0.0466  0.1121
  413loPI   C3B 6607   1.269  14.115   9.323 -0.0155 -0.2018  0.0326
  413loPI   C4B 6608   1.501  14.154   8.944  0.2452  0.4365  0.1528
  414loPI    C1 6609   5.632  13.405  10.757 -0.2166 -0.1519 -0.1003
  414loPI    C2 6610   5.714  13.129  11.035 -0.2403 -0.2449 -0.1852
  414loPI    C3 6611   6.012  13.310  10.839 -0.2172 -0.0405  0.0346
  414loPI   PO4 6612   5.498  13.295  10.612  0.0160  0.0870 -0.1922
  414loPI   GL1 6613   5.454  13.073  10.156 -0.0434 -0.0465  0.1615
  414loPI   GL2 6614   5.726  13.028  10.063 -0.0543  0.0173  0.3649
  414loPI   C1A 6615   5.226  12.886   9.910  0.0150 -0.2319 -0.0347
  414loPI   C2A 6616   5.147  12.795   9.550 -0.1286  0.0739 -0.0522
  414loPI   C3A 6617   5.215  12.638   9.162  0.0077  0.4563 -0.3476
  414loPI   C4A 6618   5.176  12.575   8.751  0.1200  0.2297 -0.2236
  414loPI   C5A 6619   5.199  12.427   8.264 -0.1114  0.2163  0.0911
  414loPI   C6A 6620   5.401  12.118   8.119 -0.0670  0.1827 -0.0274
  414loPI   C1B 6621   5.719  12.778   9.696 -0.2462 -0.3670 -0.1382
  414loPI   C2B 6622   5.693  12.596   9.360 -0.3365  0.1764  0.0271
  414loPI   C3B 6623   5.742  12.725   8.927 -0.1571 -0.1441 -0.0633
  414loPI   C4B 6624   5.589  12.798   8.506 -0.1060 -0.2210  0.1481
  415loPI    C1 6625   9.828   1.272  10.878  0.1618  0.1747 -0.0836
  415loPI    C2 6626   9.666   1.066  11.180  0.3230 -0.1183 -0.1930
  415loPI    C3 6627   9.644   1.465  11.176  0.0586 -0.1272  0.0523
  415loPI   PO4 6628   9.882   1.078  10.716  0.1604 -0.0396  0.0500
  415loPI   GL1 6629   9.752   0.758  10.359 -0.0854 -0.1761 -0.0577
  415loPI   GL2 6630   9.690   0.491  10.145 -0.0685 -0.0154  0.1169
  415loPI   C1A 6631   9.696   0.946   9.892  0.3365 -0.0659 -0.4258
  415loPI   C2A 6632   9.712   1.256   9.580 -0.1644  0.2451 -0.2382
  415loPI   C3A 6633   9.832   1.423   9.196 -0.0597 -0.1562  0.0106
  415loPI   C4A 6634   9.987   1.692   8.865 -0.0964 -0.0075 -0.0322
  415loPI   C5A 6635  10.214   1.738   8.551 -0.0898 -0.0711 -0.2136
  415loPI   C6A 6636  10.284   2.057   8.243 -0.2107 -0.2069 -0.0359
  415loPI   C1B 6637   9.823   0.526   9.610 -0.0209  0.1505 -0.2256
  415loPI   C2B 6638  10.100   0.613   9.258  0.2191 -0.0240 -0.0771
  415loPI   C3B 6639  10.165   0.611   8.813  0.1771  0.1526  0.0416
  415loPI   C4B 6640  10.277   0.494   8.433  0.1539 -0.4081 -0.2653
  416loPI    C1 6641  16.976   0.832  10.910  0.0632 -0.0668  0.1697
  416loPI    C2 6642  17.170   1.146  11.065  0.0346  0.0290  0.0131
  416loPI    C3 6643  17.349   0.789  11.048  0.0525  0.0262  0.2289
  416loPI   PO4 6644  16.916   0.867  10.628  0.2355  0.1145 -0.2072
  416loPI   GL1 6645  16.608   0.748  10.277 -0.0607  0.0989  0.2007
  416loPI   GL2 6646  16.241   0.714  10.058 -0.2238  0.0778 -0.0397
  416loPI   C1A 6647  16.700   0.941   9.872  0.1938 -0.1219  0.2434
  416loPI   C2A 6648  16.609   1.012   9.486  0.1100 -0.0374  0.0600
  416loPI   C3A 6649  16.713   0.985   9.091  0.3325  0.2574  0.1308
  416loPI   C4A 6650  16.797   1.098   8.715  0.2224 -0.0899 -0.3668
  416loPI   C5A 6651  16.752   1.034   8.348  0.3797  0.1257  0.1160
  416loPI   C6A 6652  16.519   0.763   7.970  0.2456  0.0303 -0.0811
  416loPI   C1B 6653  16.161   0.821   9.644 -0.0061  0.0368  0.2121
  416loPI   C2B 6654  16.138   0.717   9.117 -0.1862  0.2957 -0.1627
  416loPI   C3B 6655  16.427   0.736   8.766 -0.1079  0.0431  0.0434
  416loPI   C4B 6656  16.698   0.424   8.531 -0.0355  0.2623  0.4005
  417loPI    C1 6657   6.383  15.344  10.670  0.2180  0.0913 -0.0550
  417loPI    C2 6658   6.264  14.967  10.732  0.1315  0.0762 -0.3007
  417loPI    C3 6659   6.409  15.184  11.036  0.0615 -0.1117 -0.1310
  417loPI   PO4 6660   6.378  15.365  10.445 -0.1242  0.0750  0.0617
  417loPI   GL1 6661   6.525  15.396  10.062 -0.1243 -0.4589 -0.1340
  417loPI   GL2 6662   6.456  15.774  10.121 -0.1899 -0.2958 -0.1092
  417loPI   C1A 6663   6.445  15.469   9.498  0.2052  0.1364 -0.2186
  417loPI   C2A 6664   6.433  15.291   9.179  0.1805  0.0042  0.1655
  417loPI   C3A 6665   6.557  15.293   8.776  0.1690 -0.0704 -0.2510
  417loPI   C4A 6666   6.705  15.418   8.425  0.0955  0.4981  0.2246
  417loPI   C5A 6667   6.778  15.685   8.083 -0.2204 -0.4555  0.0961
  417loPI   C6A 6668   6.558  16.020   7.839  0.0133  0.0244 -0.0229
  417loPI   C1B 6669   6.791  15.680   9.730  0.3265  0.0190 -0.2243
  417loPI   C2B 6670   6.910  15.536   9.214  0.0511  0.0690 -0.1441
  417loPI   C3B 6671   7.085  15.437   8.869  0.3393 -0.0700  0.3277
  417loPI   C4B 6672   7.023  15.000   8.532  0.1416  0.3019 -0.0598
  418loPI    C1 6673  11.871   1.678  10.902 -0.0117 -0.1740 -0.1205
  418loPI    C2 6674  11.483   1.678  10.804  0.0036  0.1428 -0.1947
  418loPI    C3 6675  11.593   1.723  11.186 -0.0297  0.2133 -0.1933
  418loPI   PO4 6676  12.040   1.544  10.627  0.1991  0.2558  0.3638
  418loPI   GL1 6677  12.274   1.566  10.287 -0.1508 -0.4080 -0.4135
  418loPI   GL2 6678  12.481   1.537  10.050 -0.0236  0.0983 -0.3073
  418loPI   C1A 6679  12.043   1.674   9.914  0.0087 -0.0190  0.0492
  418loPI   C2A 6680  12.114   1.775   9.506  0.3459 -0.2256 -0.1688
  418loPI   C3A 6681  11.976   1.762   9.049 -0.0969 -0.0556  0.1449
  418loPI   C4A 6682  11.927   1.932   8.697 -0.1196  0.0873  0.0492
  418loPI   C5A 6683  12.288   2.214   8.342  0.1498  0.3460 -0.0289
  418loPI   C6A 6684  12.480   2.369   7.938 -0.0083  0.0572  0.0664
  418loPI   C1B 6685  12.650   1.673   9.697 -0.2053  0.0209  0.2180
  418loPI   C2B 6686  12.555   1.722   9.294 -0.1881  0.2402 -0.2066
  418loPI   C3B 6687  12.504   1.551   8.871  0.0323 -0.0673  0.0404
  418loPI   C4B 6688  12.470   1.616   8.425  0.3951 -0.1616  0.1458
  419loPI    C1 6689   1.346   5.779  10.907  0.1839 -0.0506  0.1064
  419loPI    C2 6690   1.006   5.947  11.036 -0.0434 -0.2660 -0.1966
  419loPI    C3 6691   1.202   5.686  11.268 -0.1449 -0.2254 -0.0647
  419loPI   PO4 6692   1.454   5.974  10.858  0.0873 -0.0098 -0.0046
  419loPI   GL1 6693   1.554   6.071  10.456  0.0207  0.1882 -0.2552
  419loPI   GL2 6694   1.591   5.787  10.381 -0.0279  0.0609  0.0907
  419loPI   C1A 6695   1.196   6.254  10.152  0.1208  0.2718  0.2694
  419loPI   C2A 6696   0.947   6.288   9.869  0.0370 -0.0144  0.0864
  419loPI   C3A 6697   0.887   6.137   9.538 -0.0260  0.1340 -0.0384
  419loPI   C4A 6698   0.971   6.161   9.194 -0.2833  0.0041 -0.3017
  419loPI   C5A 6699   1.000   6.233   8.835  0.0276 -0.1335  0.1303
  419loPI   C6A 6700   1.347   6.495   8.594  0.2481  0.1976  0.0887
  419loPI   C1B 6701   1.465   5.720   9.967  0.0330  0.1597 -0.2505
  419loPI   C2B 6702   1.465   5.767   9.584  0.0774  0.1094 -0.1800
  419loPI   C3B 6703   1.381   5.886   9.225  0.1975  0.2230 -0.0318
  419loPI   C4B 6704   1.386   5.953   8.731  0.0917 -0.0732  0.2489
  420loPI    C1 6705  13.701   5.705  11.320 -0.0931 -0.2009  0.1995
  420loPI    C2 6706  13.755   5.310  11.359  0.1068 -0.1870  0.0794
  420loPI    C3 6707  13.994   5.565  11.553  0.1216 -0.1246 -0.0201
  420loPI   PO4 6708  13.656   5.798  11.030 -0.0547 -0.0411  0.1043
  420loPI   GL1 6709  13.775   5.751  10.553 -0.2263  0.0402  0.0165
  420loPI   GL2 6710  13.684   5.506  10.493 -0.0868  0.0122  0.0864
  420loPI   C1A 6711  13.804   6.099  10.248  0.0782 -0.5296  0.1830
  420loPI   C2A 6712  13.689   6.182   9.780  0.1369  0.0779  0.1689
  420loPI   C3A 6713  13.726   6.127   9.318 -0.2160 -0.0502 -0.3279
  420loPI   C4A 6714  13.704   6.141   8.853  0.0010  0.4985  0.0346
  420loPI   C5A 6715  13.439   6.224   8.511 -0.0674 -0.0592 -0.0181
  420loPI   C6A 6716  13.370   6.225   8.058 -0.2191  0.1309  0.0349
  420loPI   C1B 6717  13.713   5.616  10.045 -0.0433 -0.0833  0.1398
  420loPI   C2B 6718  13.686   5.651   9.668 -0.5930  0.1195 -0.0109
  420loPI   C3B 6719  13.709   5.589   9.212  0.1696  0.0835  0.3278
  420loPI   C4B 6720  13.701   5.614   8.833  0.2496  0.0085  0.0945
  421loPI    C1 6721  10.908   3.661  11.154  0.0064 -0.1616  0.1153
  421loPI    C2 6722  11.249   3.729  11.353  0.1053 -0.1051 -0.0715
  421loPI    C3 6723  10.900   3.730  11.548  0.1632  0.3326  0.0382
  421loPI   PO4 6724  10.973   3.751  10.930  0.0512 -0.1255 -0.2099
  421loPI   GL1 6725  10.803   3.759  10.540  0.0112 -0.0632  0.3261
  421loPI   GL2 6726  11.087   3.513  10.487 -0.1120  0.1685  0.3601
  421loPI   C1A 6727  10.683   4.040  10.337  0.1217  0.0049 -0.1323
  421loPI   C2A 6728  10.812   4.319   9.951  0.0432 -0.2458 -0.0417
  421loPI   C3A 6729  10.713   4.449   9.593  0.1207 -0.0349 -0.1648
  421loPI   C4A 6730  10.643   4.469   9.205  0.2574 -0.1364 -0.2099
  421loPI   C5A 6731  10.640   4.610   8.847  0.0001 -0.2069  0.0311
  421loPI   C6A 6732  11.029   4.702   8.686  0.2614  0.1825  0.0713
  421loPI   C1B 6733  11.296   3.570  10.153  0.1501 -0.1083 -0.0175
  421loPI   C2B 6734  11.119   3.611   9.809  0.2029  0.1542  0.0646
  421loPI   C3B 6735  11.113   3.677   9.454 -0.0027  0.2248 -0.0624
  421loPI   C4B 6736  11.086   3.725   9.072 -0.0420 -0.1886 -0.0595
  422loPI    C1 6737   3.725  13.225  10.317  0.1158  0.0222  0.0218
  422loPI    C2 6738   3.689  13.330  10.702  0.0087  0.1869 -0.0322
  422loPI    C3 6739   4.012  13.129  10.579 -0.1242 -0.1862  0.2135
  422loPI   PO4 6740   3.494  13.044  10.293  0.3125 -0.0412  0.6283
  422loPI   GL1 6741   3.372  13.042   9.927  0.2283  0.0420 -0.1770
  422loPI   GL2 6742   3.245  12.734   9.968 -0.0810  0.1131 -0.1457
  422loPI   C1A 6743   3.409  13.013   9.473  0.0273 -0.2078  0.0157
  422loPI   C2A 6744   3.343  12.979   8.978 -0.0817 -0.2491 -0.1799
  422loPI   C3A 6745   3.385  12.928   8.529  0.0748 -0.0500  0.0872
  422loPI   C4A 6746   3.475  13.089   8.178  0.2397  0.2681  0.0731
  422loPI   C5A 6747   3.709  13.217   7.779  0.3631  0.1096 -0.1674
  422loPI   C6A 6748   3.948  13.399   7.540 -0.2465  0.1443 -0.2918
  422loPI   C1B 6749   3.288  12.509   9.544 -0.2808 -0.2658 -0.1227
  422loPI   C2B 6750   3.258  12.390   9.034  0.0586  0.0215  0.1817
  422loPI   C3B 6751   3.268  12.402   8.619 -0.1590 -0.1371 -0.3957
  422loPI   C4B 6752   3.399  12.180   8.247  0.0898 -0.0704 -0.2347
  423loPI    C1 6753  13.381  14.094  10.737 -0.2285  0.0170  0.0764
  423loPI    C2 6754  13.042  14.289  10.822 -0.1381  0.1217  0.2010
  423loPI    C3 6755  13.379  14.379  11.018  0.0211  0.1959 -0.0998
  423loPI   PO4 6756  13.358  14.128  10.482 -0.2320 -0.0115 -0.0606
  423loPI   GL1 6757  13.521  14.327  10.107 -0.0339 -0.1464 -0.3477
  423loPI   GL2 6758  13.151  14.348  10.035  0.0998 -0.2464 -0.1153
  423loPI   C1A 6759  13.481  14.408   9.742 -0.1405 -0.1601 -0.1500
  423loPI   C2A 6760  13.637  14.457   9.345  0.0121  0.0890  0.0583
  423loPI   C3A 6761  13.731  14.265   9.047  0.1289  0.1801 -0.0446
  423loPI   C4A 6762  13.626  14.129   8.657 -0.0796  0.2672 -0.2309
  423loPI   C5A 6763  13.825  14.007   8.401 -0.1053  0.1208  0.1057
  423loPI   C6A 6764  13.996  14.253   8.107 -0.0538 -0.0202  0.2609
  423loPI   C1B 6765  12.975  14.183   9.592 -0.0410  0.0338 -0.0249
  423loPI   C2B 6766  13.170  14.132   9.093  0.1918  0.0577  0.4588
  423loPI   C3B 6767  13.020  13.914   8.737 -0.3092 -0.1282 -0.1504
  423loPI   C4B 6768  12.761  13.779   8.408 -0.1416 -0.1013 -0.0913
  424loPI    C1 6769   5.197   8.507  11.134 -0.0476  0.0424  0.0298
  424loPI    C2 6770   5.525   8.600  11.343 -0.0170 -0.0686  0.0318
  424loPI    C3 6771   5.186   8.506  11.533  0.0673 -0.3743  0.0370
  424loPI   PO4 6772   5.217   8.664  10.922  0.3071 -0.0333 -0.0287
  424loPI   GL1 6773   5.318   8.701  10.610 -0.0078  0.2191  0.0486
  424loPI   GL2 6774   5.418   8.380  10.406  0.0531  0.1254 -0.2362
  424loPI   C1A 6775   5.483   8.951  10.268 -0.0245 -0.2254  0.1622
  424loPI   C2A 6776   5.553   9.037   9.854 -0.0549 -0.0065  0.0934
  424loPI   C3A 6777   5.487   9.042   9.505 -0.1474 -0.2833  0.1949
  424loPI   C4A 6778   5.506   8.964   9.109 -0.0142 -0.2479 -0.0083
  424loPI   C5A 6779   5.452   8.960   8.736  0.0364 -0.1170  0.1348
  424loPI   C6A 6780   5.732   8.833   8.340  0.2240 -0.0158  0.1233
  424loPI   C1B 6781   5.424   8.495   9.848  0.1337 -0.0598 -0.1844
  424loPI   C2B 6782   5.401   8.539   9.400  0.2878 -0.1861 -0.0611
  424loPI   C3B 6783   5.373   8.491   8.952 -0.3148 -0.0070 -0.0424
  424loPI   C4B 6784   5.434   8.414   8.579  0.2596 -0.0955  0.3719
  425loPI    C1 6785  12.968   8.475  11.306  0.1986 -0.1663 -0.0425
  425loPI    C2 6786  12.655   8.464  11.554  0.1496 -0.1034 -0.1007
  425loPI    C3 6787  12.986   8.664  11.658  0.0834  0.0262 -0.1382
  425loPI   PO4 6788  12.842   8.621  11.046 -0.3368  0.1709 -0.2297
  425loPI   GL1 6789  12.733   8.475  10.631  0.0312 -0.0478  0.0580
  425loPI   GL2 6790  12.539   8.246  10.597 -0.1869  0.1804 -0.1797
  425loPI   C1A 6791  12.747   8.664  10.213 -0.2762 -0.2086  0.0144
  425loPI   C2A 6792  12.761   8.586   9.729  0.2228 -0.2007  0.1485
  425loPI   C3A 6793  12.769   8.615   9.329  0.0591 -0.1183  0.0255
  425loPI   C4A 6794  12.643   8.641   8.893 -0.0524  0.0444  0.2308
  425loPI   C5A 6795  12.579   8.423   8.482  0.0476 -0.1918  0.2705
  425loPI   C6A 6796  12.429   8.371   8.016 -0.0680  0.1274 -0.0689
  425loPI   C1B 6797  12.673   8.173  10.240  0.2425  0.2501 -0.2303
  425loPI   C2B 6798  12.613   8.078   9.769 -0.1761  0.2442  0.1053
  425loPI   C3B 6799  12.654   8.137   9.301  0.0477 -0.5048 -0.0604
  425loPI   C4B 6800  12.528   8.090   8.796 -0.4787 -0.5189  0.0350
  426loPI    C1 6801  13.443  13.350  10.850  0.1485  0.0189 -0.0656
  426loPI    C2 6802  13.265  13.675  11.000 -0.0664 -0.1529  0.0565
  426loPI    C3 6803  13.457  13.422  11.243  0.4440  0.0857 -0.0860
  426loPI   PO4 6804  13.207  13.202  10.671 -0.1708 -0.1138 -0.1414
  426loPI   GL1 6805  13.032  13.218  10.315 -0.0580 -0.1566 -0.1156
  426loPI   GL2 6806  13.059  13.346  10.084 -0.0553  0.2665  0.1629
  426loPI   C1A 6807  12.983  12.902   9.939 -0.1194  0.0250  0.0592
  426loPI   C2A 6808  12.916  12.641   9.534 -0.4910  0.2225  0.1991
  426loPI   C3A 6809  12.864  12.449   9.208 -0.1594  0.1140 -0.1667
  426loPI   C4A 6810  12.858  12.426   8.833  0.1973 -0.0487  0.1712
  426loPI   C5A 6811  12.897  12.369   8.383  0.3478  0.2331 -0.2953
  426loPI   C6A 6812  13.234  12.545   8.115  0.0504  0.0498  0.1899
  426loPI   C1B 6813  13.118  13.221   9.597  0.1489  0.0586  0.0695
  426loPI   C2B 6814  13.164  13.139   9.226 -0.0933  0.0166 -0.1653
  426loPI   C3B 6815  13.222  13.198   8.880 -0.0316  0.2551  0.1262
  426loPI   C4B 6816  13.209  13.466   8.497 -0.0385 -0.0251 -0.1092
  427loPI    C1 6817   0.350  16.302  10.921 -0.2406 -0.1090 -0.0550
  427loPI    C2 6818   0.266  16.693  10.937 -0.0651 -0.0618 -0.2427
  427loPI    C3 6819   0.638  16.565  11.011 -0.1292 -0.1975 -0.1496
  427loPI   PO4 6820   0.318  16.205  10.643  0.1570  0.1877  0.2096
  427loPI   GL1 6821   0.204  16.018  10.174 -0.6181 -0.0351 -0.2372
  427loPI   GL2 6822   0.048  15.752  10.283 -0.0660  0.1296  0.0449
  427loPI   C1A 6823   0.350  16.139   9.820  0.0309  0.2628  0.2118
  427loPI   C2A 6824   0.384  16.169   9.386 -0.1181  0.0281  0.1168
  427loPI   C3A 6825   0.361  16.263   9.017 -0.0886  0.0401  0.1203
  427loPI   C4A 6826   0.620  16.263   8.674  0.2070 -0.0532  0.0020
  427loPI   C5A 6827   1.052  16.415   8.592 -0.0127  0.0487 -0.1148
  427loPI   C6A 6828   1.325  16.360   8.306 -0.2826 -0.1726 -0.1783
  427loPI   C1B 6829  -0.008  15.714   9.861 -0.1218  0.0406  0.0429
  427loPI   C2B 6830   0.029  15.807   9.467  0.0482  0.0025 -0.4274
  427loPI   C3B 6831  -0.113  16.127   9.290  0.0358 -0.1464 -0.3385
  427loPI   C4B 6832  -0.107  16.339   8.979 -0.0562 -0.0010 -0.0632
  428loPI    C1 6833  16.517   5.321  10.944  0.0413 -0.1574  0.2441
  428loPI    C2 6834  16.240   5.608  10.973  0.3345  0.1701 -0.0816
  428loPI    C3 6835  16.480   5.529  11.283 -0.0848 -0.0868  0.1879
  428loPI   PO4 6836  16.663   5.407  10.652  0.1294 -0.2090  0.0553
  428loPI   GL1 6837  16.608   5.253  10.234  0.0428  0.1057  0.0068
  428loPI   GL2 6838  16.919   5.498  10.099  0.0678 -0.0587 -0.0310
  428loPI   C1A 6839  16.804   4.943   9.924  0.0187  0.4389 -0.4426
  428loPI   C2A 6840  16.759   4.855   9.479 -0.1477 -0.1539 -0.2091
  428loPI   C3A 6841  16.812   4.844   9.031  0.2707 -0.1638 -0.0716
  428loPI   C4A 6842  17.009   4.917   8.572  0.1540 -0.0355  0.0102
  428loPI   C5A 6843  16.699   4.689   8.260 -0.0271 -0.1828 -0.0930
  428loPI   C6A 6844  16.449   4.344   8.328  0.0215 -0.0775  0.3180
  428loPI   C1B 6845  16.832   5.368   9.680  0.1182 -0.1500  0.0795
  428loPI   C2B 6846  16.985   5.367   9.297 -0.1553 -0.0378  0.2329
  428loPI   C3B 6847  16.958   5.310   8.895  0.0027 -0.1817 -0.0026
  428loPI   C4B 6848  16.934   5.407   8.463  0.2279  0.0567 -0.2068
  429loPI    C1 6849  16.511   1.114  10.615  0.0677  0.0594 -0.0198
  429loPI    C2 6850  16.418   0.875  10.922 -0.2509 -0.1274 -0.2565
  429loPI    C3 6851  16.632   1.207  10.985 -0.0645 -0.3135  0.1214
  429loPI   PO4 6852  16.280   1.153  10.479  0.0893  0.2247 -0.1915
  429loPI   GL1 6853  16.196   1.486  10.144  0.2327  0.0722  0.3237
  429loPI   GL2 6854  16.494   1.327  10.082 -0.1215 -0.0149 -0.2354
  429loPI   C1A 6855  16.283   1.292   9.674 -0.0792 -0.1860  0.0069
  429loPI   C2A 6856  16.309   1.327   9.295  0.2351 -0.0398  0.0468
  429loPI   C3A 6857  16.321   1.275   8.842  0.2230 -0.0522  0.1446
  429loPI   C4A 6858  16.291   1.294   8.481  0.0485 -0.1750 -0.0713
  429loPI   C5A 6859  16.228   0.984   8.305 -0.0088  0.3854  0.1227
  429loPI   C6A 6860  16.000   0.852   7.856  0.2431 -0.0657  0.2207
  429loPI   C1B 6861  16.726   1.479   9.809 -0.2008  0.0884 -0.1626
  429loPI   C2B 6862  16.790   1.482   9.438 -0.0531  0.2366  0.2037
  429loPI   C3B 6863  16.841   1.540   9.006  0.0848  0.1697 -0.0504
  429loPI   C4B 6864  16.733   1.614   8.515 -0.1476  0.2145  0.3230
  430loPI    C1 6865  16.522  13.190  11.034  0.1809  0.0993  0.0274
  430loPI    C2 6866  16.493  13.566  11.165  0.2712  0.0545  0.1788
  430loPI    C3 6867  16.275  13.277  11.336  0.1034  0.0587 -0.0240
  430loPI   PO4 6868  16.471  13.200  10.737 -0.2458 -0.0990  0.0613
  430loPI   GL1 6869  16.633  13.303  10.371 -0.0561 -0.1294 -0.0299
  430loPI   GL2 6870  16.920  13.208  10.233 -0.5419  0.1457  0.0058
  430loPI   C1A 6871  16.252  13.325  10.071 -0.0037  0.0735 -0.0549
  430loPI   C2A 6872  16.212  13.374   9.641  0.3296 -0.0168 -0.2097
  430loPI   C3A 6873  16.261  13.414   9.192 -0.0355  0.0522 -0.3090
  430loPI   C4A 6874  16.468  13.385   8.774 -0.0737 -0.1370  0.0604
  430loPI   C5A 6875  16.456  13.485   8.400 -0.0732  0.1935 -0.1001
  430loPI   C6A 6876  16.127  13.743   8.195  0.1506 -0.0688  0.1087
  430loPI   C1B 6877  16.596  13.063   9.926 -0.2473  0.0879 -0.0556
  430loPI   C2B 6878  16.548  12.931   9.554 -0.0028  0.0942  0.1127
  430loPI   C3B 6879  16.546  12.616   9.235  0.1493  0.2337 -0.1600
  430loPI   C4B 6880  16.392  12.408   8.846  0.0238 -0.0126 -0.1847
  431loPI    C1 6881   6.951   9.065  11.218  0.0133 -0.1604 -0.0210
  431loPI    C2 6882   6.816   9.302  10.925 -0.0315 -0.0554  0.0834
  431loPI    C3 6883   6.699   9.364  11.302  0.0608 -0.1623  0.1302
  431loPI   PO4 6884   6.861   8.839  11.118  0.0321 -0.0006 -0.2786
  431loPI   GL1 6885   6.982   8.866  10.723  0.0718 -0.0767 -0.0269
  431loPI   GL2 6886   7.209   8.742  10.311 -0.2260 -0.2789 -0.0946
  431loPI   C1A 6887   6.774   9.133  10.400 -0.4629  0.2698 -0.0277
  431loPI   C2A 6888   6.746   9.119   9.981  0.0959  0.1491  0.0601
  431loPI   C3A 6889   6.835   9.100   9.595 -0.2122 -0.0475 -0.0425
  431loPI   C4A 6890   6.871   9.070   9.202  0.1604 -0.0486 -0.0179
  431loPI   C5A 6891   6.889   9.118   8.738  0.0621 -0.2633  0.3005
  431loPI   C6A 6892   7.221   9.278   8.335  0.0714  0.0200 -0.1000
  431loPI   C1B 6893   7.267   8.825   9.881 -0.2131  0.0517  0.1372
  431loPI   C2B 6894   7.225   8.747   9.515  0.2882  0.1803 -0.0865
  431loPI   C3B 6895   7.297   8.784   9.069  0.0536  0.0865 -0.1972
  431loPI   C4B 6896   7.320   8.832   8.653 -0.1499  0.0920  0.0220
  432loPI    C1 6897   0.432  15.422  11.121 -0.1370  0.0274 -0.0158
  432loPI    C2 6898   0.642  15.744  11.012 -0.0342  0.0515  0.2465
  432loPI    C3 6899   0.250  15.776  11.085 -0.0620  0.0770  0.0910
  432loPI   PO4 6900   0.444  15.164  10.990  0.2857  0.1697  0.0765
  432loPI   GL1 6901   0.312  15.184  10.513 -0.1498  0.0047  0.2100
  432loPI   GL2 6902   0.686  15.043  10.607 -0.2978 -0.2514  0.0767
  432loPI   C1A 6903   0.148  15.303  10.147 -0.1553 -0.0600  0.1756
  432loPI   C2A 6904   0.179  15.321   9.622 -0.0238  0.1797  0.1470
  432loPI   C3A 6905  -0.253  15.170   9.618 -0.1141  0.0677  0.2594
  432loPI   C4A 6906  -0.512  15.012   9.258  0.0817  0.1525  0.2677
  432loPI   C5A 6907  -0.339  14.971   8.862 -0.0889  0.1566  0.1577
  432loPI   C6A 6908  -0.117  15.102   8.451 -0.0380 -0.2104 -0.0773
  432loPI   C1B 6909   0.594  14.918  10.194  0.2025 -0.0213  0.1695
  432loPI   C2B 6910   0.590  15.169   9.820 -0.0732  0.1699 -0.2485
  432loPI   C3B 6911   0.568  15.163   9.373 -0.0514  0.1669 -0.0361
  432loPI   C4B 6912   0.490  15.011   9.003  0.0562  0.2026  0.1105
  433loPI    C1 6913  15.044   2.341  10.849 -0.1360 -0.0409 -0.0299
  433loPI    C2 6914  15.086   1.957  10.952 -0.2307 -0.0019  0.1575
  433loPI    C3 6915  15.326   2.234  11.112 -0.1622  0.0179  0.0223
  433loPI   PO4 6916  15.022   2.409  10.560 -0.0764 -0.1458  0.1179
  433loPI   GL1 6917  15.142   2.353  10.207  0.0165  0.0032  0.1015
  433loPI   GL2 6918  14.987   2.231   9.985  0.0478  0.0593  0.4185
  433loPI   C1A 6919  15.503   2.394   9.847  0.0707  0.2045 -0.0230
  433loPI   C2A 6920  15.373   2.449   9.452 -0.0731  0.0755 -0.0384
  433loPI   C3A 6921  15.550   2.520   9.022 -0.1097  0.1503 -0.1224
  433loPI   C4A 6922  15.410   2.413   8.565 -0.0506  0.1691 -0.2706
  433loPI   C5A 6923  15.266   2.301   8.145 -0.2629  0.1589  0.1733
  433loPI   C6A 6924  15.260   2.077   7.760  0.0669 -0.2371  0.3370
  433loPI   C1B 6925  14.887   2.218   9.487  0.2642 -0.1455 -0.1715
  433loPI   C2B 6926  14.919   2.418   9.063  0.1693 -0.2900  0.0495
  433loPI   C3B 6927  14.769   2.463   8.758  0.1210  0.0752 -0.5200
  433loPI   C4B 6928  14.517   2.681   8.501  0.1354  0.3962  0.0653
  434loPI    C1 6929  16.247   3.302  11.016  0.0857  0.1309 -0.0974
  434loPI    C2 6930  16.611   3.136  10.993 -0.0132 -0.1215  0.1135
  434loPI    C3 6931  16.489   3.303  11.335 -0.1197 -0.0940  0.0624
  434loPI   PO4 6932  16.216   3.225  10.697  0.1182 -0.1324  0.1805
  434loPI   GL1 6933  16.517   3.275  10.444  0.1924 -0.0198 -0.0522
  434loPI   GL2 6934  16.190   3.500  10.287  0.1182  0.2837  0.1192
  434loPI   C1A 6935  16.564   3.341  10.033 -0.2477  0.1023  0.2101
  434loPI   C2A 6936  16.462   3.389   9.611 -0.0393 -0.1029  0.4116
  434loPI   C3A 6937  16.531   3.330   9.158  0.1444 -0.0022 -0.2291
  434loPI   C4A 6938  16.524   3.349   8.650 -0.1037 -0.0495  0.0078
  434loPI   C5A 6939  16.439   3.315   8.214  0.1436 -0.0848  0.0771
  434loPI   C6A 6940  16.142   3.507   7.817 -0.2019  0.1570 -0.0732
  434loPI   C1B 6941  16.142   3.669   9.923 -0.1483 -0.0994  0.2389
  434loPI   C2B 6942  16.064   3.631   9.483 -0.2159 -0.2417  0.1482
  434loPI   C3B 6943  16.129   3.653   9.018  0.0345 -0.3557 -0.4800
  434loPI   C4B 6944  16.143   3.652   8.554  0.1438  0.2970 -0.1715
  435loPI    C1 6945   7.895  15.810  10.577  0.1149  0.0513 -0.0618
  435loPI    C2 6946   8.105  15.764  10.914  0.0534 -0.0761 -0.0402
  435loPI    C3 6947   8.259  15.971  10.608  0.1766 -0.0994  0.0055
  435loPI   PO4 6948   7.754  15.455  10.545  0.2950 -0.1204 -0.0131
  435loPI   GL1 6949   7.781  15.138  10.317  0.1072  0.1552  0.3299
  435loPI   GL2 6950   7.450  15.147  10.215  0.0984 -0.1057  0.1829
  435loPI   C1A 6951   7.932  15.328   9.976 -0.1713  0.1935 -0.0755
  435loPI   C2A 6952   8.244  15.291   9.759 -0.1535  0.1626 -0.0246
  435loPI   C3A 6953   8.350  15.009   9.388 -0.1757 -0.1637  0.0024
  435loPI   C4A 6954   8.476  15.054   8.972  0.0021 -0.0112  0.2099
  435loPI   C5A 6955   8.814  15.028   8.650  0.0283 -0.2130 -0.0797
  435loPI   C6A 6956   9.208  14.840   8.548 -0.2295  0.1283  0.1455
  435loPI   C1B 6957   7.404  15.220   9.774  0.4728 -0.2490 -0.0264
  435loPI   C2B 6958   7.443  15.455   9.370 -0.1049  0.4019 -0.0664
  435loPI   C3B 6959   7.562  15.554   8.918  0.0727  0.2846  0.0106
  435loPI   C4B 6960   7.620  15.710   8.415  0.1262  0.0310  0.0355
  436loPI    C1 6961   9.699   1.683  10.620 -0.1844 -0.0402  0.0477
  436loPI    C2 6962   9.391   1.937  10.585 -0.0267  0.1444 -0.0191
  436loPI    C3 6963   9.590   1.910  10.931 -0.1540 -0.0188  0.0428
  436loPI   PO4 6964   9.832   1.672  10.313 -0.1223 -0.0237  0.3729
  436loPI   GL1 6965   9.602   1.513   9.919  0.0410 -0.2960  0.0822
  436loPI   GL2 6966  10.077   1.549   9.851 -0.0909 -0.1265 -0.0321
  436loPI   C1A 6967   9.676   1.802   9.492 -0.1271  0.0397  0.2417
  436loPI   C2A 6968   9.545   1.819   9.036 -0.1306  0.2688 -0.0781
  436loPI   C3A 6969   9.373   1.816   8.692 -0.0470 -0.1915  0.0662
  436loPI   C4A 6970   9.166   2.111   8.383  0.0994 -0.0186 -0.2714
  436loPI   C5A 6971   8.980   2.470   8.265 -0.1640  0.1169 -0.1522
  436loPI   C6A 6972   8.622   2.312   8.010  0.0657  0.1706 -0.0584
  436loPI   C1B 6973  10.145   1.635   9.544  0.0106  0.2093  0.6702
  436loPI   C2B 6974  10.107   2.034   9.211  0.1363  0.2259 -0.0724
  436loPI   C3B 6975   9.983   2.230   8.921 -0.1171 -0.2156  0.0763
  436loPI   C4B 6976   9.784   2.394   8.505 -0.0279  0.2032 -0.1301
  437loPI    C1 6977  12.483   9.633  11.338  0.0501 -0.0024 -0.0013
  437loPI    C2 6978  12.238   9.711  11.645  0.4355  0.1098  0.2850
  437loPI    C3 6979  12.370   9.338  11.584  0.0177  0.0023 -0.0104
  437loPI   PO4 6980  12.430   9.711  11.133  0.2219  0.0295  0.0939
  437loPI   GL1 6981  12.629   9.832  10.826 -0.1565 -0.1144 -0.3303
  437loPI   GL2 6982  12.691   9.476  10.715  0.1736  0.1230  0.0254
  437loPI   C1A 6983  12.581   9.909  10.432 -0.0563 -0.1781 -0.2274
  437loPI   C2A 6984  12.551   9.908   9.998  0.1590 -0.0156 -0.3168
  437loPI   C3A 6985  12.540  10.004   9.672  0.1640  0.0240 -0.2744
  437loPI   C4A 6986  12.491   9.891   9.298  0.1596 -0.1589  0.1643
  437loPI   C5A 6987  12.604   9.965   8.912  0.0209  0.3279 -0.0420
  437loPI   C6A 6988  12.805   9.565   8.720 -0.0955 -0.1718  0.0547
  437loPI   C1B 6989  12.433   9.438  10.223 -0.2252  0.0390 -0.2274
  437loPI   C2B 6990  12.406   9.479   9.796 -0.1076 -0.2472 -0.3372
  437loPI   C3B 6991  12.446   9.397   9.347 -0.2293 -0.1681  0.1371
  437loPI   C4B 6992  12.364   9.464   8.925 -0.0572 -0.0090 -0.3099
  438loPI    C1 6993  16.484  15.445  10.683 -0.3505  0.2268  0.2967
  438loPI    C2 6994  16.784  15.358  10.933 -0.2385 -0.0671  0.0668
  438loPI    C3 6995  16.405  15.329  11.057 -0.1810 -0.0699  0.2444
  438loPI   PO4 6996  16.524  15.218  10.437  0.1213  0.0176  0.0387
  438loPI   GL1 6997  16.648  15.215  10.079 -0.1959 -0.2246 -0.2150
  438loPI   GL2 6998  16.230  15.283  10.008 -0.1906 -0.0216 -0.0078
  438loPI   C1A 6999  16.752  15.446   9.732  0.1132  0.2708 -0.1633
  438loPI   C2A 7000  17.180  15.520   9.434 -0.0086  0.2251  0.0759
  438loPI   C3A 7001  17.608  15.481   9.239 -0.1167  0.0545  0.0506
  438loPI   C4A 7002  17.817  15.806   8.900  0.2421 -0.1447  0.0928
  438loPI   C5A 7003  17.972  16.055   8.572 -0.0776  0.1419  0.0453
  438loPI   C6A 7004  17.995  16.412   8.443 -0.2665 -0.1975 -0.0264
  438loPI   C1B 7005  16.295  15.066   9.650 -0.4385 -0.1541 -0.3865
  438loPI   C2B 7006  16.411  14.893   9.349 -0.1862 -0.0178  0.1400
  438loPI   C3B 7007  16.553  14.883   8.889  0.0291 -0.1234  0.2422
  438loPI   C4B 7008  16.635  14.712   8.493  0.0114 -0.0704 -0.3445
  439loPI    C1 7009  11.274  11.885  10.779 -0.0713  0.1738 -0.0827
  439loPI    C2 7010  11.673  11.892  10.811 -0.0855  0.0878  0.1288
  439loPI    C3 7011  11.485  12.170  10.593  0.0930  0.0995 -0.0125
  439loPI   PO4 7012  11.221  11.588  10.720  0.2425  0.1629  0.0947
  439loPI   GL1 7013  11.447  11.421  10.357  0.0294  0.2452  0.2015
  439loPI   GL2 7014  11.507  11.733  10.323 -0.1680 -0.1643 -0.0121
  439loPI   C1A 7015  11.397  11.386   9.913 -0.1232  0.2744 -0.1692
  439loPI   C2A 7016  11.237  11.548   9.545 -0.1122 -0.1695  0.0819
  439loPI   C3A 7017  11.393  11.501   9.138  0.0924  0.0143 -0.1514
  439loPI   C4A 7018  11.437  11.583   8.680 -0.3974 -0.0416  0.2538
  439loPI   C5A 7019  11.620  11.560   8.254 -0.0813  0.0017  0.2362
  439loPI   C6A 7020  11.959  11.283   8.223 -0.0029 -0.0691  0.0378
  439loPI   C1B 7021  11.276  11.902   9.930  0.1873  0.0377 -0.0582
  439loPI   C2B 7022  11.166  12.019   9.604  0.0431 -0.1565 -0.2835
  439loPI   C3B 7023  11.220  12.379   9.279  0.0619 -0.0485  0.1814
  439loPI   C4B 7024  10.956  12.346   9.009 -0.1090  0.0029  0.0177
  440loPI    C1 7025   7.807   2.958  11.149 -0.1242 -0.1047 -0.0572
  440loPI    C2 7026   7.847   2.738  11.481  0.0885  0.0822  0.0441
  440loPI    C3 7027   7.892   3.135  11.498 -0.0342  0.1075 -0.1850
  440loPI   PO4 7028   7.846   2.825  10.955  0.3563 -0.1244 -0.1485
  440loPI   GL1 7029   8.056   2.825  10.505  0.1104 -0.2037 -0.2996
  440loPI   GL2 7030   7.974   3.169  10.487  0.1624  0.1268 -0.1014
  440loPI   C1A 7031   8.235   3.127  10.026  0.2533  0.1349 -0.0572
  440loPI   C2A 7032   8.339   3.405   9.687  0.2071  0.0696 -0.0185
  440loPI   C3A 7033   8.702   3.584   9.517 -0.0626 -0.2669  0.0235
  440loPI   C4A 7034   8.822   3.790   9.118  0.0333 -0.0267  0.0038
  440loPI   C5A 7035   9.026   3.888   8.693  0.2324  0.3354 -0.1829
  440loPI   C6A 7036   9.295   4.130   8.522  0.1310 -0.1651  0.0667
  440loPI   C1B 7037   7.751   3.224  10.161  0.0216  0.1873  0.0654
  440loPI   C2B 7038   7.810   3.232   9.744  0.2501  0.1920  0.2582
  440loPI   C3B 7039   7.960   3.309   9.293  0.0413 -0.0913  0.0706
  440loPI   C4B 7040   8.211   3.472   9.204 -0.0340 -0.0502 -0.0915
  441loPI    C1 7041   6.358   3.505  10.591 -0.0697 -0.0444 -0.0253
  441loPI    C2 7042   6.721   3.672  10.617  0.0191 -0.2157 -0.1451
  441loPI    C3 7043   6.461   3.710  10.919  0.1800 -0.1933 -0.0076
  441loPI   PO4 7044   6.461   3.311  10.392  0.3889 -0.1067 -0.1152
  441loPI   GL1 7045   6.354   3.349   9.979  0.0533 -0.0264  0.1834
  441loPI   GL2 7046   6.370   3.044   9.966 -0.0898  0.0359  0.3051
  441loPI   C1A 7047   6.503   3.604   9.663  0.3424  0.1682  0.3372
  441loPI   C2A 7048   6.608   3.703   9.349  0.2920 -0.0291  0.0534
  441loPI   C3A 7049   6.451   3.865   8.928 -0.0530  0.1946 -0.1181
  441loPI   C4A 7050   6.147   4.185   8.600 -0.1424 -0.1016  0.1959
  441loPI   C5A 7051   6.000   4.481   8.441 -0.0539  0.2772  0.2172
  441loPI   C6A 7052   5.620   4.388   8.192 -0.0710 -0.0659  0.0137
  441loPI   C1B 7053   6.466   3.087   9.577  0.1565 -0.1182 -0.0849
  441loPI   C2B 7054   6.454   3.220   9.150 -0.0364  0.1008 -0.0706
  441loPI   C3B 7055   6.388   3.029   8.731  0.3675  0.0320  0.2322
  441loPI   C4B 7056   6.099   3.165   8.336  0.0858  0.3500  0.0391
  442loPI    C1 7057   6.074   4.661  11.032  0.0437 -0.2745 -0.0041
  442loPI    C2 7058   5.839   4.889  11.262  0.2424  0.0156 -0.0830
  442loPI    C3 7059   6.096   4.633  11.430  0.2613  0.0980  0.0143
  442loPI   PO4 7060   5.987   4.664  10.845  0.1294 -0.0365 -0.4610
  442loPI   GL1 7061   6.046   4.935  10.547 -0.1266 -0.0560  0.0817
  442loPI   GL2 7062   6.222   4.718  10.371  0.2453  0.0319 -0.0773
  442loPI   C1A 7063   5.936   5.155  10.179 -0.1913  0.3289 -0.3109
  442loPI   C2A 7064   5.906   5.391   9.825  0.1109 -0.0378  0.1371
  442loPI   C3A 7065   5.957   5.724   9.508 -0.2328  0.0923 -0.1493
  442loPI   C4A 7066   6.011   5.874   9.067 -0.1272  0.0410 -0.0037
  442loPI   C5A 7067   5.911   5.756   8.607  0.1919  0.0203  0.2526
  442loPI   C6A 7068   5.993   5.605   8.032 -0.2832 -0.1490 -0.1661
  442loPI   C1B 7069   6.300   4.922   9.892  0.1699 -0.0524 -0.2493
  442loPI   C2B 7070   6.228   5.081   9.513 -0.0066  0.0093 -0.1101
  442loPI   C3B 7071   6.467   5.093   9.115 -0.2945 -0.0599  0.1402
  442loPI   C4B 7072   6.389   5.034   8.699 -0.1530 -0.0542  0.3997
  443loPI    C1 7073  11.942  11.226  11.173 -0.1522 -0.0180 -0.0101
  443loPI    C2 7074  12.076  11.056  11.509 -0.0984  0.0490  0.0026
  443loPI    C3 7075  11.698  11.185  11.487 -0.1614 -0.1387 -0.0327
  443loPI   PO4 7076  12.071  11.130  10.986 -0.0129 -0.0675  0.2608
  443loPI   GL1 7077  12.385  10.954  10.681 -0.1015  0.0222 -0.0275
  443loPI   GL2 7078  12.314  11.326  10.440  0.2800  0.1444 -0.1933
  443loPI   C1A 7079  12.318  10.764  10.267 -0.1744  0.1000  0.2540
  443loPI   C2A 7080  12.142  10.790   9.831 -0.1978 -0.1738  0.1417
  443loPI   C3A 7081  12.122  10.807   9.374 -0.0447 -0.1269 -0.0719
  443loPI   C4A 7082  12.208  10.752   8.892 -0.1180  0.0382 -0.0949
  443loPI   C5A 7083  11.993  10.785   8.572 -0.0443  0.0221  0.2428
  443loPI   C6A 7084  11.603  10.983   8.439  0.1782 -0.0363  0.0301
  443loPI   C1B 7085  12.304  11.211  10.039  0.2777  0.1589  0.0800
  443loPI   C2B 7086  12.286  11.234   9.581 -0.1116 -0.2002  0.0385
  443loPI   C3B 7087  12.235  11.263   9.074 -0.0475  0.2351 -0.0730
  443loPI   C4B 7088  12.335  11.205   8.677  0.2274 -0.0966  0.0252
  444loPI    C1 7089  11.195  14.612  10.897 -0.0019 -0.1189 -0.2005
  444loPI    C2 7090  11.474  14.396  11.086 -0.0349 -0.0486 -0.0715
  444loPI    C3 7091  11.471  14.795  11.121 -0.1581 -0.0499 -0.0629
  444loPI   PO4 7092  11.175  14.477  10.650  0.2372  0.0902 -0.0648
  444loPI   GL1 7093  10.860  14.555  10.314  0.1665 -0.1798  0.0227
  444loPI   GL2 7094  10.592  14.711  10.344  0.1297 -0.2762  0.1668
  444loPI   C1A 7095  11.085  14.458   9.825 -0.1563 -0.0587 -0.0407
  444loPI   C2A 7096  11.136  14.510   9.434 -0.1327  0.1518  0.1913
  444loPI   C3A 7097  11.014  14.613   9.014 -0.3179  0.2576  0.3537
  444loPI   C4A 7098  11.014  14.373   8.665  0.1799 -0.0684  0.0672
  444loPI   C5A 7099  11.181  14.205   8.286 -0.1350 -0.0148 -0.3487
  444loPI   C6A 7100  10.936  13.930   7.906  0.1170  0.0619 -0.0475
  444loPI   C1B 7101  10.325  14.560   9.951  0.0682  0.1030 -0.3854
  444loPI   C2B 7102  10.300  14.251   9.583 -0.0470 -0.1097  0.0977
  444loPI   C3B 7103  10.359  13.954   9.195 -0.1882 -0.5666 -0.0766
  444loPI   C4B 7104  10.645  13.713   8.955 -0.0766  0.3531 -0.0342
  445loPI    C1 7105  12.716   3.502  11.056  0.1540 -0.0433 -0.1139
  445loPI    C2 7106  12.848   3.837  11.228 -0.0124  0.1810 -0.4132
  445loPI    C3 7107  13.103   3.599  11.034  0.1645 -0.0398  0.0746
  445loPI   PO4 7108  12.510   3.616  10.952 -0.2602 -0.1340  0.0930
  445loPI   GL1 7109  12.362   3.675  10.620 -0.2211  0.1291  0.0796
  445loPI   GL2 7110  12.095   3.594  10.515 -0.1387 -0.1712  0.1404
  445loPI   C1A 7111  12.569   3.690  10.268 -0.0751  0.0645  0.0397
  445loPI   C2A 7112  12.510   3.598   9.770  0.0488 -0.0507 -0.3495
  445loPI   C3A 7113  12.472   3.732   9.383  0.2032  0.0380  0.2886
  445loPI   C4A 7114  12.395   3.769   8.987  0.0476 -0.2051 -0.0107
  445loPI   C5A 7115  12.533   3.817   8.585  0.2742  0.2357  0.0852
  445loPI   C6A 7116  12.380   3.846   8.122 -0.2183  0.0653  0.0477
  445loPI   C1B 7117  12.094   3.499  10.099  0.2217  0.0462  0.0993
  445loPI   C2B 7118  11.984   3.438   9.732  0.2572  0.2989 -0.0651
  445loPI   C3B 7119  11.955   3.546   9.307  0.0153  0.0268 -0.0331
  445loPI   C4B 7120  11.942   3.703   8.892  0.2072  0.0466 -0.1888
  446loPI    C1 7121   3.010   6.658  11.364  0.4033 -0.2707  0.2173
  446loPI    C2 7122   3.187   6.986  11.508 -0.0544  0.0661  0.0390
  446loPI    C3 7123   3.026   6.719  11.759  0.2539  0.0106  0.1827
  446loPI   PO4 7124   3.121   6.488  11.144 -0.0718  0.2240 -0.1189
  446loPI   GL1 7125   2.975   6.476  10.656  0.0912  0.0459 -0.0218
  446loPI   GL2 7126   2.797   6.698  10.730 -0.0734  0.1294  0.5045
  446loPI   C1A 7127   2.973   6.461  10.217 -0.3773  0.0718  0.0640
  446loPI   C2A 7128   2.948   6.557   9.861  0.2440 -0.0992 -0.2282
  446loPI   C3A 7129   2.791   6.596   9.486 -0.1564  0.0969  0.2294
  446loPI   C4A 7130   2.781   6.506   9.013  0.1601 -0.0468  0.1182
  446loPI   C5A 7131   2.876   6.414   8.612 -0.1099 -0.0948 -0.1939
  446loPI   C6A 7132   2.896   6.242   8.302  0.1719 -0.0040  0.1408
  446loPI   C1B 7133   2.469   6.847  10.462 -0.0588 -0.0635 -0.0643
  446loPI   C2B 7134   2.562   6.759  10.068  0.1091 -0.1858 -0.0443
  446loPI   C3B 7135   2.352   6.829   9.648 -0.1290  0.1525 -0.1280
  446loPI   C4B 7136   2.383   6.821   9.166  0.2730 -0.1041  0.2181
  447loPI    C1 7137   0.514   4.241  10.987 -0.1186  0.1819 -0.0350
  447loPI    C2 7138   0.454   4.623  11.090  0.3725  0.2496  0.0224
  447loPI    C3 7139   0.810   4.452  11.155  0.1556 -0.2232  0.0040
  447loPI   PO4 7140   0.420   4.198  10.785  0.1462  0.1059  0.0953
  447loPI   GL1 7141   0.510   4.002  10.467  0.0370  0.0230  0.0340
  447loPI   GL2 7142   0.263   3.746  10.493 -0.0493  0.1351  0.3167
  447loPI   C1A 7143   0.655   4.097  10.128  0.3746 -0.0488  0.0382
  447loPI   C2A 7144   0.592   4.191   9.704 -0.1442  0.1859  0.1320
  447loPI   C3A 7145   0.673   4.234   9.302  0.0961 -0.0141  0.2605
  447loPI   C4A 7146   0.676   4.237   8.845 -0.2779  0.0611 -0.0696
  447loPI   C5A 7147   0.791   4.183   8.445 -0.0632 -0.1470  0.0567
  447loPI   C6A 7148   1.216   4.063   8.287 -0.3640  0.0830 -0.1396
  447loPI   C1B 7149   0.157   3.995  10.058 -0.1565 -0.0408  0.2292
  447loPI   C2B 7150   0.184   3.933   9.676 -0.0234 -0.1852  0.0687
  447loPI   C3B 7151   0.227   3.934   9.227 -0.1108  0.0617  0.1042
  447loPI   C4B 7152   0.110   3.946   8.801  0.1086 -0.1881 -0.3327
  448loPI    C1 7153   0.150  10.670  11.228 -0.0622  0.0263 -0.1629
  448loPI    C2 7154   0.160  10.522  10.856  0.0513 -0.0301 -0.1380
  448loPI    C3 7155  -0.033  10.324  11.145  0.0971 -0.0665 -0.1322
  448loPI   PO4 7156   0.095  11.049  11.158  0.2919  0.3204  0.0285
  448loPI   GL1 7157  -0.008  11.123  10.689  0.1388  0.2372 -0.1996
  448loPI   GL2 7158  -0.277  11.184  10.489 -0.1903  0.2636  0.0654
  448loPI   C1A 7159  -0.016  10.710  10.426 -0.1818  0.0790  0.1997
  448loPI   C2A 7160  -0.185  10.594  10.092 -0.1886  0.0325 -0.0213
  448loPI   C3A 7161  -0.451  10.480   9.790  0.0088  0.2730  0.1345
  448loPI   C4A 7162  -0.590  10.453   9.455  0.0573 -0.2161  0.0143
  448loPI   C5A 7163  -0.756  10.584   9.114 -0.0400  0.0764 -0.1514
  448loPI   C6A 7164  -1.161  10.660   9.148 -0.2824  0.0729  0.0587
  448loPI   C1B 7165  -0.179  11.408  10.026  0.1990  0.5438  0.0051
  448loPI   C2B 7166   0.040  11.302   9.574  0.4857 -0.1029  0.2268
  448loPI   C3B 7167   0.360  11.377   9.210  0.1138  0.1362  0.1697
  448loPI   C4B 7168   0.629  11.402   8.728  0.0755 -0.2869  0.1989
  449loPI    C1 7169   1.490   7.356  10.936 -0.0782  0.0316 -0.1041
  449loPI    C2 7170   1.757   7.573  10.732  0.0268  0.1037  0.1069
  449loPI    C3 7171   1.705   7.637  11.123 -0.2400  0.0313  0.0849
  449loPI   PO4 7172   1.278   7.381  10.809 -0.1298 -0.0054  0.3027
  449loPI   GL1 7173   1.213   7.430  10.473 -0.0889  0.3924 -0.0300
  449loPI   GL2 7174   1.201   7.718  10.325  0.0262 -0.2896 -0.0614
  449loPI   C1A 7175   1.079   7.229  10.172  0.2363  0.1738 -0.0573
  449loPI   C2A 7176   1.124   7.252   9.679  0.3577 -0.1282 -0.1484
  449loPI   C3A 7177   1.076   7.276   9.267 -0.3079 -0.2302  0.3450
  449loPI   C4A 7178   1.159   7.152   8.781 -0.0847 -0.0814  0.2275
  449loPI   C5A 7179   1.105   7.323   8.373 -0.2903 -0.0034  0.2732
  449loPI   C6A 7180   0.878   7.308   8.004 -0.0660  0.0517  0.2036
  449loPI   C1B 7181   1.292   7.758   9.874 -0.0879  0.0132  0.4110
  449loPI   C2B 7182   1.262   7.763   9.421  0.0297  0.0275  0.0574
  449loPI   C3B 7183   1.057   7.739   9.084 -0.0938  0.1355 -0.3419
  449loPI   C4B 7184   1.057   7.728   8.651 -0.1915 -0.1219  0.0705
  450loPI    C1 7185   8.281   9.872  11.263  0.0594  0.1035 -0.0812
  450loPI    C2 7186   8.524  10.069  11.512  0.1470  0.1251 -0.1830
  450loPI    C3 7187   8.144  10.001  11.616  0.2755 -0.1770  0.1109
  450loPI   PO4 7188   8.359  10.023  11.044  0.4576  0.0383 -0.3456
  450loPI   GL1 7189   8.127  10.222  10.706 -0.1454 -0.0776  0.3584
  450loPI   GL2 7190   7.892  10.491  10.786  0.0902 -0.2036  0.1852
  450loPI   C1A 7191   8.310  10.241  10.316 -0.4639 -0.2114  0.0970
  450loPI   C2A 7192   8.338  10.144   9.832  0.2515  0.1867  0.2465
  450loPI   C3A 7193   8.250  10.195   9.440  0.2554 -0.0369  0.0671
  450loPI   C4A 7194   8.288  10.241   9.022  0.2084 -0.3227 -0.0609
  450loPI   C5A 7195   8.214  10.286   8.512  0.2931 -0.0950 -0.1531
  450loPI   C6A 7196   7.992  10.577   8.237  0.0383  0.0419  0.2520
  450loPI   C1B 7197   7.854  10.503  10.238  0.0195 -0.1877  0.1447
  450loPI   C2B 7198   7.909  10.605   9.798 -0.1365 -0.1650 -0.1711
  450loPI   C3B 7199   7.836  10.545   9.331 -0.1421  0.3416  0.0121
  450loPI   C4B 7200   7.889  10.488   8.925 -0.0727  0.2769  0.3214
  451loPI    C1 7201   5.437  14.769  10.704  0.2542 -0.0489 -0.2128
  451loPI    C2 7202   5.808  14.640  10.629  0.2875 -0.1008  0.0310
  451loPI    C3 7203   5.681  14.676  11.007  0.1260  0.1525 -0.0444
  451loPI   PO4 7204   5.363  14.896  10.408 -0.1325  0.0705  0.0639
  451loPI   GL1 7205   5.347  14.885   9.856  0.1148 -0.3094 -0.2291
  451loPI   GL2 7206   5.584  15.015   9.720  0.1186 -0.0933 -0.2558
  451loPI   C1A 7207   5.128  14.678   9.523  0.0546  0.2454  0.1377
  451loPI   C2A 7208   5.049  14.683   9.192  0.2325 -0.1208 -0.2316
  451loPI   C3A 7209   5.103  14.529   8.707  0.3444 -0.0548  0.1918
  451loPI   C4A 7210   5.096  14.338   8.348  0.2931  0.4225  0.1465
  451loPI   C5A 7211   5.068  13.935   8.177 -0.0846  0.0572 -0.2087
  451loPI   C6A 7212   4.758  13.626   7.926 -0.1828 -0.0852 -0.3862
  451loPI   C1B 7213   5.551  14.869   9.238  0.0432 -0.2567 -0.2196
  451loPI   C2B 7214   5.671  14.804   8.836  0.0907 -0.0879 -0.0718
  451loPI   C3B 7215   5.571  14.668   8.541 -0.0400  0.1222 -0.0451
  451loPI   C4B 7216   5.464  14.714   8.120  0.1976  0.0384  0.0972
  452loPI    C1 7217  14.195  12.954  10.772  0.0340 -0.1418  0.0627
  452loPI    C2 7218  13.949  13.199  10.970  0.0489 -0.0979  0.0270
  452loPI    C3 7219  14.079  12.862  11.143 -0.0380 -0.1223  0.0451
  452loPI   PO4 7220  14.270  13.119  10.585 -0.1217  0.0660  0.0507
  452loPI   GL1 7221  14.180  13.098  10.240 -0.3388  0.2206 -0.0097
  452loPI   GL2 7222  14.488  13.302  10.096  0.0628  0.0118  0.0214
  452loPI   C1A 7223  13.997  13.207   9.840 -0.1819  0.0919  0.0871
  452loPI   C2A 7224  14.008  12.944   9.480 -0.2773 -0.0586 -0.1661
  452loPI   C3A 7225  14.237  12.673   9.324  0.1365 -0.0567 -0.1928
  452loPI   C4A 7226  14.415  12.385   8.925  0.2082 -0.2407 -0.2564
  452loPI   C5A 7227  14.629  12.364   8.673  0.0088  0.2687  0.2192
  452loPI   C6A 7228  14.818  12.635   8.441 -0.1214  0.2162 -0.0333
  452loPI   C1B 7229  14.437  13.381   9.644 -0.0390  0.1295  0.3363
  452loPI   C2B 7230  14.394  13.201   9.176  0.0749  0.0413  0.0698
  452loPI   C3B 7231  14.222  13.016   8.877  0.0261  0.0960  0.0653
  452loPI   C4B 7232  14.137  12.692   8.592 -0.0763 -0.0610 -0.1723
  453loPI    C1 7233  12.040   3.804  11.017 -0.1661 -0.1312  0.0463
  453loPI    C2 7234  11.722   3.597  11.144 -0.2108 -0.0171  0.1229
  453loPI    C3 7235  12.062   3.591  11.354 -0.2550  0.0961  0.1987
  453loPI   PO4 7236  11.994   3.944  10.909  0.2188  0.1580  0.1371
  453loPI   GL1 7237  12.115   4.109  10.558  0.1050  0.1573  0.1673
  453loPI   GL2 7238  12.125   4.360  10.599  0.0234  0.2118 -0.1108
  453loPI   C1A 7239  12.195   4.003  10.189  0.1187  0.0492  0.0673
  453loPI   C2A 7240  12.121   3.945   9.801 -0.1901 -0.0725 -0.0539
  453loPI   C3A 7241  12.017   3.998   9.471  0.0607  0.2437 -0.0324
  453loPI   C4A 7242  12.073   4.155   9.075 -0.0058 -0.3136  0.0667
  453loPI   C5A 7243  12.248   4.251   8.690 -0.1483  0.1580 -0.1668
  453loPI   C6A 7244  12.328   4.618   8.493  0.0393  0.1225  0.1177
  453loPI   C1B 7245  12.217   4.480  10.216  0.0091  0.3503  0.0036
  453loPI   C2B 7246  12.190   4.544   9.835 -0.1316 -0.0171 -0.0839
  453loPI   C3B 7247  12.081   4.605   9.398 -0.2156  0.0959 -0.0468
  453loPI   C4B 7248  12.115   4.649   8.948  0.1015  0.0335  0.0591
  454loPI    C1 7249   7.579   9.911  10.961  0.2057  0.0575 -0.0333
  454loPI    C2 7250   7.784  10.091  11.254  0.0427 -0.0023  0.1197
  454loPI    C3 7251   7.437   9.910  11.335  0.0624 -0.1362 -0.0868
  454loPI   PO4 7252   7.572  10.117  10.731  0.3058 -0.1974 -0.1075
  454loPI   GL1 7253   7.359  10.044  10.460  0.1098 -0.5362  0.3873
  454loPI   GL2 7254   7.005  10.196  10.405  0.2172 -0.3510 -0.0139
  454loPI   C1A 7255   7.303   9.790  10.154 -0.0824  0.0621 -0.0773
  454loPI   C2A 7256   7.326   9.737   9.732 -0.2908 -0.3874  0.0868
  454loPI   C3A 7257   7.274   9.875   9.294 -0.4336 -0.0409  0.1346
  454loPI   C4A 7258   7.335   9.809   8.875 -0.0147  0.0022  0.4450
  454loPI   C5A 7259   7.402   9.779   8.481 -0.1708 -0.1572  0.0277
  454loPI   C6A 7260   7.227   9.882   8.192 -0.2212 -0.0018  0.0679
  454loPI   C1B 7261   6.981  10.145   9.947  0.0902 -0.1478 -0.3812
  454loPI   C2B 7262   6.944  10.138   9.541 -0.4526  0.1980 -0.0646
  454loPI   C3B 7263   6.891  10.106   9.045 -0.3230  0.0416 -0.0850
  454loPI   C4B 7264   6.939  10.119   8.659 -0.1771 -0.0656 -0.1275
  455loPI    C1 7265  11.937   9.091  11.518  0.0106 -0.2016  0.2686
  455loPI    C2 7266  11.746   9.427  11.621 -0.0231 -0.1337 -0.0070
  455loPI    C3 7267  11.562   9.073  11.653 -0.1002 -0.0946 -0.0166
  455loPI   PO4 7268  11.937   9.217  11.208 -0.1219 -0.1952  0.2975
  455loPI   GL1 7269  11.971   9.034  10.825  0.1377  0.1272 -0.0374
  455loPI   GL2 7270  11.716   8.865  10.624 -0.0998 -0.2056 -0.1319
  455loPI   C1A 7271  12.178   9.060  10.414 -0.0179  0.2076  0.3317
  455loPI   C2A 7272  12.336   8.932  10.017 -0.1778 -0.2161 -0.1877
  455loPI   C3A 7273  12.389   8.963   9.607  0.0108 -0.0735 -0.1424
  455loPI   C4A 7274  12.334   8.913   9.224 -0.1402 -0.4396 -0.2051
  455loPI   C5A 7275  12.333   9.002   8.761  0.1406  0.1183  0.0042
  455loPI   C6A 7276  12.014   8.999   8.386 -0.0104 -0.0576 -0.1234
  455loPI   C1B 7277  11.846   8.751  10.186  0.0893 -0.0751  0.2956
  455loPI   C2B 7278  11.844   8.749   9.807  0.1909  0.0422  0.1813
  455loPI   C3B 7279  11.867   8.703   9.381 -0.4905 -0.1405  0.1829
  455loPI   C4B 7280  11.918   8.790   8.999 -0.0009 -0.0710  0.0079
  456loPI    C1 7281  11.371   1.034  10.955  0.2013 -0.0939 -0.0498
  456loPI    C2 7282  11.724   1.215  10.907  0.1460  0.0474  0.0699
  456loPI    C3 7283  11.597   1.117  11.274  0.0931 -0.0691  0.0211
  456loPI   PO4 7284  11.315   0.984  10.711 -0.0554 -0.1386  0.0974
  456loPI   GL1 7285  11.279   1.173  10.322  0.0520 -0.2473  0.0008
  456loPI   GL2 7286  11.581   1.337  10.404 -0.1577  0.0088 -0.2565
  456loPI   C1A 7287  11.343   0.951   9.918  0.1183 -0.3979  0.0597
  456loPI   C2A 7288  11.457   0.734   9.531 -0.0208  0.0216  0.1292
  456loPI   C3A 7289  11.434   0.514   9.105 -0.1100 -0.2637 -0.3515
  456loPI   C4A 7290  11.067   0.547   8.786  0.1315 -0.0681 -0.2281
  456loPI   C5A 7291  10.864   0.564   8.292 -0.1017  0.0307 -0.0798
  456loPI   C6A 7292  10.579   0.369   8.036  0.0668 -0.0657  0.1138
  456loPI   C1B 7293  11.725   1.307   9.910  0.3757  0.2868  0.0250
  456loPI   C2B 7294  11.749   1.360   9.449  0.0990  0.0642  0.2871
  456loPI   C3B 7295  11.622   1.381   8.976 -0.0576 -0.0602 -0.0320
  456loPI   C4B 7296  11.453   1.828   8.837  0.0406 -0.0309 -0.1045
  457loPI    C1 7297   2.655   3.205  10.875  0.2431 -0.2857 -0.0546
  457loPI    C2 7298   2.503   3.015  11.192  0.2442 -0.0783  0.0715
  457loPI    C3 7299   2.844   3.221  11.227  0.1296  0.1281 -0.0081
  457loPI   PO4 7300   2.671   2.993  10.631  0.0571 -0.0943  0.1045
  457loPI   GL1 7301   2.311   2.744  10.405  0.0405 -0.0986  0.1003
  457loPI   GL2 7302   2.413   2.546  10.296  0.0971 -0.1309  0.0159
  457loPI   C1A 7303   2.384   2.937   9.985 -0.0193 -0.0507 -0.3707
  457loPI   C2A 7304   2.203   2.849   9.616  0.0269  0.2262  0.2198
  457loPI   C3A 7305   1.895   2.808   9.334 -0.0834  0.0345 -0.0098
  457loPI   C4A 7306   1.763   2.642   8.907  0.1611  0.0904  0.0478
  457loPI   C5A 7307   1.615   2.627   8.446 -0.4747  0.1411  0.0920
  457loPI   C6A 7308   1.270   2.705   8.160  0.1313 -0.0600 -0.0697
  457loPI   C1B 7309   2.372   2.281   9.979  0.2723  0.2529 -0.2435
  457loPI   C2B 7310   2.513   2.118   9.734 -0.0202  0.0421 -0.1752
  457loPI   C3B 7311   2.666   1.788   9.466 -0.0600 -0.4194 -0.4727
  457loPI   C4B 7312   2.684   1.781   9.067 -0.1516 -0.2434  0.0088
  458loPI    C1 7313   8.018   1.902  10.744 -0.2212 -0.0465 -0.1485
  458loPI    C2 7314   7.835   1.703  11.039 -0.0125 -0.1204 -0.0670
  458loPI    C3 7315   8.221   1.633  10.960 -0.1200 -0.2579 -0.4985
  458loPI   PO4 7316   7.860   1.852  10.533  0.1533  0.0266 -0.2362
  458loPI   GL1 7317   7.807   1.978  10.191  0.4111  0.2438  0.1049
  458loPI   GL2 7318   7.949   2.204  10.097  0.1620  0.1032 -0.1364
  458loPI   C1A 7319   7.566   1.860   9.837  0.3333 -0.1670  0.4634
  458loPI   C2A 7320   7.602   1.856   9.392  0.0815 -0.0416 -0.1627
  458loPI   C3A 7321   7.433   1.867   8.949 -0.0759  0.0925  0.1273
  458loPI   C4A 7322   7.406   2.012   8.502 -0.1365 -0.0036  0.1643
  458loPI   C5A 7323   7.226   1.778   8.180 -0.0150 -0.0093 -0.2657
  458loPI   C6A 7324   6.983   2.027   7.833 -0.1307 -0.1696  0.3990
  458loPI   C1B 7325   7.918   2.217   9.663 -0.0017  0.0961  0.1029
  458loPI   C2B 7326   8.041   2.472   9.245  0.1303 -0.0765  0.0460
  458loPI   C3B 7327   8.073   2.537   8.803 -0.0153 -0.0551 -0.0242
  458loPI   C4B 7328   8.008   2.878   8.415  0.1932  0.0171  0.1167
  459loPI    C1 7329   0.059  11.602  10.991 -0.1387 -0.0537  0.0033
  459loPI    C2 7330  -0.261  11.775  11.156 -0.0871  0.0753 -0.0302
  459loPI    C3 7331  -0.072  11.480  11.348 -0.2942 -0.0805 -0.0617
  459loPI   PO4 7332  -0.015  11.658  10.728 -0.2384  0.0010  0.0749
  459loPI   GL1 7333  -0.199  11.842  10.494  0.2431 -0.0557  0.1324
  459loPI   GL2 7334  -0.088  12.118  10.479  0.2864 -0.1784  0.0136
  459loPI   C1A 7335  -0.373  11.852  10.077 -0.1729  0.1994  0.1051
  459loPI   C2A 7336  -0.244  11.914   9.578 -0.0948 -0.0391 -0.1572
  459loPI   C3A 7337  -0.073  11.681   9.223  0.0195 -0.0538  0.0386
  459loPI   C4A 7338  -0.103  11.282   8.972 -0.0593  0.0980  0.0701
  459loPI   C5A 7339  -0.175  11.331   8.533  0.0168 -0.1306 -0.0186
  459loPI   C6A 7340  -0.106  11.405   8.073  0.0137 -0.0833  0.0675
  459loPI   C1B 7341   0.018  12.193  10.041 -0.0099 -0.4099  0.2450
  459loPI   C2B 7342   0.255  12.236   9.613  0.2360  0.0751  0.0289
  459loPI   C3B 7343   0.433  12.454   9.419  0.1390 -0.0241 -0.0898
  459loPI   C4B 7344   0.394  12.494   9.013 -0.0599  0.0987 -0.2294
  460loPI    C1 7345   7.776  16.224  10.824  0.0070  0.2057 -0.1938
  460loPI    C2 7346   8.098  16.281  11.054  0.0905  0.0112 -0.2606
  460loPI    C3 7347   7.743  16.205  11.222  0.1405 -0.0775 -0.1942
  460loPI   PO4 7348   7.880  16.403  10.617 -0.0299  0.1804  0.0520
  460loPI   GL1 7349   7.976  16.364  10.234  0.1055  0.0536 -0.2655
  460loPI   GL2 7350   7.972  16.629   9.987 -0.2598  0.2414  0.0940
  460loPI   C1A 7351   8.150  16.164  10.041  0.0918 -0.3463 -0.0826
  460loPI   C2A 7352   8.044  16.227   9.619 -0.4453  0.4775  0.1206
  460loPI   C3A 7353   8.060  16.421   9.152  0.0125  0.3078  0.0611
  460loPI   C4A 7354   8.306  16.402   8.729  0.1984 -0.1960 -0.3098
  460loPI   C5A 7355   8.322  16.431   8.290 -0.2938  0.1069 -0.1073
  460loPI   C6A 7356   8.620  16.461   7.909  0.3386  0.1018  0.0267
  460loPI   C1B 7357   8.138  16.710   9.600 -0.0987 -0.1713 -0.2904
  460loPI   C2B 7358   8.264  16.850   9.289 -0.1028 -0.1297 -0.0267
  460loPI   C3B 7359   8.361  16.848   8.914 -0.1529  0.2381  0.0130
  460loPI   C4B 7360   8.428  17.002   8.530 -0.0131 -0.1860 -0.1012
  461loPI    C1 7361  12.811   6.850  11.425 -0.2091 -0.0395  0.3646
  461loPI    C2 7362  12.994   6.497  11.462  0.0706  0.0574 -0.0309
  461loPI    C3 7363  13.093   6.799  11.705 -0.0036 -0.0660  0.1554
  461loPI   PO4 7364  12.825   6.914  11.235  0.1912 -0.0962 -0.1130
  461loPI   GL1 7365  12.773   6.737  10.818  0.3972 -0.1671 -0.2141
  461loPI   GL2 7366  13.001   6.488  10.993  0.1329  0.0528  0.2062
  461loPI   C1A 7367  12.625   6.565  10.427 -0.2521 -0.3619 -0.0606
  461loPI   C2A 7368  12.500   6.635  10.031 -0.0086  0.2475  0.0468
  461loPI   C3A 7369  12.422   6.667   9.625 -0.1577 -0.0794 -0.0425
  461loPI   C4A 7370  12.430   6.596   9.204  0.1136  0.1438 -0.0753
  461loPI   C5A 7371  12.635   6.587   8.811 -0.0993  0.2294 -0.1086
  461loPI   C6A 7372  13.010   6.592   8.575  0.1841 -0.0407 -0.1151
  461loPI   C1B 7373  13.042   6.363  10.625  0.4686  0.3346 -0.0025
  461loPI   C2B 7374  12.995   6.280  10.172 -0.0948 -0.0104  0.2558
  461loPI   C3B 7375  12.793   6.258   9.772  0.0601  0.0390  0.4238
  461loPI   C4B 7376  12.870   6.294   9.352 -0.2456 -0.0637  0.1053
  462loPI    C1 7377  11.137   8.280  11.644  0.2209  0.0238  0.1695
  462loPI    C2 7378  11.131   8.048  11.970  0.3944  0.0507  0.1930
  462loPI    C3 7379  11.337   8.391  11.972  0.1062  0.2281  0.1722
  462loPI   PO4 7380  11.110   8.148  11.349 -0.2620 -0.0390 -0.0689
  462loPI   GL1 7381  11.000   8.151  10.896 -0.3307 -0.2644 -0.0818
  462loPI   GL2 7382  10.680   8.265  10.922 -0.4107 -0.0301 -0.4402
  462loPI   C1A 7383  10.872   7.977  10.497  0.0612  0.3041  0.1015
  462loPI   C2A 7384  10.875   7.854  10.097  0.0015 -0.2250  0.1200
  462loPI   C3A 7385  10.865   7.793   9.668  0.1693  0.1216 -0.0178
  462loPI   C4A 7386  10.785   7.846   9.274  0.1112  0.0890  0.0564
  462loPI   C5A 7387  10.613   7.957   8.890 -0.0624 -0.0943  0.1707
  462loPI   C6A 7388  10.798   8.064   8.582  0.1818 -0.6025 -0.0185
  462loPI   C1B 7389  10.434   8.230  10.549 -0.3565  0.0218 -0.0016
  462loPI   C2B 7390  10.381   8.252  10.052  0.3457  0.2329 -0.1554
  462loPI   C3B 7391  10.424   8.229   9.642 -0.0426 -0.2331  0.2293
  462loPI   C4B 7392  10.358   8.259   9.229  0.0837 -0.1723  0.0951
  463loPI    C1 7393  15.281   8.358  11.157 -0.0136  0.0714 -0.2254
  463loPI    C2 7394  14.894   8.334  11.254  0.0398  0.2915  0.0568
  463loPI    C3 7395  15.173   8.339  11.541  0.2294  0.5201 -0.1268
  463loPI   PO4 7396  15.278   8.135  10.878  0.0583 -0.1178 -0.0377
  463loPI   GL1 7397  15.401   7.865  10.573 -0.3666 -0.0031 -0.0648
  463loPI   GL2 7398  15.298   7.588  10.558 -0.2635 -0.0204  0.0847
  463loPI   C1A 7399  15.356   7.786  10.104 -0.0316  0.0630  0.0680
  463loPI   C2A 7400  15.316   7.728   9.734  0.0006 -0.1386 -0.0256
  463loPI   C3A 7401  15.355   7.686   9.314  0.1513  0.2080 -0.1244
  463loPI   C4A 7402  15.410   7.617   8.798  0.2434  0.0631 -0.3356
  463loPI   C5A 7403  15.402   7.397   8.418 -0.0147  0.0245 -0.1164
  463loPI   C6A 7404  15.055   7.387   8.236 -0.0368  0.0180  0.0717
  463loPI   C1B 7405  15.221   7.243  10.108  0.1342  0.0567  0.0678
  463loPI   C2B 7406  15.346   7.207   9.627  0.2320  0.1080 -0.0117
  463loPI   C3B 7407  15.287   7.242   9.202  0.0178  0.1085  0.3301
  463loPI   C4B 7408  15.283   7.088   8.862  0.2499 -0.2157 -0.2182
  464loPI    C1 7409   3.811  17.089  10.410  0.1304  0.0306  0.0920
  464loPI    C2 7410   4.097  17.176  10.144 -0.0212  0.4604  0.0604
  464loPI    C3 7411   4.115  17.329  10.513 -0.0142  0.1782  0.1797
  464loPI   PO4 7412   3.598  17.171  10.273  0.1413  0.1728 -0.2262
  464loPI   GL1 7413   3.357  17.388   9.884  0.0923  0.1122 -0.0860
  464loPI   GL2 7414   3.364  17.661   9.993 -0.2856  0.1811  0.1213
  464loPI   C1A 7415   3.458  17.495   9.458  0.0667  0.0974  0.3121
  464loPI   C2A 7416   3.406  17.525   9.045  0.0216  0.1433  0.1497
  464loPI   C3A 7417   3.312  17.671   8.634 -0.1842  0.0328 -0.0193
  464loPI   C4A 7418   3.585  17.677   8.283 -0.2101 -0.3686  0.0302
  464loPI   C5A 7419   3.790  17.453   8.016  0.2496  0.0905  0.0085
  464loPI   C6A 7420   3.785  17.043   8.090  0.4296  0.1788 -0.2588
  464loPI   C1B 7421   3.134  17.850   9.693  0.2302 -0.2249 -0.0724
  464loPI   C2B 7422   3.057  17.847   9.162  0.1582 -0.1888 -0.0437
  464loPI   C3B 7423   2.897  17.923   8.756  0.1019 -0.0722  0.0631
  464loPI   C4B 7424   2.955  17.794   8.295  0.1051 -0.0280 -0.1346
  465loPI    C1 7425   7.128  13.233  10.721  0.2566  0.1371 -0.0749
  465loPI    C2 7426   6.869  13.338  11.007  0.1092 -0.1972 -0.0810
  465loPI    C3 7427   7.261  13.397  11.061  0.0573  0.0416  0.0508
  465loPI   PO4 7428   7.035  13.320  10.538  0.1706 -0.1291  0.4504
  465loPI   GL1 7429   6.983  13.251  10.201 -0.0179  0.0860 -0.3184
  465loPI   GL2 7430   6.886  13.388   9.948  0.2390 -0.0375 -0.2143
  465loPI   C1A 7431   7.072  12.974   9.750  0.1854 -0.1102  0.3021
  465loPI   C2A 7432   7.104  12.927   9.294  0.2055  0.3024 -0.0847
  465loPI   C3A 7433   7.234  13.170   8.929 -0.0960  0.1990 -0.0178
  465loPI   C4A 7434   7.219  13.481   8.548  0.2251  0.0597 -0.2101
  465loPI   C5A 7435   6.911  13.635   8.280 -0.0726  0.1867  0.0429
  465loPI   C6A 7436   6.592  13.600   8.195  0.1579  0.4141 -0.1264
  465loPI   C1B 7437   6.938  13.462   9.503  0.1638  0.1353 -0.0401
  465loPI   C2B 7438   6.857  13.489   9.071 -0.2285 -0.0119  0.1334
  465loPI   C3B 7439   6.892  13.757   8.770  0.0656 -0.1249  0.0355
  465loPI   C4B 7440   7.213  13.976   8.555 -0.3662 -0.1522  0.1387
  466loPI    C1 7441  13.808  14.499  10.687  0.1670  0.1114  0.1259
  466loPI    C2 7442  13.819  14.202  10.955 -0.0489  0.0721  0.0926
  466loPI    C3 7443  13.902  14.577  11.068  0.1171  0.0167  0.1577
  466loPI   PO4 7444  13.928  14.415  10.475  0.0959  0.0332 -0.2448
  466loPI   GL1 7445  14.365  14.445  10.363  0.0332  0.1459 -0.1351
  466loPI   GL2 7446  14.259  14.678  10.155  0.3816  0.4511 -0.0245
  466loPI   C1A 7447  14.550  14.372   9.967 -0.0731  0.0749  0.0055
  466loPI   C2A 7448  14.651  14.580   9.584  0.0934  0.2297  0.1736
  466loPI   C3A 7449  14.610  14.670   9.195  0.0748 -0.0417 -0.0424
  466loPI   C4A 7450  14.394  14.856   8.871  0.0046 -0.0532  0.0301
  466loPI   C5A 7451  14.329  15.073   8.506 -0.1723 -0.1163  0.0104
  466loPI   C6A 7452  14.553  15.290   8.182  0.1547 -0.0536 -0.1173
  466loPI   C1B 7453  14.160  14.732   9.716 -0.1867 -0.1939  0.1485
  466loPI   C2B 7454  14.038  14.794   9.238  0.0083 -0.1463  0.0509
  466loPI   C3B 7455  14.021  14.561   8.782  0.2568  0.2247 -0.0281
  466loPI   C4B 7456  14.096  14.692   8.403  0.4172 -0.0510  0.1350
  467loPI    C1 7457   2.636   8.674  11.030 -0.1370  0.0323  0.1022
  467loPI    C2 7458   2.946   8.671  11.283 -0.1026  0.2890  0.0656
  467loPI    C3 7459   2.690   8.364  11.277  0.1614  0.0649  0.0813
  467loPI   PO4 7460   2.679   8.679  10.708  0.1249  0.2250  0.2239
  467loPI   GL1 7461   2.563   8.509  10.413 -0.2934  0.0941 -0.3978
  467loPI   GL2 7462   2.629   8.216  10.289 -0.1253  0.2057 -0.2917
  467loPI   C1A 7463   2.350   8.573  10.022  0.1110 -0.2727 -0.1880
  467loPI   C2A 7464   2.246   8.731   9.570  0.3989  0.1313  0.0758
  467loPI   C3A 7465   2.338   8.630   9.125 -0.0815  0.0126  0.1732
  467loPI   C4A 7466   2.170   8.669   8.786  0.0584 -0.1827 -0.2714
  467loPI   C5A 7467   2.025   8.792   8.452  0.1042 -0.0743  0.2087
  467loPI   C6A 7468   1.990   9.100   8.211  0.0517  0.0178  0.2367
  467loPI   C1B 7469   2.667   8.283   9.843 -0.0493  0.3108  0.0602
  467loPI   C2B 7470   2.705   8.382   9.429 -0.0206  0.0195  0.1439
  467loPI   C3B 7471   2.753   8.346   8.976 -0.1505  0.1600  0.0323
  467loPI   C4B 7472   2.587   8.304   8.703 -0.1540  0.0355  0.1569
  468loPI    C1 7473   1.999   6.645  11.357  0.1105 -0.0949  0.0132
  468loPI    C2 7474   2.139   6.992  11.498 -0.1756  0.0779 -0.1192
  468loPI    C3 7475   1.856   6.794  11.699  0.1903 -0.2301  0.1064
  468loPI   PO4 7476   2.064   6.695  11.132 -0.1181  0.2577  0.3715
  468loPI   GL1 7477   1.952   6.716  10.714  0.0292  0.1623  0.4137
  468loPI   GL2 7478   1.781   6.495  10.792 -0.0484  0.2963 -0.1096
  468loPI   C1A 7479   1.980   6.928  10.273 -0.0499 -0.1855 -0.1211
  468loPI   C2A 7480   2.016   7.108   9.844  0.3422 -0.4437  0.0576
  468loPI   C3A 7481   1.919   7.121   9.393 -0.1503  0.2101 -0.1773
  468loPI   C4A 7482   2.012   7.144   8.897  0.1405 -0.0354  0.0133
  468loPI   C5A 7483   2.031   7.035   8.515 -0.1390  0.1133 -0.1344
  468loPI   C6A 7484   2.279   7.007   8.042  0.2332  0.2092  0.0767
  468loPI   C1B 7485   1.585   6.563  10.386 -0.0188 -0.1339 -0.0205
  468loPI   C2B 7486   1.591   6.397   9.965  0.1234  0.0127 -0.0528
  468loPI   C3B 7487   1.414   6.336   9.552  0.0369  0.2212 -0.0368
  468loPI   C4B 7488   1.449   6.351   9.039 -0.1242  0.1267  0.0020
  469loPI    C1 7489   4.302   9.227  10.832 -0.0576  0.1599 -0.1204
  469loPI    C2 7490   3.913   9.150  10.781 -0.0777  0.2505 -0.1049
  469loPI    C3 7491   4.091   9.060  11.128 -0.0793  0.1873 -0.1203
  469loPI   PO4 7492   4.377   9.211  10.551 -0.4497  0.1501 -0.0348
  469loPI   GL1 7493   4.310   8.964  10.278  0.1647  0.2246  0.1263
  469loPI   GL2 7494   4.451   8.634  10.277 -0.2491 -0.2030  0.1178
  469loPI   C1A 7495   4.168   8.887   9.903  0.0354 -0.3357 -0.0014
  469loPI   C2A 7496   3.999   8.810   9.458 -0.0645  0.2001  0.2350
  469loPI   C3A 7497   4.099   8.957   9.031  0.0807  0.2396 -0.0008
  469loPI   C4A 7498   4.033   8.903   8.646 -0.2764  0.1487 -0.3125
  469loPI   C5A 7499   4.025   8.626   8.269  0.0640 -0.1003 -0.3154
  469loPI   C6A 7500   3.807   8.308   8.107 -0.2334 -0.1855  0.1122
  469loPI   C1B 7501   4.604   8.635   9.912 -0.1812 -0.2177 -0.1880
  469loPI   C2B 7502   4.492   8.689   9.477  0.1636 -0.0854  0.0717
  469loPI   C3B 7503   4.535   8.634   9.081 -0.1666  0.0714  0.0836
  469loPI   C4B 7504   4.482   8.667   8.603 -0.0444  0.3996 -0.1558
  470loPI    C1 7505   8.279   6.703  11.701 -0.1592  0.2100  0.0191
  470loPI    C2 7506   8.124   6.626  12.062  0.2211 -0.0672  0.1299
  470loPI    C3 7507   8.264   6.991  11.979  0.0764  0.0145  0.2399
  470loPI   PO4 7508   8.095   6.608  11.492  0.1504  0.3215  0.0797
  470loPI   GL1 7509   8.227   6.591  11.048  0.0413 -0.1088 -0.2510
  470loPI   GL2 7510   8.376   6.779  10.887  0.1384 -0.1015 -0.0788
  470loPI   C1A 7511   8.035   6.471  10.598 -0.0001  0.2672 -0.2002
  470loPI   C2A 7512   7.885   6.587  10.231  0.1865 -0.3017  0.1227
  470loPI   C3A 7513   7.908   6.659   9.853 -0.3035  0.2715  0.1079
  470loPI   C4A 7514   7.926   6.784   9.509 -0.0880 -0.2138 -0.1535
  470loPI   C5A 7515   7.967   6.703   9.097 -0.3091  0.0768  0.1786
  470loPI   C6A 7516   7.965   6.800   8.646  0.2407  0.0785  0.1069
  470loPI   C1B 7517   8.357   6.799  10.439  0.0330  0.3500  0.1117
  470loPI   C2B 7518   8.396   6.775   9.949 -0.1107 -0.1414 -0.0610
  470loPI   C3B 7519   8.428   6.930   9.481 -0.0425 -0.3353 -0.0326
  470loPI   C4B 7520   8.401   6.923   9.105 -0.0571  0.0172  0.0444
  471loPI    C1 7521  17.429   4.838  11.148 -0.0389  0.0040  0.1281
  471loPI    C2 7522  17.071   4.866  11.325 -0.1604 -0.0004 -0.1133
  471loPI    C3 7523  17.404   4.880  11.545 -0.2969  0.3630  0.0790
  471loPI   PO4 7524  17.412   5.003  10.969 -0.0586 -0.3785 -0.2185
  471loPI   GL1 7525  17.683   5.050  10.578  0.4352 -0.0526 -0.0509
  471loPI   GL2 7526  17.517   4.839  10.442 -0.2215 -0.0747 -0.1025
  471loPI   C1A 7527  17.761   5.283  10.283  0.1366 -0.1528  0.0314
  471loPI   C2A 7528  17.762   5.360   9.838 -0.1534 -0.1375 -0.2107
  471loPI   C3A 7529  17.776   5.201   9.386 -0.0910 -0.0945  0.0433
  471loPI   C4A 7530  17.831   5.254   8.990  0.1217 -0.5036  0.1477
  471loPI   C5A 7531  17.862   5.368   8.597 -0.0695  0.0806 -0.1761
  471loPI   C6A 7532  18.271   5.343   8.260 -0.0507 -0.1953 -0.1899
  471loPI   C1B 7533  17.694   4.829  10.046  0.0059  0.1347  0.3496
  471loPI   C2B 7534  17.679   4.760   9.672  0.1144 -0.0191 -0.0235
  471loPI   C3B 7535  17.782   4.763   9.206  0.0499  0.2235  0.1075
  471loPI   C4B 7536  17.737   4.738   8.823 -0.1193  0.0675 -0.0649
  472loPI    C1 7537   8.000  16.987  10.669  0.0289  0.1059 -0.1425
  472loPI    C2 7538   8.227  16.815  10.950 -0.1498  0.0199 -0.0490
  472loPI    C3 7539   8.186  17.213  10.942 -0.0948  0.0270  0.0090
  472loPI   PO4 7540   8.084  16.873  10.432  0.0964 -0.1277  0.0152
  472loPI   GL1 7541   8.409  16.713  10.228 -0.1722 -0.2622  0.0349
  472loPI   GL2 7542   8.394  16.991  10.009 -0.1321  0.1219 -0.0971
  472loPI   C1A 7543   8.544  16.507   9.825  0.1744  0.2413 -0.0896
  472loPI   C2A 7544   8.561  16.457   9.434 -0.2164 -0.1222  0.1887
  472loPI   C3A 7545   8.567  16.097   9.199  0.4558  0.0441 -0.1331
  472loPI   C4A 7546   8.649  15.975   8.744  0.2673 -0.2932  0.0588
  472loPI   C5A 7547   8.868  16.162   8.333 -0.1922  0.1124  0.0068
  472loPI   C6A 7548   9.058  16.211   7.896  0.0038 -0.5440 -0.5386
  472loPI   C1B 7549   8.372  17.246   9.641 -0.1347  0.1702 -0.0892
  472loPI   C2B 7550   8.389  17.391   9.211  0.1346 -0.0594 -0.1066
  472loPI   C3B 7551   8.500  17.355   8.870  0.1218 -0.4071 -0.1593
  472loPI   C4B 7552   8.606  17.655   8.507  0.2366  0.2343  0.0182
  473loPI    C1 7553   2.086   1.257  10.810  0.2058  0.1542  0.1191
  473loPI    C2 7554   1.797   1.199  11.080 -0.0517 -0.0368 -0.1915
  473loPI    C3 7555   2.154   1.337  11.197 -0.2605  0.1930  0.1983
  473loPI   PO4 7556   2.116   1.056  10.611 -0.1538 -0.0860 -0.1393
  473loPI   GL1 7557   2.353   1.084  10.244 -0.3992 -0.1679  0.1277
  473loPI   GL2 7558   2.545   1.265  10.140  0.0590  0.0051 -0.0421
  473loPI   C1A 7559   2.332   0.930   9.834  0.0454  0.2526 -0.0358
  473loPI   C2A 7560   2.430   0.823   9.427 -0.1558  0.0793  0.0979
  473loPI   C3A 7561   2.470   0.525   9.079  0.1471  0.0388 -0.1595
  473loPI   C4A 7562   2.562   0.474   8.652  0.0571  0.0442 -0.1649
  473loPI   C5A 7563   2.826   0.459   8.362  0.1015  0.2937  0.1288
  473loPI   C6A 7564   2.646   0.624   7.986 -0.0879 -0.0738  0.1324
  473loPI   C1B 7565   2.539   1.377   9.705 -0.1018  0.1485  0.1992
  473loPI   C2B 7566   2.552   1.268   9.231  0.0850 -0.0524 -0.3362
  473loPI   C3B 7567   2.611   1.382   8.761 -0.3974  0.2045 -0.0036
  473loPI   C4B 7568   2.974   1.497   8.577  0.0718  0.0387  0.1542
  474loPI    C1 7569   1.086   2.579  11.071 -0.0794 -0.1360 -0.0307
  474loPI    C2 7570   1.371   2.634  11.347 -0.1532 -0.0459  0.0284
  474loPI    C3 7571   1.017   2.814  11.387 -0.1339  0.0392 -0.1714
  474loPI   PO4 7572   1.021   2.265  11.012  0.1688  0.0118 -0.0740
  474loPI   GL1 7573   1.058   2.018  10.544  0.0307 -0.0680 -0.0737
  474loPI   GL2 7574   1.151   2.363  10.465  0.0950  0.2503  0.2107
  474loPI   C1A 7575   1.144   1.909  10.119  0.0341  0.4389  0.0836
  474loPI   C2A 7576   1.250   1.887   9.740  0.2939  0.2963 -0.0492
  474loPI   C3A 7577   1.205   1.987   9.191 -0.2606  0.1961  0.2807
  474loPI   C4A 7578   1.256   1.950   8.732  0.1471  0.0912  0.0652
  474loPI   C5A 7579   1.325   2.075   8.427  0.2008 -0.1476 -0.1082
  474loPI   C6A 7580   1.627   2.140   8.264  0.1108  0.3103  0.1925
  474loPI   C1B 7581   1.359   2.352  10.018  0.1861 -0.0301  0.0001
  474loPI   C2B 7582   1.388   2.537   9.586 -0.0972  0.0720 -0.0256
  474loPI   C3B 7583   1.283   2.496   9.119  0.1379  0.1166  0.1811
  474loPI   C4B 7584   1.234   2.459   8.706 -0.0793 -0.3683  0.0521
  475loPI    C1 7585   9.426   2.410  11.045  0.1085 -0.0173 -0.2591
  475loPI    C2 7586   9.765   2.555  11.199 -0.1062  0.0939  0.1230
  475loPI    C3 7587   9.619   2.207  11.330 -0.0587 -0.0343 -0.1569
  475loPI   PO4 7588   9.502   2.382  10.761 -0.1942 -0.0395 -0.2950
  475loPI   GL1 7589   9.478   2.531  10.374  0.1335 -0.0437  0.3509
  475loPI   GL2 7590   9.301   2.296  10.203  0.0414  0.3157 -0.0863
  475loPI   C1A 7591   9.637   2.587   9.960  0.0328  0.1378 -0.0904
  475loPI   C2A 7592   9.464   2.638   9.568 -0.0952 -0.4059 -0.0572
  475loPI   C3A 7593   9.289   2.750   9.179  0.1634 -0.0623  0.2121
  475loPI   C4A 7594   9.073   2.928   8.871 -0.1263 -0.0795 -0.1639
  475loPI   C5A 7595   8.946   3.037   8.513  0.2515  0.0346 -0.0105
  475loPI   C6A 7596   8.917   3.264   8.159 -0.0216 -0.2101  0.2655
  475loPI   C1B 7597   9.346   2.061   9.832 -0.0429 -0.3086 -0.0764
  475loPI   C2B 7598   9.352   2.176   9.412  0.2016  0.2956  0.1888
  475loPI   C3B 7599   9.544   2.331   9.106 -0.1463 -0.1807  0.1596
  475loPI   C4B 7600   9.751   2.651   8.950 -0.0873  0.1302  0.3817
  476loPI    C1 7601  12.591  15.344  10.509  0.1849  0.1329 -0.0189
  476loPI    C2 7602  12.477  14.961  10.493 -0.0722  0.2048  0.0451
  476loPI    C3 7603  12.678  15.122  10.188  0.0099  0.0280  0.0044
  476loPI   PO4 7604  12.320  15.440  10.505 -0.1684 -0.0156 -0.0472
  476loPI   GL1 7605  12.100  15.488  10.125 -0.0397  0.3219  0.0983
  476loPI   GL2 7606  12.206  15.259  10.028  0.5129 -0.1652  0.3215
  476loPI   C1A 7607  12.099  15.738   9.798  0.1906  0.0440 -0.0325
  476loPI   C2A 7608  11.787  15.713   9.444  0.3761 -0.4472  0.1030
  476loPI   C3A 7609  11.551  15.634   9.081  0.1619 -0.2397 -0.0227
  476loPI   C4A 7610  11.530  15.309   8.916  0.3147  0.1680  0.2607
  476loPI   C5A 7611  11.597  15.100   8.502  0.3136  0.1009  0.0537
  476loPI   C6A 7612  11.682  14.761   8.202  0.1509 -0.1326 -0.0268
  476loPI   C1B 7613  12.069  15.337   9.564 -0.2381  0.0353  0.1820
  476loPI   C2B 7614  12.036  15.431   9.075  0.1659  0.1674  0.2383
  476loPI   C3B 7615  12.045  15.241   8.703  0.0072 -0.2944 -0.1402
  476loPI   C4B 7616  12.106  14.939   8.445 -0.0047  0.3215 -0.2566
  477loPI    C1 7617  17.838   4.591  10.936  0.2899 -0.0156  0.0392
  477loPI    C2 7618  17.913   4.279  11.175  0.0719 -0.0953  0.0059
  477loPI    C3 7619  17.879   4.646  11.330 -0.1916 -0.1643  0.1159
  477loPI   PO4 7620  17.925   4.547  10.739  0.0821  0.1316  0.1781
  477loPI   GL1 7621  18.028   4.401  10.339  0.2679 -0.1377  0.2494
  477loPI   GL2 7622  17.669   4.384  10.303  0.0966 -0.0129 -0.2196
  477loPI   C1A 7623  18.094   4.471   9.865 -0.0701  0.2664  0.0662
  477loPI   C2A 7624  18.093   4.494   9.440  0.2689 -0.2547  0.2116
  477loPI   C3A 7625  18.118   4.407   8.958 -0.0855 -0.1264 -0.0758
  477loPI   C4A 7626  18.077   4.363   8.513  0.1673  0.0874  0.2979
  477loPI   C5A 7627  18.340   4.498   8.211 -0.2055 -0.1325  0.0766
  477loPI   C6A 7628  18.531   4.883   8.249 -0.1763 -0.1508  0.0080
  477loPI   C1B 7629  17.591   4.311   9.948 -0.0185  0.0880 -0.3627
  477loPI   C2B 7630  17.670   4.252   9.589 -0.3487 -0.0149 -0.0568
  477loPI   C3B 7631  17.608   4.265   9.128  0.0038  0.2674 -0.2233
  477loPI   C4B 7632  17.549   4.214   8.728 -0.0322 -0.1879 -0.0715
  478loPI    C1 7633  12.060  16.593  11.079  0.2386 -0.1065  0.0081
  478loPI    C2 7634  11.985  16.983  11.035  0.2822 -0.1171 -0.1669
  478loPI    C3 7635  11.786  16.772  11.309  0.0737 -0.0258 -0.2457
  478loPI   PO4 7636  12.154  16.537  10.888 -0.1632  0.0514  0.0508
  478loPI   GL1 7637  11.967  16.514  10.416 -0.1377 -0.3027 -0.0804
  478loPI   GL2 7638  12.040  16.888  10.170 -0.1720 -0.0708  0.0766
  478loPI   C1A 7639  11.513  16.383  10.130 -0.0997  0.2438 -0.2382
  478loPI   C2A 7640  11.186  16.309   9.873  0.1932  0.0669 -0.1259
  478loPI   C3A 7641  10.841  16.600   9.735 -0.1143  0.0402  0.1398
  478loPI   C4A 7642  10.720  17.022   9.704  0.4233  0.0132  0.0126
  478loPI   C5A 7643  10.343  17.271   9.568 -0.0569  0.1446 -0.0871
  478loPI   C6A 7644  10.400  17.560   9.389 -0.0479  0.0642  0.3109
  478loPI   C1B 7645  12.426  16.566  10.020  0.2078  0.0674  0.0227
  478loPI   C2B 7646  12.491  16.226   9.794 -0.0020 -0.0130  0.1114
  478loPI   C3B 7647  12.582  16.005   9.592 -0.1858  0.1040  0.1504
  478loPI   C4B 7648  12.361  15.672   9.421 -0.2424 -0.0008  0.3090
  479loPI    C1 7649   6.329  11.504  11.259 -0.1059 -0.1589  0.2529
  479loPI    C2 7650   6.349  11.838  11.477 -0.2135 -0.0353  0.0761
  479loPI    C3 7651   6.178  11.510  11.629 -0.1737  0.0115  0.2234
  479loPI   PO4 7652   6.485  11.493  11.100  0.0543 -0.3037  0.1608
  479loPI   GL1 7653   6.414  11.370  10.584  0.0962 -0.3344 -0.0087
  479loPI   GL2 7654   6.736  11.206  10.604 -0.3653 -0.1559  0.0113
  479loPI   C1A 7655   6.257  11.311  10.202 -0.0358  0.3135 -0.0041
  479loPI   C2A 7656   6.165  11.270   9.730 -0.2803  0.1553 -0.2207
  479loPI   C3A 7657   6.283  11.285   9.299 -0.1349  0.0885 -0.0894
  479loPI   C4A 7658   6.428  11.421   8.910 -0.2847  0.1454 -0.0667
  479loPI   C5A 7659   6.339  11.802   8.625 -0.1993  0.1166 -0.0083
  479loPI   C6A 7660   6.340  12.127   8.275  0.2619 -0.0834  0.0270
  479loPI   C1B 7661   6.739  11.139  10.106 -0.1159 -0.0714 -0.1218
  479loPI   C2B 7662   6.612  10.973   9.745  0.0265  0.0259  0.1755
  479loPI   C3B 7663   6.801  11.060   9.355 -0.2474 -0.4871 -0.1036
  479loPI   C4B 7664   6.560  10.954   8.978  0.0764 -0.0641 -0.2028
  480loPI    C1 7665   8.897  16.674  10.691 -0.0359 -0.2338 -0.0050
  480loPI    C2 7666   8.741  16.669  11.059  0.1271 -0.0529  0.0685
  480loPI    C3 7667   9.033  16.413  10.962  0.0914 -0.0935  0.0673
  480loPI   PO4 7668   8.820  16.596  10.488  0.0627 -0.0566 -0.0790
  480loPI   GL1 7669   9.161  16.510  10.095  0.0059  0.0058  0.5111
  480loPI   GL2 7670   8.925  16.373  10.070 -0.2043  0.0672  0.1862
  480loPI   C1A 7671   9.403  16.439   9.780 -0.3334 -0.2036  0.1258
  480loPI   C2A 7672   9.539  16.256   9.333 -0.3197  0.2834 -0.1494
  480loPI   C3A 7673   9.653  16.155   8.954  0.1070  0.0552 -0.0600
  480loPI   C4A 7674   9.547  15.781   8.809 -0.1248 -0.2547 -0.0949
  480loPI   C5A 7675   9.623  15.560   8.376 -0.1034  0.0946 -0.0044
  480loPI   C6A 7676   9.477  15.560   7.933 -0.0328  0.1165 -0.0486
  480loPI   C1B 7677   8.953  16.260   9.708 -0.0364 -0.1652 -0.0124
  480loPI   C2B 7678   9.042  16.307   9.263 -0.3317  0.2795 -0.2134
  480loPI   C3B 7679   8.748  16.465   8.926  0.2392  0.1779 -0.0617
  480loPI   C4B 7680   8.698  16.611   8.531 -0.1061  0.2553 -0.3982
  481loPI    C1 7681   8.792   6.223  11.175  0.2000  0.1354 -0.2149
  481loPI    C2 7682   8.497   5.992  11.037  0.0488  0.2200 -0.0381
  481loPI    C3 7683   8.450   6.191  11.380  0.3409  0.1744  0.0309
  481loPI   PO4 7684   8.810   6.376  10.909 -0.0247  0.2768  0.0675
  481loPI   GL1 7685   8.747   6.416  10.455  0.0999  0.0296 -0.4803
  481loPI   GL2 7686   8.465   6.236  10.606  0.1571 -0.0290 -0.0656
  481loPI   C1A 7687   8.754   6.447  10.000 -0.0174  0.1791  0.1180
  481loPI   C2A 7688   8.876   6.604   9.626 -0.0650 -0.0202 -0.4346
  481loPI   C3A 7689   8.821   6.682   9.184 -0.2705  0.0630 -0.2710
  481loPI   C4A 7690   8.857   6.671   8.783 -0.2243 -0.0286  0.0050
  481loPI   C5A 7691   9.108   6.764   8.435 -0.0194 -0.3899  0.0121
  481loPI   C6A 7692   9.452   6.657   8.120  0.0075 -0.1044 -0.1889
  481loPI   C1B 7693   8.295   6.290  10.202  0.2456 -0.0277 -0.0029
  481loPI   C2B 7694   8.307   6.298   9.701 -0.0687 -0.0191 -0.1335
  481loPI   C3B 7695   8.299   6.431   9.298 -0.0714 -0.2754  0.1828
  481loPI   C4B 7696   8.357   6.483   8.887 -0.1095 -0.0544 -0.2233
  482loPI    C1 7697  12.795   6.024  11.453  0.0832 -0.1666 -0.0113
  482loPI    C2 7698  12.805   5.654  11.603  0.1001 -0.0802  0.2045
  482loPI    C3 7699  13.127   5.890  11.630  0.0946 -0.0546  0.0533
  482loPI   PO4 7700  12.687   6.066  11.182  0.1692  0.1635 -0.4301
  482loPI   GL1 7701  12.618   6.150  10.818  0.2007  0.0383  0.0492
  482loPI   GL2 7702  12.846   5.835  10.665 -0.0531 -0.0748 -0.3485
  482loPI   C1A 7703  12.436   6.016  10.427 -0.1183 -0.0946  0.2049
  482loPI   C2A 7704  12.339   6.114  10.069 -0.3577 -0.1322 -0.0464
  482loPI   C3A 7705  12.388   6.058   9.624  0.0789 -0.0367  0.0330
  482loPI   C4A 7706  12.367   6.103   9.095  0.0029  0.0326 -0.3566
  482loPI   C5A 7707  12.391   5.980   8.690  0.1264  0.1231  0.1504
  482loPI   C6A 7708  12.707   5.660   8.502  0.0740  0.0025 -0.0216
  482loPI   C1B 7709  12.855   5.819  10.239  0.0410  0.1107  0.0539
  482loPI   C2B 7710  12.777   5.793   9.849 -0.1276  0.2003  0.1125
  482loPI   C3B 7711  12.857   5.819   9.474 -0.1933 -0.4126 -0.3518
  482loPI   C4B 7712  12.751   5.751   9.010 -0.1232  0.1466 -0.1863
  483loPI    C1 7713   8.915   3.544  10.828  0.0938 -0.0704 -0.0373
  483loPI    C2 7714   9.154   3.450  11.134  0.1751  0.0782 -0.0540
  483loPI    C3 7715   9.272   3.720  10.864 -0.1069  0.3274  0.0668
  483loPI   PO4 7716   8.674   3.515  10.862 -0.1746  0.1325 -0.2107
  483loPI   GL1 7717   8.445   3.671  10.557 -0.0525 -0.0241  0.2949
  483loPI   GL2 7718   8.510   3.402  10.410  0.1925 -0.1997 -0.3223
  483loPI   C1A 7719   8.340   3.872  10.176 -0.0462  0.0257 -0.0333
  483loPI   C2A 7720   8.340   4.003   9.718 -0.1830 -0.1470  0.1720
  483loPI   C3A 7721   8.393   4.002   9.264 -0.1769 -0.0553 -0.0347
  483loPI   C4A 7722   8.304   3.798   8.776  0.0021 -0.2251 -0.0615
  483loPI   C5A 7723   8.293   3.356   8.642 -0.0285  0.2096 -0.4879
  483loPI   C6A 7724   8.487   3.019   8.556  0.1500 -0.0543 -0.0552
  483loPI   C1B 7725   8.644   3.494  10.039  0.0497 -0.0475  0.0906
  483loPI   C2B 7726   9.069   3.635   9.911  0.0183  0.4138  0.0143
  483loPI   C3B 7727   9.263   3.763   9.551 -0.1573  0.0234 -0.0687
  483loPI   C4B 7728   9.379   3.913   9.115 -0.1101  0.3431  0.2008
  484loPI    C1 7729   6.096   2.960  11.029 -0.0092 -0.1818 -0.0941
  484loPI    C2 7730   5.883   2.629  10.954  0.0197 -0.2717  0.2074
  484loPI    C3 7731   5.731   2.916  11.188  0.0284 -0.1075  0.0143
  484loPI   PO4 7732   6.202   3.016  10.774 -0.1408  0.2400 -0.0656
  484loPI   GL1 7733   6.019   3.048  10.333  0.1163  0.1046 -0.1285
  484loPI   GL2 7734   5.695   3.128  10.315 -0.1063  0.0473  0.2156
  484loPI   C1A 7735   5.909   3.179   9.855  0.0552  0.1310 -0.1674
  484loPI   C2A 7736   6.052   3.364   9.564 -0.0816  0.1186 -0.2725
  484loPI   C3A 7737   6.043   3.562   9.152 -0.1705 -0.2207 -0.1419
  484loPI   C4A 7738   5.858   3.835   8.827  0.0068 -0.2304 -0.3101
  484loPI   C5A 7739   5.745   3.709   8.513 -0.1551 -0.1922 -0.3394
  484loPI   C6A 7740   5.507   3.848   8.213  0.2110  0.1750 -0.2284
  484loPI   C1B 7741   5.484   3.358  10.103 -0.0267 -0.2415  0.3313
  484loPI   C2B 7742   5.461   3.482   9.743  0.0283 -0.1543 -0.0979
  484loPI   C3B 7743   5.561   3.508   9.350  0.1107  0.2234 -0.0129
  484loPI   C4B 7744   5.473   3.476   8.993 -0.0263  0.0661 -0.0784
  485loPI    C1 7745   5.484   9.052  11.119  0.0776  0.2309 -0.0171
  485loPI    C2 7746   5.135   9.133  10.941  0.0425 -0.1607 -0.1364
  485loPI    C3 7747   5.141   8.994  11.316  0.0875  0.1040 -0.0365
  485loPI   PO4 7748   5.670   8.897  10.907 -0.1781 -0.4152 -0.0808
  485loPI   GL1 7749   5.920   8.892  10.605  0.1885 -0.0909 -0.0987
  485loPI   GL2 7750   5.895   8.612  10.530  0.3790 -0.0985  0.0486
  485loPI   C1A 7751   5.971   9.041  10.249 -0.1045  0.4475  0.1279
  485loPI   C2A 7752   5.988   9.263   9.933 -0.0656 -0.2265  0.1672
  485loPI   C3A 7753   5.936   9.271   9.505 -0.0792 -0.0980 -0.0766
  485loPI   C4A 7754   5.959   9.221   9.087 -0.0250 -0.3844  0.1293
  485loPI   C5A 7755   5.975   9.303   8.641  0.1049  0.2803  0.0494
  485loPI   C6A 7756   6.055   9.178   8.147 -0.5459 -0.1568 -0.0866
  485loPI   C1B 7757   5.810   8.533  10.209 -0.0523 -0.2320  0.1466
  485loPI   C2B 7758   5.862   8.707   9.757  0.0353 -0.1015 -0.1505
  485loPI   C3B 7759   5.865   8.715   9.361  0.0226  0.0025 -0.0443
  485loPI   C4B 7760   5.895   8.773   8.845 -0.1223 -0.2071 -0.1090
  486loPI    C1 7761   2.075   3.914  11.139 -0.3039 -0.3800 -0.0137
  486loPI    C2 7762   2.306   3.939  11.464 -0.0490  0.2129 -0.2257
  486loPI    C3 7763   1.909   3.919  11.503 -0.0078 -0.0378  0.1228
  486loPI   PO4 7764   2.338   4.028  10.933  0.1538  0.0230  0.0421
  486loPI   GL1 7765   2.285   4.088  10.585  0.0500 -0.2469 -0.1646
  486loPI   GL2 7766   2.210   3.832  10.306 -0.1511  0.0636 -0.0760
  486loPI   C1A 7767   2.349   4.426  10.275  0.1964  0.1094  0.1945
  486loPI   C2A 7768   2.578   4.462   9.977  0.1038  0.0297  0.3676
  486loPI   C3A 7769   2.513   4.353   9.492  0.0504 -0.0425 -0.0327
  486loPI   C4A 7770   2.555   4.125   9.050 -0.1638 -0.1821  0.0590
  486loPI   C5A 7771   2.617   4.095   8.666  0.1808  0.2280  0.0510
  486loPI   C6A 7772   2.962   4.023   8.453 -0.1067 -0.0193  0.3931
  486loPI   C1B 7773   1.947   3.710  10.020  0.1456 -0.2983  0.2535
  486loPI   C2B 7774   1.841   3.763   9.516  0.1936 -0.1961  0.1111
  486loPI   C3B 7775   1.856   3.677   9.135 -0.1223  0.1183 -0.0155
  486loPI   C4B 7776   1.951   3.616   8.666 -0.0372 -0.1535  0.0298
  487loPI    C1 7777  10.614   4.451  11.321 -0.1332 -0.1101  0.1328
  487loPI    C2 7778  10.756   4.699  11.601  0.0068  0.3168 -0.3015
  487loPI    C3 7779  10.361   4.664  11.547 -0.0338 -0.0022  0.1437
  487loPI   PO4 7780  10.688   4.524  11.083 -0.0896 -0.1957 -0.1784
  487loPI   GL1 7781  10.876   4.559  10.743  0.3751  0.2545  0.2495
  487loPI   GL2 7782  11.045   4.199  10.692 -0.2096  0.1059 -0.2058
  487loPI   C1A 7783  10.581   4.559  10.345  0.1232  0.2085 -0.1022
  487loPI   C2A 7784  10.407   4.674   9.917 -0.0606  0.0875 -0.0373
  487loPI   C3A 7785  10.296   4.716   9.522 -0.2156 -0.1887  0.0377
  487loPI   C4A 7786  10.320   4.890   9.172  0.1130  0.5844  0.0562
  487loPI   C5A 7787  10.153   4.850   8.820  0.1876 -0.1344 -0.1025
  487loPI   C6A 7788   9.949   4.906   8.457 -0.1672  0.0002  0.0825
  487loPI   C1B 7789  11.174   4.355  10.322  0.2922  0.3171  0.0946
  487loPI   C2B 7790  11.256   4.081   9.979 -0.1278 -0.1540  0.1897
  487loPI   C3B 7791  11.197   4.130   9.570 -0.0875 -0.0545  0.0309
  487loPI   C4B 7792  11.125   4.182   9.178  0.0019 -0.1093  0.1458
  488loPI    C1 7793   5.415  16.883  10.429 -0.1801  0.2783  0.1072
  488loPI    C2 7794   5.375  16.519  10.589 -0.1886  0.2012 -0.0675
  488loPI    C3 7795   5.309  16.844  10.812  0.0177  0.0995  0.1454
  488loPI   PO4 7796   5.316  16.818  10.116  0.4134 -0.1221  0.0080
  488loPI   GL1 7797   5.304  17.064   9.831  0.0946 -0.1240  0.0511
  488loPI   GL2 7798   5.393  17.386   9.697  0.0217  0.0416  0.2071
  488loPI   C1A 7799   5.294  16.863   9.366 -0.0520 -0.4107 -0.1626
  488loPI   C2A 7800   5.419  16.705   9.078 -0.2157  0.2440 -0.0161
  488loPI   C3A 7801   5.525  16.490   8.695  0.3412  0.1061 -0.4597
  488loPI   C4A 7802   5.671  16.184   8.398  0.1168  0.1483 -0.0551
  488loPI   C5A 7803   5.908  15.961   8.138  0.4455 -0.2033 -0.0560
  488loPI   C6A 7804   6.109  15.757   7.872  0.3424  0.3807  0.0226
  488loPI   C1B 7805   5.197  17.431   9.332 -0.1653  0.2781  0.0515
  488loPI   C2B 7806   4.796  17.577   9.120 -0.1402 -0.1362  0.0244
  488loPI   C3B 7807   4.748  17.564   8.712 -0.2329  0.1543 -0.2356
  488loPI   C4B 7808   4.688  17.736   8.339 -0.1351  0.2362  0.1237
  489loPI    C1 7809   0.949   8.000  11.223  0.1683  0.2521  0.0660
  489loPI    C2 7810   1.200   7.689  11.227  0.0167  0.1271 -0.0358
  489loPI    C3 7811   1.113   7.878  11.568 -0.1523 -0.1561  0.0816
  489loPI   PO4 7812   1.092   8.224  11.037 -0.0516  0.0677 -0.0095
  489loPI   GL1 7813   1.257   8.348  10.636 -0.1432  0.0065  0.4338
  489loPI   GL2 7814   0.995   8.540  10.580 -0.1915  0.1093 -0.1169
  489loPI   C1A 7815   1.271   8.188  10.159 -0.1121  0.1914  0.0364
  489loPI   C2A 7816   1.393   8.270   9.771 -0.3193  0.1499 -0.0848
  489loPI   C3A 7817   1.293   8.253   9.339 -0.0249 -0.2492 -0.1468
  489loPI   C4A 7818   1.134   8.203   8.897 -0.4711  0.2424 -0.3694
  489loPI   C5A 7819   1.071   8.158   8.463  0.0723  0.0570  0.1017
  489loPI   C6A 7820   0.868   8.273   8.104  0.0342 -0.2774  0.1435
  489loPI   C1B 7821   0.894   8.546  10.078 -0.1029  0.0913 -0.1393
  489loPI   C2B 7822   0.922   8.509   9.626 -0.1275 -0.2858  0.0990
  489loPI   C3B 7823   0.851   8.554   9.184 -0.0802 -0.1344 -0.0479
  489loPI   C4B 7824   0.742   8.470   8.726  0.0430  0.1496 -0.0092
  490loPI    C1 7825  10.751   5.960  11.220 -0.1993 -0.1463  0.2225
  490loPI    C2 7826  10.848   6.255  11.472 -0.2215  0.0541 -0.0003
  490loPI    C3 7827  11.005   5.890  11.521 -0.0596  0.1457  0.1758
  490loPI   PO4 7828  10.803   6.031  10.977 -0.0188  0.0666  0.0860
  490loPI   GL1 7829  10.524   6.032  10.667  0.0896  0.2168 -0.1590
  490loPI   GL2 7830  10.377   5.730  10.766 -0.2097 -0.2415 -0.1798
  490loPI   C1A 7831  10.416   6.063  10.229 -0.1756  0.1034 -0.0194
  490loPI   C2A 7832  10.131   6.053   9.795  0.0459  0.3029 -0.1823
  490loPI   C3A 7833  10.150   6.207   9.344  0.0592 -0.1624  0.0050
  490loPI   C4A 7834  10.221   6.035   8.951 -0.0465 -0.3811  0.1655
  490loPI   C5A 7835  10.414   5.698   8.666  0.0543  0.0578 -0.1584
  490loPI   C6A 7836  10.260   5.575   8.222  0.0849  0.0304 -0.0285
  490loPI   C1B 7837  10.427   5.519  10.436  0.1213  0.2361  0.1273
  490loPI   C2B 7838  10.434   5.638   9.982  0.1270  0.1316  0.0259
  490loPI   C3B 7839  10.471   5.783   9.530 -0.2488  0.2972 -0.0491
  490loPI   C4B 7840  10.618   5.870   9.121 -0.2977  0.3481 -0.2346
  491loPI    C1 7841  16.327   5.978  11.369 -0.0638  0.0845 -0.0563
  491loPI    C2 7842  16.724   5.999  11.419 -0.0242 -0.4062 -0.1169
  491loPI    C3 7843  16.480   6.181  11.678  0.2376 -0.0674 -0.1013
  491loPI   PO4 7844  16.308   6.041  11.148  0.1100  0.1656  0.2020
  491loPI   GL1 7845  16.310   6.032  10.668  0.3314 -0.2448  0.2666
  491loPI   GL2 7846  16.361   5.788  10.488 -0.2288 -0.0402  0.3821
  491loPI   C1A 7847  16.058   6.119  10.247 -0.2410 -0.1908  0.1829
  491loPI   C2A 7848  16.045   6.032   9.857 -0.0796 -0.0053  0.0534
  491loPI   C3A 7849  16.055   5.982   9.379  0.2241  0.2513  0.1378
  491loPI   C4A 7850  16.138   6.040   8.914  0.0352 -0.1678 -0.2456
  491loPI   C5A 7851  15.819   6.081   8.609 -0.1892 -0.2188  0.0015
  491loPI   C6A 7852  15.415   5.851   8.439 -0.0046 -0.2546  0.2590
  491loPI   C1B 7853  16.501   5.755   9.958 -0.2315 -0.2475 -0.1650
  491loPI   C2B 7854  16.383   5.626   9.625  0.0185  0.0493  0.0703
  491loPI   C3B 7855  16.459   5.768   9.234  0.1115  0.1575  0.0386
  491loPI   C4B 7856  16.553   5.638   8.832  0.0167  0.0150  0.0226
  492loPI    C1 7857   9.537  11.819  10.902  0.0224  0.0180  0.0182
  492loPI    C2 7858   9.789  11.646  11.161  0.0360  0.1077  0.0653
  492loPI    C3 7859   9.409  11.714  11.266 -0.0528 -0.1768 -0.0633
  492loPI   PO4 7860   9.579  11.739  10.691  0.2164 -0.0452  0.1620
  492loPI   GL1 7861   9.481  11.766  10.285  0.1707 -0.2040 -0.0909
  492loPI   GL2 7862   9.549  12.048  10.081  0.1339 -0.1102 -0.2100
  492loPI   C1A 7863   9.044  11.731  10.279 -0.3157  0.2238  0.0906
  492loPI   C2A 7864   8.739  11.447  10.033  0.0248 -0.0901 -0.0096
  492loPI   C3A 7865   8.885  11.376   9.649  0.0652 -0.2791  0.0284
  492loPI   C4A 7866   8.923  11.492   9.116  0.2282  0.2244 -0.3162
  492loPI   C5A 7867   8.671  11.545   8.774 -0.0543 -0.1047 -0.0531
  492loPI   C6A 7868   8.219  11.528   8.718  0.0931 -0.4068 -0.2968
  492loPI   C1B 7869   9.236  11.823   9.841  0.1071  0.0094  0.1179
  492loPI   C2B 7870   9.173  11.800   9.480 -0.0116 -0.1710  0.1702
  492loPI   C3B 7871   9.441  11.711   9.187 -0.0533 -0.2703 -0.0519
  492loPI   C4B 7872   9.735  11.772   8.863 -0.1008  0.0282 -0.0543
  493loPI    C1 7873   7.227  15.809  10.882 -0.0474 -0.1655 -0.1451
  493loPI    C2 7874   7.602  15.709  10.977  0.0254  0.1015 -0.1459
  493loPI    C3 7875   7.297  15.566  11.192  0.1388  0.0351 -0.0276
  493loPI   PO4 7876   7.207  15.694  10.570  0.4289 -0.0276  0.1423
  493loPI   GL1 7877   7.492  15.654  10.153  0.1481  0.1747 -0.0558
  493loPI   GL2 7878   7.792  15.837  10.105  0.0562 -0.2532  0.0458
  493loPI   C1A 7879   7.347  15.739   9.779  0.3589  0.0302 -0.1554
  493loPI   C2A 7880   7.517  16.083   9.486 -0.4206 -0.0082  0.3891
  493loPI   C3A 7881   7.580  16.231   9.129  0.0400  0.3576  0.3438
  493loPI   C4A 7882   7.583  16.587   8.865 -0.0038  0.2667  0.2719
  493loPI   C5A 7883   7.477  16.882   8.572 -0.2071  0.1179 -0.1218
  493loPI   C6A 7884   7.647  17.103   8.211  0.1985  0.0046  0.0228
  493loPI   C1B 7885   7.856  15.638   9.641 -0.3449  0.1767 -0.0717
  493loPI   C2B 7886   7.903  15.852   9.239 -0.1667 -0.0868  0.0120
  493loPI   C3B 7887   7.888  15.929   8.791 -0.2465  0.2215  0.3240
  493loPI   C4B 7888   7.862  16.229   8.463 -0.1389  0.0959  0.0469
  494loPI    C1 7889  11.995  15.108  10.711 -0.3745 -0.0114  0.1568
  494loPI    C2 7890  11.689  15.296  10.886 -0.1362  0.2445  0.3081
  494loPI    C3 7891  12.064  15.411  10.963 -0.0115  0.1318 -0.1053
  494loPI   PO4 7892  11.983  14.989  10.447  0.0062 -0.1166 -0.0922
  494loPI   GL1 7893  11.737  14.818  10.154 -0.0944  0.1672 -0.0986
  494loPI   GL2 7894  11.399  14.626  10.181  0.2375  0.0563  0.1277
  494loPI   C1A 7895  11.948  14.616   9.794  0.1472  0.2603  0.2331
  494loPI   C2A 7896  11.861  14.506   9.409 -0.0948 -0.0255 -0.1267
  494loPI   C3A 7897  12.088  14.171   9.260  0.2452 -0.0076 -0.3939
  494loPI   C4A 7898  12.218  13.839   8.933 -0.0586 -0.2505 -0.1001
  494loPI   C5A 7899  12.272  13.652   8.515  0.1004 -0.2009  0.0134
  494loPI   C6A 7900  12.417  13.515   8.137 -0.0041 -0.3456  0.3179
  494loPI   C1B 7901  11.445  14.816   9.725  0.2792 -0.1179  0.2082
  494loPI   C2B 7902  11.117  15.083   9.489 -0.1479 -0.0560 -0.1314
  494loPI   C3B 7903  11.056  15.181   9.133  0.2284  0.2370  0.0912
  494loPI   C4B 7904  11.055  15.064   8.788 -0.4321  0.0544 -0.2428
  495loPI    C1 7905  17.378   7.001  11.144 -0.3713 -0.0787  0.0024
  495loPI    C2 7906  17.231   6.821  11.470  0.1381 -0.5831 -0.0292
  495loPI    C3 7907  17.505   7.110  11.507 -0.2889 -0.1683  0.0008
  495loPI   PO4 7908  17.168   7.030  10.984 -0.0424  0.1097 -0.0673
  495loPI   GL1 7909  17.030   6.851  10.604 -0.2280  0.1183  0.2018
  495loPI   GL2 7910  16.811   6.755  10.679 -0.0975  0.1411 -0.1171
  495loPI   C1A 7911  17.081   6.975  10.266  0.1610 -0.0990 -0.0742
  495loPI   C2A 7912  17.126   6.943   9.754  0.0466  0.1326 -0.0076
  495loPI   C3A 7913  17.132   6.861   9.244  0.2945  0.0643 -0.0783
  495loPI   C4A 7914  17.046   6.802   8.790 -0.3058  0.5344  0.1595
  495loPI   C5A 7915  16.697   6.534   8.485 -0.0505  0.2510 -0.0352
  495loPI   C6A 7916  16.283   6.305   8.497  0.0029 -0.2955 -0.3040
  495loPI   C1B 7917  16.595   6.369  10.474 -0.0330  0.0711 -0.1897
  495loPI   C2B 7918  16.483   6.313  10.059 -0.3656  0.0242 -0.2164
  495loPI   C3B 7919  16.562   6.187   9.724 -0.0316 -0.0678 -0.3304
  495loPI   C4B 7920  16.537   6.295   9.266 -0.2004  0.0800 -0.2743
  496loPI    C1 7921   3.082   1.233  10.696 -0.0072 -0.0262 -0.1546
  496loPI    C2 7922   3.100   1.536  10.957  0.1411  0.0843 -0.2910
  496loPI    C3 7923   3.040   1.162  11.087  0.0394  0.1612 -0.1147
  496loPI   PO4 7924   3.145   1.143  10.534 -0.3024 -0.0484 -0.0515
  496loPI   GL1 7925   3.322   1.106  10.101 -0.1984  0.1843  0.0304
  496loPI   GL2 7926   3.413   1.387  10.100  0.0126  0.0562 -0.0212
  496loPI   C1A 7927   3.376   1.096   9.686 -0.2441  0.0307  0.1407
  496loPI   C2A 7928   3.485   1.210   9.280 -0.1802 -0.0364 -0.2871
  496loPI   C3A 7929   3.352   1.168   8.798 -0.1908 -0.1353 -0.0410
  496loPI   C4A 7930   3.115   0.909   8.612 -0.0342  0.0560 -0.0429
  496loPI   C5A 7931   3.120   0.823   8.194  0.0390 -0.0581 -0.1289
  496loPI   C6A 7932   3.464   0.965   7.821  0.0101 -0.1638 -0.2707
  496loPI   C1B 7933   3.511   1.568   9.623  0.0133 -0.2943 -0.1609
  496loPI   C2B 7934   3.578   1.643   9.075 -0.2146 -0.0166  0.2319
  496loPI   C3B 7935   3.759   1.497   8.656 -0.2279 -0.1915 -0.0008
  496loPI   C4B 7936   4.015   1.478   8.272  0.1081 -0.1336  0.4112
  497loPI    C1 7937  10.831   1.013  10.749 -0.0323  0.1178 -0.1177
  497loPI    C2 7938  10.641   0.688  10.884 -0.0314  0.1674  0.0039
  497loPI    C3 7939  10.926   0.860  11.106  0.1101  0.1326 -0.1485
  497loPI   PO4 7940  10.840   0.941  10.507 -0.1605 -0.0296  0.0717
  497loPI   GL1 7941  10.655   0.786  10.214 -0.0102  0.1675  0.3002
  497loPI   GL2 7942  10.702   0.395  10.340 -0.1174 -0.1882  0.2615
  497loPI   C1A 7943  10.632   0.910   9.803 -0.2009 -0.0838  0.4103
  497loPI   C2A 7944  10.594   0.799   9.334  0.1579 -0.5748 -0.1866
  497loPI   C3A 7945  10.645   0.663   8.974  0.0911  0.0226  0.0619
  497loPI   C4A 7946  10.627   0.869   8.614  0.1387  0.0216 -0.1627
  497loPI   C5A 7947  10.194   1.057   8.531 -0.0136 -0.1343  0.0263
  497loPI   C6A 7948   9.915   1.375   8.358 -0.0322  0.0171  0.0238
  497loPI   C1B 7949  10.590   0.209   9.986  0.0823 -0.0873 -0.1866
  497loPI   C2B 7950  10.227  -0.011   9.783  0.1618  0.1710 -0.1423
  497loPI   C3B 7951  10.197   0.121   9.324 -0.2070 -0.1272 -0.0164
  497loPI   C4B 7952  10.164   0.096   8.836 -0.0569  0.1575 -0.1239
  498loPI    C1 7953  13.604   6.156  11.449 -0.0931 -0.2351 -0.0936
  498loPI    C2 7954  13.877   6.233  11.168 -0.1292  0.1175 -0.0359
  498loPI    C3 7955  13.986   6.211  11.552 -0.1111 -0.1801 -0.0560
  498loPI   PO4 7956  13.445   6.303  11.390 -0.0404 -0.0899 -0.0367
  498loPI   GL1 7957  13.484   6.296  10.892  0.1173 -0.1518  0.1205
  498loPI   GL2 7958  13.553   6.589  10.797 -0.3357 -0.0465  0.0610
  498loPI   C1A 7959  13.373   6.041  10.443 -0.0307  0.2107 -0.0028
  498loPI   C2A 7960  13.328   5.902  10.004  0.1393 -0.0466 -0.0968
  498loPI   C3A 7961  13.299   5.986   9.559 -0.1745 -0.0266 -0.2014
  498loPI   C4A 7962  13.231   6.023   9.172 -0.0853  0.1669  0.0882
  498loPI   C5A 7963  13.190   5.940   8.779 -0.1751  0.2643 -0.2148
  498loPI   C6A 7964  12.883   6.144   8.587 -0.1968 -0.2587 -0.0998
  498loPI   C1B 7965  13.475   6.517  10.343  0.6322  0.2200  0.1007
  498loPI   C2B 7966  13.328   6.477   9.905 -0.1818  0.1209 -0.0183
  498loPI   C3B 7967  13.329   6.413   9.400  0.1013 -0.1049  0.1162
  498loPI   C4B 7968  13.213   6.473   8.999 -0.0335  0.2073  0.2794
  499loPI    C1 7969   6.548   2.734  10.905  0.2007 -0.4272 -0.3898
  499loPI    C2 7970   6.782   2.578  11.189 -0.0608  0.1019  0.1379
  499loPI    C3 7971   6.398   2.469  11.164 -0.0757  0.1663  0.0824
  499loPI   PO4 7972   6.837   2.782  10.706 -0.2567  0.0440  0.0923
  499loPI   GL1 7973   6.902   2.542  10.368  0.2199 -0.0379  0.0612
  499loPI   GL2 7974   6.596   2.430  10.171  0.1497 -0.1838 -0.0568
  499loPI   C1A 7975   7.025   2.621   9.984 -0.0445 -0.2126  0.1125
  499loPI   C2A 7976   6.934   2.841   9.573 -0.1676 -0.1137 -0.1758
  499loPI   C3A 7977   6.957   2.926   9.094  0.1519  0.0153 -0.0079
  499loPI   C4A 7978   6.858   3.034   8.665  0.1876 -0.0097 -0.2728
  499loPI   C5A 7979   6.846   2.709   8.331  0.1006  0.0588 -0.1904
  499loPI   C6A 7980   6.807   2.554   7.935 -0.2482  0.0103  0.2376
  499loPI   C1B 7981   6.473   2.551   9.705 -0.0611  0.0808 -0.1606
  499loPI   C2B 7982   6.504   2.734   9.283  0.4970 -0.2922 -0.0744
  499loPI   C3B 7983   6.572   2.546   8.761  0.0535 -0.2246  0.0014
  499loPI   C4B 7984   6.260   2.575   8.340  0.0802 -0.1263 -0.2768
  500loPI    C1 7985   5.238  12.017  10.839  0.1479  0.2180 -0.0571
  500loPI    C2 7986   5.361  12.302  11.091 -0.0332  0.2191  0.0311
  500loPI    C3 7987   5.011  12.118  11.152 -0.1884  0.3777 -0.3448
  500loPI   PO4 7988   5.259  12.055  10.548 -0.2279 -0.0146  0.0446
  500loPI   GL1 7989   5.386  11.956  10.092  0.1036 -0.0385 -0.3854
  500loPI   GL2 7990   4.950  12.012  10.173 -0.1317 -0.0927  0.1743
  500loPI   C1A 7991   5.469  11.884   9.733  0.0737  0.0907 -0.0919
  500loPI   C2A 7992   5.468  11.810   9.298  0.2981  0.1409  0.1156
  500loPI   C3A 7993   5.461  11.780   8.840  0.1303  0.3473  0.0710
  500loPI   C4A 7994   5.491  11.728   8.438  0.0844 -0.0224  0.1522
  500loPI   C5A 7995   5.440  11.593   7.980  0.2073  0.1399 -0.2662
  500loPI   C6A 7996   5.290  11.331   7.658  0.0546 -0.0985 -0.2526
  500loPI   C1B 7997   4.983  11.867   9.748  0.2629  0.1159 -0.2602
  500loPI   C2B 7998   4.947  11.691   9.278  0.0532  0.4300  0.0735
  500loPI   C3B 7999   4.924  11.653   8.781 -0.0453 -0.0767 -0.1199
  500loPI   C4B 8000   4.980  11.541   8.390  0.0687 -0.0853  0.2168
  501loPI    C1 8001  12.411   1.976  10.802 -0.0746  0.0620 -0.1845
  501loPI    C2 8002  12.423   2.368  10.881  0.0113  0.0184  0.0265
  501loPI    C3 8003  12.600   2.109  11.129  0.0778 -0.1433 -0.1872
  501loPI   PO4 8004  12.296   1.979  10.593  0.2759 -0.0409  0.1356
  501loPI   GL1 8005  12.475   2.068  10.231  0.0965  0.3048  0.1619
  501loPI   GL2 8006  12.639   2.325  10.415  0.0841 -0.0597 -0.1695
  501loPI   C1A 8007  12.350   2.106   9.774  0.0120 -0.2407  0.1008
  501loPI   C2A 8008  12.301   2.151   9.224  0.3263 -0.1128  0.0527
  501loPI   C3A 8009  12.451   2.057   8.829 -0.3575 -0.0968 -0.1918
  501loPI   C4A 8010  12.709   2.168   8.572  0.1254 -0.3920 -0.0409
  501loPI   C5A 8011  12.923   2.576   8.527 -0.0337  0.0209  0.2873
  501loPI   C6A 8012  13.187   2.966   8.491  0.0207  0.1757 -0.0359
  501loPI   C1B 8013  12.405   2.518  10.001  0.0011 -0.0258 -0.1398
  501loPI   C2B 8014  12.295   2.633   9.584  0.1586 -0.1504 -0.1781
  501loPI   C3B 8015  12.341   2.690   9.193  0.1047  0.0052  0.2646
  501loPI   C4B 8016  12.440   2.726   8.747  0.2425  0.0924  0.3247
  502loPI    C1 8017  16.012  12.977  10.919  0.0596  0.1554  0.0597
  502loPI    C2 8018  15.882  12.898  11.289  0.0092  0.1136  0.0332
  502loPI    C3 8019  15.670  12.777  10.972  0.0816  0.0990 -0.0100
  502loPI   PO4 8020  16.021  13.231  10.873  0.0831  0.0538 -0.2577
  502loPI   GL1 8021  16.042  13.262  10.497 -0.2133 -0.1353 -0.1054
  502loPI   GL2 8022  16.185  13.632  10.496 -0.0501  0.2660  0.2173
  502loPI   C1A 8023  15.789  13.184  10.130  0.0073 -0.1832  0.0442
  502loPI   C2A 8024  15.745  13.112   9.658 -0.1281 -0.0804 -0.1894
  502loPI   C3A 8025  16.066  12.987   9.306 -0.0366 -0.0632 -0.0197
  502loPI   C4A 8026  16.227  12.897   8.940 -0.0053 -0.1901  0.0002
  502loPI   C5A 8027  16.398  12.884   8.520 -0.2346  0.1838 -0.0613
  502loPI   C6A 8028  16.489  12.840   8.043 -0.1080 -0.1825  0.2596
  502loPI   C1B 8029  15.883  13.660  10.071 -0.0530 -0.0439  0.1649
  502loPI   C2B 8030  15.796  13.935   9.772  0.0561  0.0919 -0.0349
  502loPI   C3B 8031  16.088  14.055   9.408  0.1124  0.1433  0.3090
  502loPI   C4B 8032  16.473  13.962   9.196 -0.1438  0.1367 -0.0383
  503loPI    C1 8033  17.640   9.858  11.229  0.0879  0.2512 -0.0792
  503loPI    C2 8034  18.023   9.800  11.328  0.0322 -0.0644 -0.0408
  503loPI    C3 8035  17.801  10.061  11.534  0.2756  0.2621 -0.1841
  503loPI   PO4 8036  17.538   9.751  11.008  0.0918  0.2106 -0.0209
  503loPI   GL1 8037  17.653   9.559  10.561  0.4329  0.0088 -0.1547
  503loPI   GL2 8038  17.449   9.445  10.389  0.1968 -0.0710 -0.0387
  503loPI   C1A 8039  17.909   9.746  10.328 -0.0937  0.1554 -0.0083
  503loPI   C2A 8040  18.188   9.787   9.883  0.2293  0.0962  0.1271
  503loPI   C3A 8041  18.425   9.828   9.473 -0.3054  0.1209 -0.2762
  503loPI   C4A 8042  18.287  10.048   9.041 -0.1842 -0.0690 -0.3927
  503loPI   C5A 8043  18.054  10.448   9.093 -0.0296 -0.0082  0.1230
  503loPI   C6A 8044  17.851  10.522   9.543 -0.2191 -0.2764 -0.3769
  503loPI   C1B 8045  17.253   9.662   9.935  0.2574 -0.1487 -0.1846
  503loPI   C2B 8046  17.329   9.955   9.565 -0.0962 -0.0568 -0.1455
  503loPI   C3B 8047  17.263   9.943   9.149  0.1218 -0.1304 -0.0264
  503loPI   C4B 8048  16.991  10.202   8.757  0.1652  0.0836 -0.2895
  504loPI    C1 8049   7.856  17.668  10.697  0.1333  0.0350  0.1002
  504loPI    C2 8050   7.537  17.766  10.917 -0.1016 -0.0920 -0.1759
  504loPI    C3 8051   7.677  17.391  10.923  0.2707  0.0447  0.2218
  504loPI   PO4 8052   7.835  17.755  10.460  0.2212 -0.3254 -0.0217
  504loPI   GL1 8053   7.721  17.719  10.083  0.0743  0.0351 -0.3946
  504loPI   GL2 8054   7.435  17.601  10.017  0.0706  0.1857 -0.1480
  504loPI   C1A 8055   7.889  17.642   9.610 -0.1820 -0.0984 -0.4801
  504loPI   C2A 8056   8.154  17.842   9.287 -0.1508 -0.1915 -0.1270
  504loPI   C3A 8057   8.298  17.822   8.899 -0.1135  0.1140  0.0765
  504loPI   C4A 8058   8.190  17.947   8.493 -0.1670 -0.0964  0.1689
  504loPI   C5A 8059   8.386  17.972   8.180  0.4841 -0.3085  0.0098
  504loPI   C6A 8060   8.632  18.245   7.931  0.0324 -0.1422 -0.0888
  504loPI   C1B 8061   7.425  17.828   9.610  0.1041 -0.0185 -0.0041
  504loPI   C2B 8062   7.572  17.868   9.158 -0.4882 -0.0903  0.1010
  504loPI   C3B 8063   7.770  17.741   8.736 -0.1933 -0.1344  0.0174
  504loPI   C4B 8064   7.690  17.688   8.346  0.2145  0.0208  0.2502
  505loPI    C1 8065   3.114  10.833  10.955 -0.2644  0.1010  0.2868
  505loPI    C2 8066   3.422  10.711  11.180 -0.1535 -0.1840 -0.0113
  505loPI    C3 8067   3.055  10.568  11.248 -0.1562 -0.1187  0.1135
  505loPI   PO4 8068   3.196  10.809  10.734  0.0194 -0.2721  0.1537
  505loPI   GL1 8069   3.435  10.894  10.382 -0.0125  0.0796 -0.3178
  505loPI   GL2 8070   3.457  10.656  10.219  0.0747  0.0112 -0.0036
  505loPI   C1A 8071   3.202  11.034  10.042 -0.0488  0.2888  0.0736
  505loPI   C2A 8072   3.097  10.959   9.638  0.0656  0.2286 -0.2221
  505loPI   C3A 8073   2.945  10.954   9.239  0.0162 -0.0831  0.3189
  505loPI   C4A 8074   2.972  10.886   8.813 -0.2699  0.1745  0.1573
  505loPI   C5A 8075   2.955  10.932   8.414  0.2511  0.0042 -0.0158
  505loPI   C6A 8076   2.984  10.791   8.013 -0.0752  0.0940  0.2432
  505loPI   C1B 8077   3.506  10.624   9.776  0.2007  0.0573 -0.2426
  505loPI   C2B 8078   3.529  10.632   9.344  0.1372 -0.1099  0.0456
  505loPI   C3B 8079   3.384  10.645   8.956 -0.1777 -0.0819  0.1268
  505loPI   C4B 8080   3.301  10.499   8.540  0.4209 -0.1051 -0.0049
  506loPI    C1 8081   8.539   0.693  10.963  0.0061  0.0603  0.0779
  506loPI    C2 8082   8.638   0.439  11.256  0.0458  0.0229  0.0325
  506loPI    C3 8083   8.436   0.774  11.341  0.1362  0.0571  0.1146
  506loPI   PO4 8084   8.441   0.505  10.755 -0.3600  0.1609  0.0966
  506loPI   GL1 8085   8.275   0.490  10.313 -0.3317  0.2670  0.0357
  506loPI   GL2 8086   8.630   0.488  10.243  0.1246 -0.1279  0.0241
  506loPI   C1A 8087   8.409   0.850   9.958  0.0070 -0.0640 -0.2710
  506loPI   C2A 8088   8.269   1.177   9.678  0.1656  0.0484  0.0485
  506loPI   C3A 8089   8.222   1.191   9.252 -0.0156 -0.0626 -0.1704
  506loPI   C4A 8090   8.345   1.064   8.901  0.0816  0.0942  0.4529
  506loPI   C5A 8091   8.584   1.027   8.526  0.0828 -0.1860 -0.2045
  506loPI   C6A 8092   8.715   0.701   8.280 -0.0912  0.1791 -0.1246
  506loPI   C1B 8093   8.803   0.381   9.800  0.0254 -0.1483  0.0946
  506loPI   C2B 8094   8.876   0.528   9.463  0.1263  0.2708  0.1444
  506loPI   C3B 8095   9.192   0.558   9.154  0.0574  0.0162  0.1501
  506loPI   C4B 8096   9.385   0.795   8.855 -0.0181  0.0027 -0.2868
  507loPI    C1 8097   3.626   5.720  11.135  0.1944 -0.0954 -0.0901
  507loPI    C2 8098   3.970   5.885  11.254  0.0736 -0.0352  0.1847
  507loPI    C3 8099   3.782   5.623  11.490  0.0060 -0.1830 -0.0296
  507loPI   PO4 8100   3.708   5.672  10.894  0.0619  0.0064 -0.0117
  507loPI   GL1 8101   3.617   5.856  10.515  0.2212  0.0798 -0.1996
  507loPI   GL2 8102   3.619   5.515  10.400 -0.2257 -0.1219  0.0725
  507loPI   C1A 8103   3.940   6.000  10.262  0.0100 -0.0093 -0.1878
  507loPI   C2A 8104   4.002   6.039   9.812 -0.0255  0.0256 -0.0211
  507loPI   C3A 8105   4.152   6.008   9.374 -0.0420  0.2799  0.2647
  507loPI   C4A 8106   4.202   5.982   9.004  0.0845  0.2138  0.1215
  507loPI   C5A 8107   4.149   6.111   8.564  0.0337  0.0183 -0.0858
  507loPI   C6A 8108   3.932   6.339   8.284 -0.1437 -0.2768 -0.1206
  507loPI   C1B 8109   3.635   5.661   9.977 -0.0688  0.0526  0.1292
  507loPI   C2B 8110   3.458   5.451   9.539 -0.1593  0.2125  0.0797
  507loPI   C3B 8111   3.407   5.419   9.198 -0.1160 -0.1430  0.0301
  507loPI   C4B 8112   3.544   5.557   8.789  0.0739  0.0295 -0.0756
  508loPI    C1 8113  10.735   7.333  11.498  0.1524  0.2100 -0.0409
  508loPI    C2 8114  10.954   7.182  11.798 -0.0514 -0.0641 -0.0269
  508loPI    C3 8115  10.766   7.532  11.844  0.0979  0.0021  0.0854
  508loPI   PO4 8116  10.881   7.253  11.245  0.0805 -0.0883 -0.2305
  508loPI   GL1 8117  10.968   7.233  10.866 -0.2956  0.0118 -0.0627
  508loPI   GL2 8118  11.276   7.167  10.784  0.0046 -0.2839  0.1414
  508loPI   C1A 8119  10.859   7.477  10.462  0.3233  0.1544 -0.1598
  508loPI   C2A 8120  10.830   7.371  10.171  0.2033 -0.1109  0.0572
  508loPI   C3A 8121  10.918   7.287   9.776 -0.3469 -0.0220 -0.1437
  508loPI   C4A 8122  10.708   7.317   9.398  0.3608 -0.0614  0.0168
  508loPI   C5A 8123  10.722   7.381   9.002  0.2467 -0.1824 -0.0106
  508loPI   C6A 8124  10.482   7.509   8.675  0.1917 -0.1437  0.1962
  508loPI   C1B 8125  11.299   7.160  10.308  0.0145  0.1048 -0.1137
  508loPI   C2B 8126  11.293   6.986   9.892  0.2526 -0.0180 -0.1587
  508loPI   C3B 8127  11.146   7.003   9.419  0.1110 -0.0044  0.1604
  508loPI   C4B 8128  11.179   7.075   8.981 -0.0423 -0.1396 -0.0752
  509loPI    C1 8129  15.727   8.496  11.384  0.0738  0.1253  0.1363
  509loPI    C2 8130  15.801   8.818  11.610  0.0115  0.1748  0.0862
  509loPI    C3 8131  15.580   8.517  11.756 -0.0241  0.2043  0.0934
  509loPI   PO4 8132  15.726   8.594  11.122  0.1452 -0.1914  0.1275
  509loPI   GL1 8133  15.581   8.475  10.666  0.2836 -0.2503 -0.5328
  509loPI   GL2 8134  16.007   8.319  10.628 -0.1937 -0.1177 -0.1602
  509loPI   C1A 8135  15.548   8.321  10.249 -0.1791  0.0283 -0.1795
  509loPI   C2A 8136  15.363   8.229   9.865  0.0766 -0.0533  0.1162
  509loPI   C3A 8137  15.403   8.222   9.426  0.2754  0.0358  0.0648
  509loPI   C4A 8138  15.413   8.180   9.029 -0.2387  0.1059  0.0846
  509loPI   C5A 8139  15.616   8.183   8.654  0.1458 -0.3486  0.3196
  509loPI   C6A 8140  15.667   7.847   8.320 -0.1323 -0.1372  0.2494
  509loPI   C1B 8141  16.016   8.603  10.229  0.0069 -0.1051  0.4284
  509loPI   C2B 8142  15.801   8.459   9.844 -0.0015 -0.0525 -0.1581
  509loPI   C3B 8143  15.933   8.447   9.432 -0.0959  0.0583 -0.1087
  509loPI   C4B 8144  15.955   8.362   8.989  0.2184  0.1626  0.0091
  510loPI    C1 8145  12.616  10.950  11.202 -0.1900 -0.0789  0.0263
  510loPI    C2 8146  12.465  10.667  11.440  0.1742 -0.1001  0.2385
  510loPI    C3 8147  12.591  11.013  11.596 -0.0956  0.1089  0.0034
  510loPI   PO4 8148  12.744  10.884  11.051 -0.4598  0.0477  0.0829
  510loPI   GL1 8149  12.817  10.700  10.691  0.0217  0.5412  0.0105
  510loPI   GL2 8150  13.095  10.693  10.585  0.0740  0.3826 -0.0231
  510loPI   C1A 8151  12.751  10.468  10.263  0.0678 -0.0587 -0.0850
  510loPI   C2A 8152  12.585  10.446   9.919 -0.0463  0.0346  0.4090
  510loPI   C3A 8153  12.613  10.479   9.541 -0.0329  0.0536 -0.1400
  510loPI   C4A 8154  12.584  10.398   9.156 -0.2405  0.0077  0.0009
  510loPI   C5A 8155  12.532  10.382   8.659  0.0575  0.1390  0.1147
  510loPI   C6A 8156  12.382  10.501   8.333  0.2848 -0.0338 -0.0358
  510loPI   C1B 8157  13.174  10.713  10.194  0.1384 -0.0730  0.1680
  510loPI   C2B 8158  13.023  10.641   9.732 -0.1043  0.2012 -0.0438
  510loPI   C3B 8159  13.039  10.567   9.282 -0.1337  0.0403 -0.2545
  510loPI   C4B 8160  12.996  10.488   8.827  0.1281 -0.2726 -0.0371
  511loPI    C1 8161  16.621   4.601  10.963 -0.4166  0.0918 -0.1926
  511loPI    C2 8162  16.375   4.576  11.277  0.0064  0.0469  0.1443
  511loPI    C3 8163  16.574   4.915  11.206  0.1771 -0.0549  0.1304
  511loPI   PO4 8164  16.483   4.421  10.830 -0.1450  0.0340  0.0115
  511loPI   GL1 8165  16.164   4.575  10.445 -0.1174  0.1391  0.2808
  511loPI   GL2 8166  15.908   4.459  10.316  0.0154  0.0843  0.0150
  511loPI   C1A 8167  16.317   4.663  10.063 -0.1193  0.3568  0.0541
  511loPI   C2A 8168  16.330   4.614   9.601 -0.1346 -0.1729 -0.0450
  511loPI   C3A 8169  16.338   4.644   9.155 -0.1921 -0.4380 -0.0082
  511loPI   C4A 8170  16.361   4.697   8.711  0.0202 -0.1378  0.3917
  511loPI   C5A 8171  16.134   4.792   8.375 -0.0089  0.3893  0.1448
  511loPI   C6A 8172  15.718   4.897   8.437 -0.1256  0.0719 -0.2706
  511loPI   C1B 8173  15.827   4.507   9.937  0.2332  0.2077 -0.2204
  511loPI   C2B 8174  15.897   4.853   9.656  0.3665 -0.0041 -0.1161
  511loPI   C3B 8175  15.899   5.020   9.301 -0.0512  0.1817  0.0274
  511loPI   C4B 8176  16.042   5.082   8.933  0.0758  0.0653  0.1600
  512loPI    C1 8177   9.882   9.585  11.691 -0.0146 -0.0744 -0.1630
  512loPI    C2 8178  10.110   9.256  11.681  0.1493  0.0354 -0.0972
  512loPI    C3 8179   9.834   9.300  11.967  0.0324 -0.1054 -0.1865
  512loPI   PO4 8180   9.813   9.610  11.438  0.1833  0.0153  0.1249
  512loPI   GL1 8181   9.770   9.732  10.955 -0.0557 -0.1036 -0.0411
  512loPI   GL2 8182   9.971   9.507  10.758  0.0408  0.1417  0.1634
  512loPI   C1A 8183   9.550   9.746  10.538 -0.1790  0.1288 -0.4465
  512loPI   C2A 8184   9.622   9.852  10.134 -0.2440  0.0766 -0.2026
  512loPI   C3A 8185   9.710   9.811   9.721 -0.1461 -0.3668  0.1668
  512loPI   C4A 8186   9.571   9.866   9.330  0.3606  0.1264  0.1297
  512loPI   C5A 8187   9.681   9.837   8.861  0.4080  0.0914  0.4021
  512loPI   C6A 8188   9.588   9.793   8.400  0.3147  0.0231 -0.2384
  512loPI   C1B 8189   9.965   9.558  10.362  0.1824 -0.2325 -0.1294
  512loPI   C2B 8190  10.022   9.490   9.966 -0.0688  0.0191 -0.0998
  512loPI   C3B 8191  10.072   9.453   9.549  0.0545  0.1065  0.1106
  512loPI   C4B 8192  10.079   9.635   9.122 -0.0483  0.3012 -0.0451
  513loPI    C1 8193  12.103   0.412  10.836  0.0413  0.0093 -0.1104
  513loPI    C2 8194  12.487   0.302  10.823  0.0175 -0.0592 -0.2547
  513loPI    C3 8195  12.361   0.555  11.106  0.1867  0.0321 -0.2598
  513loPI   PO4 8196  11.998   0.453  10.537  0.1700 -0.2265 -0.0755
  513loPI   GL1 8197  11.924   0.568  10.161  0.1201  0.4431  0.0577
  513loPI   GL2 8198  11.785   0.791  10.057 -0.0213 -0.2049 -0.1056
  513loPI   C1A 8199  12.015   0.406   9.800  0.2309 -0.2852  0.0840
  513loPI   C2A 8200  12.018   0.487   9.333 -0.1231  0.1697 -0.0717
  513loPI   C3A 8201  11.874   0.481   8.905  0.0910 -0.0714  0.2572
  513loPI   C4A 8202  11.589   0.317   8.668 -0.0390  0.0994 -0.0517
  513loPI   C5A 8203  11.430   0.400   8.320 -0.2031  0.0638  0.3558
  513loPI   C6A 8204  11.072   0.207   7.963 -0.0866 -0.2423  0.0873
  513loPI   C1B 8205  11.891   0.905   9.600 -0.0048 -0.4473 -0.0786
  513loPI   C2B 8206  11.695   0.918   9.098  0.0154 -0.1902 -0.0055
  513loPI   C3B 8207  11.815   0.883   8.681  0.2082  0.2585  0.2424
  513loPI   C4B 8208  11.714   0.888   8.253  0.2374 -0.3990 -0.0951
  514loPI    C1 8209   9.385   9.332  11.257  0.0060 -0.2893  0.1307
  514loPI    C2 8210   9.448   9.289  11.649  0.1876 -0.0210  0.1335
  514loPI    C3 8211   9.306   9.634  11.506 -0.0906 -0.1927 -0.0149
  514loPI   PO4 8212   9.606   9.306  11.095 -0.2309 -0.1704  0.0575
  514loPI   GL1 8213   9.467   9.282  10.757 -0.0379 -0.0326 -0.1081
  514loPI   GL2 8214   9.241   8.967  10.711  0.2948  0.4288  0.1994
  514loPI   C1A 8215   9.491   9.228  10.280 -0.2184  0.0682 -0.1093
  514loPI   C2A 8216   9.619   9.241   9.914 -0.0053  0.0547  0.0211
  514loPI   C3A 8217   9.565   9.333   9.512 -0.1937  0.1139 -0.0066
  514loPI   C4A 8218   9.625   9.360   9.093  0.1989 -0.2607  0.1538
  514loPI   C5A 8219   9.532   9.299   8.666 -0.2857  0.1139  0.6153
  514loPI   C6A 8220   9.366   8.948   8.539  0.0061  0.0826 -0.0265
  514loPI   C1B 8221   9.096   8.979  10.205  0.0081 -0.1326 -0.0170
  514loPI   C2B 8222   9.130   9.104   9.756 -0.2003 -0.2185  0.0631
  514loPI   C3B 8223   9.091   9.150   9.344  0.0743  0.1294  0.0871
  514loPI   C4B 8224   9.086   9.148   8.940 -0.1917  0.1608  0.0086
  515loPI    C1 8225   1.632  16.492  10.677  0.2772  0.0199 -0.1011
  515loPI    C2 8226   1.780  16.366  11.026 -0.0528 -0.1073 -0.0037
  515loPI    C3 8227   1.699  16.754  10.972  0.2162 -0.0519 -0.0234
  515loPI   PO4 8228   1.756  16.319  10.473 -0.1004 -0.2045  0.0160
  515loPI   GL1 8229   2.047  16.416  10.256  0.4260 -0.0960 -0.2937
  515loPI   GL2 8230   2.006  16.661  10.087 -0.4231  0.1267 -0.1835
  515loPI   C1A 8231   1.954  16.206   9.891 -0.2001 -0.0816  0.0575
  515loPI   C2A 8232   1.771  15.920   9.704 -0.0641 -0.0630 -0.0990
  515loPI   C3A 8233   1.491  15.607   9.524 -0.0821  0.3143 -0.1111
  515loPI   C4A 8234   1.349  15.528   9.114 -0.0229 -0.3235 -0.4119
  515loPI   C5A 8235   1.230  15.390   8.745  0.3545 -0.0417 -0.0853
  515loPI   C6A 8236   1.274  15.074   8.484 -0.2106 -0.1601  0.1212
  515loPI   C1B 8237   2.247  16.670   9.674  0.1573  0.2273  0.1386
  515loPI   C2B 8238   2.244  16.680   9.222  0.0085  0.5197  0.0000
  515loPI   C3B 8239   1.926  16.640   8.905 -0.2339  0.1332 -0.0476
  515loPI   C4B 8240   1.852  16.383   8.468 -0.0501  0.2119 -0.0041
  516loPI    C1 8241  11.364   9.470  11.325  0.0053  0.1341  0.3423
  516loPI    C2 8242  11.040   9.636  11.159  0.1113  0.0951  0.0917
  516loPI    C3 8243  11.065   9.599  11.556 -0.2791 -0.0840  0.1038
  516loPI   PO4 8244  11.513   9.551  11.181 -0.2224  0.0723  0.0356
  516loPI   GL1 8245  11.621   9.389  10.790  0.2566  0.1592 -0.1077
  516loPI   GL2 8246  11.258   9.280  10.816  0.4172 -0.2356 -0.0672
  516loPI   C1A 8247  11.734   9.350  10.361 -0.0499  0.1228  0.2038
  516loPI   C2A 8248  11.856   9.273   9.909  0.0218  0.1163  0.2357
  516loPI   C3A 8249  11.994   9.256   9.503 -0.2450  0.1760  0.2049
  516loPI   C4A 8250  11.931   9.253   9.105 -0.2287 -0.2777 -0.0582
  516loPI   C5A 8251  11.899   9.349   8.731 -0.0480  0.1736 -0.0199
  516loPI   C6A 8252  11.904   9.821   8.746  0.1775 -0.0389  0.1079
  516loPI   C1B 8253  11.285   9.163  10.407 -0.2060 -0.0686  0.0048
  516loPI   C2B 8254  11.390   9.085   9.908  0.0597  0.2111  0.0666
  516loPI   C3B 8255  11.443   9.086   9.429  0.2945  0.3495  0.0142
  516loPI   C4B 8256  11.355   9.157   9.032 -0.2250 -0.0439  0.1896
  517loPI    C1 8257  14.334  16.660  10.910 -0.0477 -0.0511  0.0254
  517loPI    C2 8258  14.681  16.746  11.088 -0.2000  0.2260  0.1948
  517loPI    C3 8259  14.549  16.369  11.080  0.1458  0.1045  0.0498
  517loPI   PO4 8260  14.332  16.905  10.704 -0.0422 -0.2682  0.2582
  517loPI   GL1 8261  14.425  16.965  10.319 -0.1860  0.2623  0.0835
  517loPI   GL2 8262  14.221  16.628  10.348  0.0141 -0.2664  0.0760
  517loPI   C1A 8263  14.245  17.029   9.856  0.1265 -0.1724  0.0444
  517loPI   C2A 8264  14.125  17.193   9.424  0.0520  0.0806  0.1798
  517loPI   C3A 8265  14.284  17.264   9.063 -0.0254  0.2037 -0.1998
  517loPI   C4A 8266  14.332  17.280   8.552  0.1105 -0.1498  0.2318
  517loPI   C5A 8267  13.941  17.430   8.417 -0.1221  0.0889  0.1339
  517loPI   C6A 8268  13.536  17.402   8.515 -0.2625 -0.4732 -0.0917
  517loPI   C1B 8269  14.427  16.582   9.955 -0.1186  0.2731 -0.0620
  517loPI   C2B 8270  14.651  16.833   9.579 -0.1781  0.2881  0.2447
  517loPI   C3B 8271  14.691  16.942   9.169 -0.1427 -0.0748  0.2947
  517loPI   C4B 8272  14.664  17.051   8.758 -0.1243 -0.0724 -0.0480
  518loPI    C1 8273  14.380  15.866  11.086  0.0226  0.2090 -0.1398
  518loPI    C2 8274  14.076  16.119  11.024  0.0075  0.2338  0.0302
  518loPI    C3 8275  14.193  16.036  11.397  0.0441  0.0268 -0.0265
  518loPI   PO4 8276  14.358  15.677  10.815  0.0979  0.3095 -0.0435
  518loPI   GL1 8277  14.304  15.769  10.366  0.0862  0.1236  0.1860
  518loPI   GL2 8278  13.974  15.812  10.404 -0.0271  0.1235  0.2667
  518loPI   C1A 8279  14.505  15.603   9.920 -0.0718  0.0953  0.0887
  518loPI   C2A 8280  14.470  15.728   9.474 -0.3411  0.3309  0.0954
  518loPI   C3A 8281  14.608  15.942   9.054  0.1045  0.0926  0.0826
  518loPI   C4A 8282  14.823  16.091   8.607 -0.2046  0.0628  0.0406
  518loPI   C5A 8283  15.020  16.239   8.455  0.0165 -0.0361  0.2187
  518loPI   C6A 8284  15.429  16.472   8.301  0.0158 -0.1784 -0.1550
  518loPI   C1B 8285  13.962  15.697   9.987 -0.0137  0.0888 -0.0609
  518loPI   C2B 8286  14.128  15.995   9.719 -0.0926  0.3042 -0.2433
  518loPI   C3B 8287  14.172  16.149   9.310 -0.2453 -0.1795  0.1692
  518loPI   C4B 8288  14.170  16.329   8.883 -0.1012 -0.0857  0.3010
  519loPI    C1 8289  11.741   0.715  11.065 -0.1101  0.2548  0.1817
  519loPI    C2 8290  11.897   0.462  11.332 -0.1636  0.1376  0.1028
  519loPI    C3 8291  11.979   0.853  11.356  0.0405  0.0940  0.1361
  519loPI   PO4 8292  11.576   0.538  10.836 -0.1655  0.0206  0.0893
  519loPI   GL1 8293  11.499   0.446  10.419  0.0829  0.1016 -0.1826
  519loPI   GL2 8294  11.219   0.657  10.295  0.2755  0.2044 -0.2698
  519loPI   C1A 8295  11.482   0.342   9.953 -0.0755  0.2725  0.1401
  519loPI   C2A 8296  11.630   0.204   9.599 -0.1348  0.2430 -0.0036
  519loPI   C3A 8297  11.698   0.085   9.137 -0.2465  0.2625 -0.0532
  519loPI   C4A 8298  11.731  -0.163   8.784 -0.0227  0.2366  0.1216
  519loPI   C5A 8299  11.657  -0.625   8.622  0.4265 -0.2973  0.0383
  519loPI   C6A 8300  11.584  -1.071   8.555 -0.2027 -0.0541 -0.2234
  519loPI   C1B 8301  10.979   0.521   9.968  0.1292  0.0953  0.1302
  519loPI   C2B 8302  10.949   0.593   9.584 -0.3481 -0.0443 -0.0089
  519loPI   C3B 8303  11.084   0.866   9.234 -0.1891 -0.0556  0.3180
  519loPI   C4B 8304  11.285   1.201   9.303  0.0190 -0.1726 -0.0242
  520loPI    C1 8305   4.799   1.848  10.890  0.0418  0.0797  0.0252
  520loPI    C2 8306   4.605   1.886  11.238 -0.1882  0.1252 -0.1062
  520loPI    C3 8307   4.930   1.655  11.215  0.0641  0.4345  0.2323
  520loPI   PO4 8308   4.762   2.101  10.780  0.0178 -0.1512 -0.1074
  520loPI   GL1 8309   4.854   2.292  10.451  0.0078 -0.1752 -0.0599
  520loPI   GL2 8310   4.647   2.277  10.213  0.1563 -0.3316  0.3834
  520loPI   C1A 8311   5.131   2.539  10.103  0.0138  0.0523  0.2002
  520loPI   C2A 8312   5.212   2.509   9.686 -0.0559  0.0683  0.0459
  520loPI   C3A 8313   5.282   2.482   9.211  0.2663 -0.0765  0.0240
  520loPI   C4A 8314   5.065   2.448   8.865  0.1907  0.3569  0.1723
  520loPI   C5A 8315   4.713   2.550   8.553 -0.1708 -0.1357 -0.0229
  520loPI   C6A 8316   4.182   2.503   8.429 -0.2865 -0.2430  0.1719
  520loPI   C1B 8317   4.761   2.230   9.780 -0.0146  0.0534  0.0126
  520loPI   C2B 8318   4.934   2.137   9.358 -0.1643  0.1038  0.2034
  520loPI   C3B 8319   4.849   1.966   8.969 -0.2615  0.0812  0.2379
  520loPI   C4B 8320   4.467   2.075   8.712  0.0518 -0.1083  0.1724
  521loPI    C1 8321  10.003   5.248  11.143 -0.3150  0.0504  0.0418
  521loPI    C2 8322  10.051   5.030  11.475 -0.0372 -0.0402 -0.0555
  521loPI    C3 8323   9.724   5.255  11.430 -0.0923 -0.0515  0.2648
  521loPI   PO4 8324  10.201   5.253  10.970 -0.0800 -0.0792  0.0432
  521loPI   GL1 8325  10.416   4.884  10.660  0.0985  0.0985 -0.1666
  521loPI   GL2 8326  10.590   4.961  10.759 -0.0961 -0.2206  0.1001
  521loPI   C1A 8327  10.121   4.711  10.293  0.2964  0.2532 -0.1739
  521loPI   C2A 8328   9.958   4.892   9.895  0.4278 -0.1508  0.3829
  521loPI   C3A 8329   9.930   5.033   9.442  0.0277 -0.1483  0.1777
  521loPI   C4A 8330   9.874   5.120   9.138  0.0390  0.0563  0.0224
  521loPI   C5A 8331   9.638   4.813   8.867  0.1110 -0.1649 -0.0922
  521loPI   C6A 8332   9.502   4.676   8.419  0.2330 -0.0351 -0.2202
  521loPI   C1B 8333  10.822   4.991  10.380 -0.1010 -0.0378  0.1024
  521loPI   C2B 8334  10.878   4.858  10.047  0.0599  0.2666 -0.2602
  521loPI   C3B 8335  10.764   4.945   9.701  0.1072  0.3492  0.1877
  521loPI   C4B 8336  10.813   4.982   9.202 -0.1057  0.0325 -0.0196
  522loPI    C1 8337   4.138   0.907  10.618  0.0707  0.0464  0.0147
  522loPI    C2 8338   4.171   0.625  10.900  0.0851  0.0379  0.0046
  522loPI    C3 8339   4.124   1.008  11.005  0.0741  0.0328  0.0182
  522loPI   PO4 8340   4.404   0.794  10.426 -0.1040  0.1016  0.1055
  522loPI   GL1 8341   4.265   0.853  10.042  0.2969  0.2091 -0.1508
  522loPI   GL2 8342   3.994   0.798  10.106 -0.0009 -0.2815 -0.0017
  522loPI   C1A 8343   4.389   0.620   9.656 -0.0926 -0.2531 -0.1221
  522loPI   C2A 8344   4.638   0.287   9.402  0.3274  0.0381 -0.2622
  522loPI   C3A 8345   4.579   0.213   8.968 -0.2514 -0.0040  0.0766
  522loPI   C4A 8346   4.493   0.250   8.574  0.0001 -0.1647 -0.1074
  522loPI   C5A 8347   4.258  -0.019   8.250 -0.0209  0.1837  0.1399
  522loPI   C6A 8348   3.978   0.063   7.924  0.0557 -0.0539  0.1931
  522loPI   C1B 8349   3.916   0.545   9.700 -0.2901 -0.0582 -0.1163
  522loPI   C2B 8350   3.860   0.516   9.271  0.2655 -0.0319 -0.1804
  522loPI   C3B 8351   4.104   0.319   8.977 -0.0184 -0.2392  0.0274
  522loPI   C4B 8352   4.192  -0.083   8.752 -0.0165  0.0955 -0.2763
  523loPI    C1 8353   3.957  16.195  10.480 -0.1210 -0.1072 -0.1961
  523loPI    C2 8354   3.620  16.351  10.629 -0.1230 -0.0894 -0.2192
  523loPI    C3 8355   3.711  15.967  10.697  0.0323 -0.0000  0.0962
  523loPI   PO4 8356   3.992  16.310  10.234 -0.1551 -0.0750 -0.0597
  523loPI   GL1 8357   4.085  16.178   9.727  0.0598  0.4382  0.0787
  523loPI   GL2 8358   4.466  16.228   9.690 -0.1162  0.1719 -0.0576
  523loPI   C1A 8359   4.001  16.514   9.412 -0.0229 -0.0955 -0.1259
  523loPI   C2A 8360   3.705  16.739   9.159  0.1245  0.1080  0.0242
  523loPI   C3A 8361   3.622  16.896   8.812 -0.0666  0.1828  0.1732
  523loPI   C4A 8362   3.528  17.214   8.588 -0.2180  0.1277 -0.1418
  523loPI   C5A 8363   3.339  17.251   8.154  0.2126  0.1296  0.1350
  523loPI   C6A 8364   2.904  17.125   8.016  0.0074  0.0614 -0.1836
  523loPI   C1B 8365   4.819  16.133   9.371 -0.1488 -0.2221  0.0816
  523loPI   C2B 8366   4.815  16.111   8.887 -0.0914 -0.0737 -0.1492
  523loPI   C3B 8367   4.878  15.948   8.472 -0.0133  0.3677  0.2332
  523loPI   C4B 8368   4.765  15.924   8.144  0.1003 -0.1443 -0.1338
  524loPI    C1 8369  16.227   0.296  10.978  0.0421 -0.3481 -0.0430
  524loPI    C2 8370  16.137   0.049  11.280 -0.2957 -0.1958 -0.0148
  524loPI    C3 8371  16.326   0.394  11.353 -0.5573 -0.0639  0.0535
  524loPI   PO4 8372  16.348   0.154  10.804  0.1029  0.1837  0.2088
  524loPI   GL1 8373  16.459  -0.049  10.394  0.0422  0.1421 -0.0697
  524loPI   GL2 8374  16.132   0.167  10.300  0.0233 -0.3232  0.3347
  524loPI   C1A 8375  16.403   0.045   9.899  0.1454 -0.5694 -0.0820
  524loPI   C2A 8376  16.490  -0.081   9.414  0.1767  0.1968  0.1377
  524loPI   C3A 8377  16.485  -0.210   8.881  0.0025  0.0332 -0.0185
  524loPI   C4A 8378  16.534  -0.072   8.443 -0.1732 -0.3671 -0.0822
  524loPI   C5A 8379  16.633   0.095   8.016 -0.1603  0.2499  0.0859
  524loPI   C6A 8380  16.922   0.140   7.601  0.1108  0.1910  0.0869
  524loPI   C1B 8381  16.012   0.316   9.930 -0.4056 -0.1776 -0.3340
  524loPI   C2B 8382  16.162   0.342   9.502 -0.1069 -0.0392 -0.0649
  524loPI   C3B 8383  16.118   0.168   9.029 -0.2805 -0.2563 -0.0750
  524loPI   C4B 8384  16.230   0.211   8.633  0.0085 -0.1643  0.1808
  525loPI    C1 8385  15.867  14.156  10.853 -0.1268 -0.0672 -0.0663
  525loPI    C2 8386  15.810  14.513  10.682 -0.0601 -0.0035  0.0433
  525loPI    C3 8387  15.615  14.419  11.018  0.0409 -0.0091  0.1009
  525loPI   PO4 8388  15.842  14.014  10.649 -0.0191  0.1624 -0.0233
  525loPI   GL1 8389  15.969  14.236  10.276  0.2263  0.2405 -0.0576
  525loPI   GL2 8390  16.279  14.108  10.226  0.1233  0.1373 -0.1463
  525loPI   C1A 8391  16.021  14.498  10.016  0.3376  0.0630 -0.2409
  525loPI   C2A 8392  16.021  14.652   9.620  0.1031  0.0824 -0.1073
  525loPI   C3A 8393  15.989  14.522   9.189 -0.2384  0.1053  0.1654
  525loPI   C4A 8394  16.080  14.309   8.826  0.0063 -0.0140  0.2140
  525loPI   C5A 8395  16.248  14.407   8.490 -0.0748  0.1793 -0.1191
  525loPI   C6A 8396  16.542  14.425   8.043  0.3097 -0.0363 -0.2778
  525loPI   C1B 8397  16.403  14.211   9.825  0.0103  0.0150  0.1828
  525loPI   C2B 8398  16.446  14.394   9.452  0.0631 -0.0062 -0.0817
  525loPI   C3B 8399  16.552  14.437   9.008 -0.0451 -0.0842  0.2371
  525loPI   C4B 8400  16.692  14.274   8.676  0.2692  0.3495  0.0720
  526loPI    C1 8401  10.075   5.704  11.354  0.0850 -0.1834  0.0152
  526loPI    C2 8402  10.451   5.594  11.270  0.1185 -0.1410  0.1083
  526loPI    C3 8403  10.281   5.480  11.614  0.0517 -0.1459  0.0738
  526loPI   PO4 8404   9.967   5.742  11.102 -0.0727  0.1152  0.1592
  526loPI   GL1 8405   9.716   5.669  10.817  0.0845 -0.0435 -0.1425
  526loPI   GL2 8406   9.928   5.460  10.649 -0.0166 -0.1054  0.0523
  526loPI   C1A 8407   9.538   5.827  10.514  0.4831  0.0886 -0.1104
  526loPI   C2A 8408   9.594   5.913  10.045 -0.1068 -0.0352  0.0625
  526loPI   C3A 8409   9.670   5.833   9.668 -0.0797 -0.1299  0.1736
  526loPI   C4A 8410   9.618   6.046   9.188 -0.1179  0.0659  0.1115
  526loPI   C5A 8411   9.693   6.096   8.830 -0.1502 -0.0154 -0.0166
  526loPI   C6A 8412   9.657   6.559   8.642 -0.0549 -0.2077  0.4290
  526loPI   C1B 8413  10.069   5.234  10.289  0.5336 -0.0088 -0.1220
  526loPI   C2B 8414  10.451   5.133  10.078 -0.0099  0.0486 -0.1862
  526loPI   C3B 8415  10.419   5.282   9.553 -0.3123 -0.3433 -0.0207
  526loPI   C4B 8416  10.487   5.382   9.147 -0.0735 -0.2123  0.1243
  527loPI    C1 8417   1.201  17.844  10.332 -0.0085 -0.2277  0.0419
  527loPI    C2 8418   1.125  17.804  10.722  0.0215  0.2477  0.1024
  527loPI    C3 8419   0.839  17.935  10.475 -0.0063 -0.0798 -0.0445
  527loPI   PO4 8420   1.452  17.727  10.257  0.1254  0.1295 -0.1557
  527loPI   GL1 8421   1.495  17.430   9.880 -0.0642 -0.1209 -0.2376
  527loPI   GL2 8422   1.750  17.254  10.019 -0.1035 -0.0292 -0.1339
  527loPI   C1A 8423   1.412  17.356   9.443  0.0686  0.0236  0.0777
  527loPI   C2A 8424   1.342  17.321   8.991 -0.0634 -0.2298  0.1120
  527loPI   C3A 8425   1.041  17.219   8.672  0.0344 -0.0113  0.0164
  527loPI   C4A 8426   0.647  17.269   8.564 -0.0379 -0.1455 -0.0719
  527loPI   C5A 8427   0.159  17.153   8.465 -0.2147  0.0706  0.0246
  527loPI   C6A 8428  -0.282  17.038   8.286  0.1198  0.1939  0.0753
  527loPI   C1B 8429   1.925  17.074   9.619  0.0713  0.0499  0.0940
  527loPI   C2B 8430   1.856  17.076   9.172 -0.0823 -0.2214  0.1243
  527loPI   C3B 8431   1.798  17.130   8.852 -0.1306  0.0656 -0.1744
  527loPI   C4B 8432   1.925  17.019   8.602  0.1084  0.1774 -0.1640
  528loPI    C1 8433  10.049  12.493  11.264 -0.1615  0.3153  0.0636
  528loPI    C2 8434  10.444  12.435  11.291 -0.2277 -0.2426 -0.0412
  528loPI    C3 8435  10.249  12.625  11.584  0.1183  0.0697 -0.0055
  528loPI   PO4 8436  10.047  12.571  10.979 -0.2340  0.1560  0.0638
  528loPI   GL1 8437   9.606  12.375  10.740 -0.2522  0.0518 -0.0202
  528loPI   GL2 8438   9.354  12.262  10.514  0.3856  0.2643 -0.3542
  528loPI   C1A 8439   9.795  12.390  10.327  0.0583 -0.1475  0.0946
  528loPI   C2A 8440   9.829  12.417   9.942 -0.2570 -0.1912  0.0202
  528loPI   C3A 8441   9.904  12.396   9.552  0.0148 -0.2655 -0.0407
  528loPI   C4A 8442  10.057  12.584   9.113 -0.5017 -0.2814 -0.0774
  528loPI   C5A 8443   9.938  12.762   8.691 -0.1303  0.0566  0.2788
  528loPI   C6A 8444   9.535  13.124   8.582 -0.2045 -0.0055  0.0217
  528loPI   C1B 8445   9.082  12.218  10.129  0.0351  0.0997 -0.0531
  528loPI   C2B 8446   8.732  12.041   9.925 -0.1639  0.0798  0.1750
  528loPI   C3B 8447   8.707  11.899   9.534 -0.0621  0.0793 -0.0390
  528loPI   C4B 8448   8.646  11.890   9.159  0.1124 -0.0245  0.0692
  529loPI    C1 8449   3.306   3.009  10.507  0.2216  0.1561 -0.0605
  529loPI    C2 8450   3.148   2.928  10.865 -0.1356  0.0672 -0.2332
  529loPI    C3 8451   3.350   2.646  10.667 -0.1252  0.0495 -0.1974
  529loPI   PO4 8452   3.179   3.149  10.416 -0.2450  0.3337  0.0186
  529loPI   GL1 8453   3.179   3.229   9.970  0.1971 -0.2264  0.2904
  529loPI   GL2 8454   3.422   3.452  10.063  0.2137  0.1405  0.0798
  529loPI   C1A 8455   2.852   2.915   9.765  0.1106 -0.2622  0.0602
  529loPI   C2A 8456   2.648   2.599   9.631 -0.0874 -0.1480  0.1986
  529loPI   C3A 8457   2.673   2.244   9.247  0.3960 -0.1941 -0.2666
  529loPI   C4A 8458   2.772   2.287   8.890 -0.0954 -0.3335  0.3802
  529loPI   C5A 8459   2.915   2.022   8.636 -0.0250 -0.4273 -0.1627
  529loPI   C6A 8460   2.799   1.843   8.270 -0.3839  0.0595 -0.0800
  529loPI   C1B 8461   3.444   3.590   9.645 -0.1963  0.0461 -0.0824
  529loPI   C2B 8462   3.497   3.652   9.269 -0.0388 -0.0864 -0.1048
  529loPI   C3B 8463   3.593   3.885   8.912  0.0784  0.0384 -0.0300
  529loPI   C4B 8464   3.600   4.112   8.473 -0.0649  0.1505  0.1667
  530loPI    C1 8465   4.455   9.772  11.006 -0.0462  0.0182 -0.0296
  530loPI    C2 8466   4.083   9.679  11.120 -0.1850  0.0986 -0.4041
  530loPI    C3 8467   4.267   9.997  11.278 -0.1225 -0.1639  0.0702
  530loPI   PO4 8468   4.394   9.737  10.687 -0.1370 -0.0020 -0.5231
  530loPI   GL1 8469   4.348   9.961  10.307 -0.1535  0.1313  0.2843
  530loPI   GL2 8470   4.655  10.188  10.186  0.1468  0.1030  0.0200
  530loPI   C1A 8471   4.267   9.994   9.787 -0.1642  0.0780 -0.1192
  530loPI   C2A 8472   4.291   9.987   9.336 -0.2903 -0.2336  0.1297
  530loPI   C3A 8473   4.196   9.946   8.827 -0.0637  0.0778 -0.0105
  530loPI   C4A 8474   4.208   9.816   8.511 -0.1890 -0.0646  0.4086
  530loPI   C5A 8475   4.017   9.728   8.152 -0.1926 -0.0485  0.2586
  530loPI   C6A 8476   3.742   9.759   7.873  0.0141 -0.2760 -0.1910
  530loPI   C1B 8477   4.788  10.207   9.792 -0.1952 -0.0909  0.2017
  530loPI   C2B 8478   4.751  10.191   9.366  0.3632 -0.1371  0.3090
  530loPI   C3B 8479   4.742  10.086   8.974  0.0825  0.3486  0.3708
  530loPI   C4B 8480   4.637  10.011   8.563 -0.1348 -0.1184 -0.0334
  531loPI    C1 8481  12.723   5.595  11.087  0.1440  0.0630  0.3642
  531loPI    C2 8482  12.361   5.741  11.000  0.1727 -0.1179 -0.0822
  531loPI    C3 8483  12.408   5.499  11.315 -0.1247 -0.2137 -0.1089
  531loPI   PO4 8484  12.884   5.368  10.896  0.1054  0.1028  0.0219
  531loPI   GL1 8485  12.996   5.198  10.620 -0.0821 -0.0887  0.1168
  531loPI   GL2 8486  12.771   4.993  10.553  0.2989 -0.1938 -0.1794
  531loPI   C1A 8487  13.264   5.492  10.245  0.0262 -0.0144 -0.0476
  531loPI   C2A 8488  13.168   5.520   9.794  0.0313  0.3226 -0.2482
  531loPI   C3A 8489  13.262   5.486   9.413  0.0473  0.0503 -0.1561
  531loPI   C4A 8490  13.172   5.502   9.058 -0.2657  0.1857 -0.2112
  531loPI   C5A 8491  13.190   5.451   8.649  0.1424  0.1504  0.1310
  531loPI   C6A 8492  13.061   5.187   8.339 -0.0704  0.1105 -0.2911
  531loPI   C1B 8493  12.789   5.213  10.137 -0.1743 -0.0437  0.1615
  531loPI   C2B 8494  12.713   5.260   9.646  0.0559  0.2426 -0.0913
  531loPI   C3B 8495  12.708   5.287   9.219 -0.2506  0.1248  0.0670
  531loPI   C4B 8496  12.619   5.322   8.787  0.0823  0.0550 -0.1816
  532loPI    C1 8497   9.745  17.495  10.559  0.1227 -0.2684 -0.2923
  532loPI    C2 8498   9.496  17.241  10.742  0.0806 -0.0453 -0.0317
  532loPI    C3 8499   9.843  17.340  10.915  0.1124  0.0481 -0.1476
  532loPI   PO4 8500   9.724  17.452  10.269 -0.1112  0.0778 -0.0183
  532loPI   GL1 8501   9.715  17.661   9.987 -0.1169 -0.0032  0.1280
  532loPI   GL2 8502   9.658  17.975   9.853 -0.3674 -0.1611 -0.0591
  532loPI   C1A 8503   9.860  17.579   9.591  0.3125 -0.1856  0.1659
  532loPI   C2A 8504   9.836  17.498   9.162 -0.1528 -0.1858  0.0468
  532loPI   C3A 8505  10.219  17.193   9.110  0.0424 -0.2942  0.1976
  532loPI   C4A 8506  10.506  17.106   8.758 -0.1550 -0.0084  0.1741
  532loPI   C5A 8507  10.875  16.786   8.590  0.2159 -0.0044 -0.1416
  532loPI   C6A 8508  11.186  16.455   8.359  0.0088  0.0079 -0.0205
  532loPI   C1B 8509   9.632  17.976   9.412 -0.0153 -0.2050  0.2960
  532loPI   C2B 8510   9.739  18.203   9.074  0.0076  0.2396  0.1747
  532loPI   C3B 8511   9.753  18.307   8.607 -0.0499 -0.1579 -0.2660
  532loPI   C4B 8512   9.827  18.662   8.299  0.4027 -0.1039  0.1585
  533loPI    C1 8513   1.578  11.128  10.941 -0.0220 -0.1260  0.0407
  533loPI    C2 8514   1.790  11.316  11.223  0.1040 -0.0177 -0.1240
  533loPI    C3 8515   1.523  11.037  11.327 -0.0317  0.1973  0.1188
  533loPI   PO4 8516   1.756  11.109  10.778  0.1768 -0.2258  0.3643
  533loPI   GL1 8517   2.025  10.870  10.453 -0.2015 -0.2521 -0.0681
  533loPI   GL2 8518   2.212  10.754  10.398  0.0137  0.1950  0.0364
  533loPI   C1A 8519   1.871  10.698  10.063 -0.1883  0.2304  0.2006
  533loPI   C2A 8520   2.026  10.460   9.809 -0.2232 -0.2049  0.0126
  533loPI   C3A 8521   2.012  10.439   9.371  0.1932 -0.3238 -0.3029
  533loPI   C4A 8522   2.037  10.423   8.899 -0.3601  0.5875  0.0884
  533loPI   C5A 8523   2.110  10.638   8.544  0.1306  0.0826 -0.0983
  533loPI   C6A 8524   2.428  10.800   8.271  0.2221 -0.4652  0.0446
  533loPI   C1B 8525   2.418  10.720  10.010 -0.3901  0.0065  0.0084
  533loPI   C2B 8526   2.619  10.680   9.594 -0.2089 -0.2849  0.1717
  533loPI   C3B 8527   2.444  10.693   9.155 -0.0753 -0.0350  0.1521
  533loPI   C4B 8528   2.500  10.839   8.761 -0.1017  0.2910  0.0070
  534loPI    C1 8529   8.507  17.565  10.811  0.1084  0.0633 -0.0530
  534loPI    C2 8530   8.701  17.757  11.103 -0.0166 -0.0897  0.1329
  534loPI    C3 8531   8.325  17.859  11.012  0.0945  0.1028 -0.1232
  534loPI   PO4 8532   8.730  17.550  10.642  0.3370  0.2221 -0.1119
  534loPI   GL1 8533   8.820  17.878  10.283  0.1731 -0.0439 -0.0673
  534loPI   GL2 8534   8.597  17.861  10.034 -0.1106 -0.0062 -0.0130
  534loPI   C1A 8535   9.112  17.894   9.877  0.1106 -0.0062  0.2395
  534loPI   C2A 8536   9.131  17.943   9.426 -0.2229 -0.1390  0.1869
  534loPI   C3A 8537   9.313  17.981   8.991  0.0902  0.0653  0.1293
  534loPI   C4A 8538   9.720  17.839   8.751  0.0032 -0.1228  0.2304
  534loPI   C5A 8539  10.009  17.904   8.368 -0.0569  0.0424 -0.1352
  534loPI   C6A 8540   9.996  18.116   8.030  0.0553  0.0130 -0.0302
  534loPI   C1B 8541   8.563  17.815   9.571 -0.0212 -0.2167 -0.0858
  534loPI   C2B 8542   8.694  17.988   9.192  0.0110  0.0225  0.1264
  534loPI   C3B 8543   8.864  18.048   8.847 -0.0289  0.1166  0.0941
  534loPI   C4B 8544   8.648  18.169   8.603 -0.0417  0.2194  0.1456
  535loPI    C1 8545  11.522  12.589  11.007  0.1723  0.0972  0.0817
  535loPI    C2 8546  11.409  12.218  11.107 -0.0636  0.1361 -0.0332
  535loPI    C3 8547  11.607  12.445  11.371 -0.0879 -0.0019  0.1054
  535loPI   PO4 8548  11.381  12.686  10.824  0.3716  0.0468 -0.4562
  535loPI   GL1 8549  11.326  12.556  10.312  0.4689  0.2571 -0.1796
  535loPI   GL2 8550  11.096  12.833  10.352 -0.1337  0.1267 -0.0306
  535loPI   C1A 8551  11.059  12.435   9.965  0.0683 -0.1809 -0.1562
  535loPI   C2A 8552  10.740  12.259   9.791 -0.0521 -0.3084 -0.2687
  535loPI   C3A 8553  10.336  12.029   9.603  0.1830 -0.1259 -0.0426
  535loPI   C4A 8554  10.107  11.959   9.280 -0.0887 -0.2007  0.2248
  535loPI   C5A 8555  10.082  12.068   8.785  0.2405 -0.1395 -0.1875
  535loPI   C6A 8556  10.170  12.100   8.390  0.1196  0.1280 -0.1362
  535loPI   C1B 8557  10.851  12.923   9.933  0.2902 -0.0269  0.1994
  535loPI   C2B 8558  10.921  12.700   9.516 -0.1119  0.3477  0.0049
  535loPI   C3B 8559  10.698  12.774   9.099 -0.1781  0.0739  0.1716
  535loPI   C4B 8560  10.469  12.451   8.830 -0.2681 -0.0877  0.2976
  536loPI    C1 8561   4.982  12.579  10.875 -0.1163 -0.0099  0.1025
  536loPI    C2 8562   5.334  12.768  10.885 -0.1316  0.0236  0.0182
  536loPI    C3 8563   5.021  12.919  11.083 -0.1228  0.0435  0.0170
  536loPI   PO4 8564   4.884  12.454  10.620  0.5133 -0.2811  0.3492
  536loPI   GL1 8565   4.997  12.563  10.264 -0.2185  0.1718  0.3103
  536loPI   GL2 8566   5.301  12.533  10.292  0.1356 -0.2318 -0.1542
  536loPI   C1A 8567   4.724  12.718   9.916  0.1215 -0.2229  0.1976
  536loPI   C2A 8568   4.693  12.502   9.551  0.0617  0.2575 -0.0852
  536loPI   C3A 8569   4.716  12.539   9.123 -0.0272  0.1266 -0.1044
  536loPI   C4A 8570   4.604  12.412   8.673  0.0608 -0.2573  0.1221
  536loPI   C5A 8571   4.684  12.345   8.190  0.1650  0.3030 -0.1948
  536loPI   C6A 8572   4.930  12.645   7.922  0.1929 -0.0268  0.3585
  536loPI   C1B 8573   5.264  12.386   9.841  0.0079  0.0210  0.0662
  536loPI   C2B 8574   5.216  12.216   9.449 -0.0248  0.3887  0.0910
  536loPI   C3B 8575   5.031  12.176   9.037 -0.0032  0.0317  0.0203
  536loPI   C4B 8576   5.034  12.088   8.518 -0.1908 -0.0364 -0.2005
  537loPI    C1 8577   7.480  13.770  10.729 -0.2676  0.1907 -0.1112
  537loPI    C2 8578   7.101  13.790  10.856 -0.2175 -0.0661  0.0864
  537loPI    C3 8579   7.397  13.927  11.088 -0.1634 -0.1378  0.0603
  537loPI   PO4 8580   7.500  13.514  10.682 -0.1990 -0.0290  0.0556
  537loPI   GL1 8581   7.591  13.357  10.358  0.0623 -0.1864  0.4251
  537loPI   GL2 8582   7.419  13.511  10.183  0.0481 -0.0949  0.4811
  537loPI   C1A 8583   7.491  13.058   9.992  0.2077 -0.2454 -0.3294
  537loPI   C2A 8584   7.553  12.974   9.576 -0.3681  0.1261  0.1925
  537loPI   C3A 8585   7.663  13.077   9.136 -0.3538  0.0700 -0.1918
  537loPI   C4A 8586   7.667  13.131   8.712 -0.1097 -0.2284 -0.1247
  537loPI   C5A 8587   7.980  13.092   8.412  0.2194  0.1934  0.3247
  537loPI   C6A 8588   8.025  12.818   8.125 -0.2361  0.2291  0.1777
  537loPI   C1B 8589   7.425  13.531   9.740 -0.2885 -0.1818  0.1121
  537loPI   C2B 8590   7.396  13.420   9.426 -0.2458  0.2697  0.1224
  537loPI   C3B 8591   7.348  13.637   8.980  0.0801  0.0087 -0.1758
  537loPI   C4B 8592   7.619  13.695   8.726  0.2937 -0.2367 -0.0551
  538loPI    C1 8593  14.828  14.091  10.961 -0.0157 -0.1549  0.3814
  538loPI    C2 8594  14.818  14.491  10.978 -0.3364 -0.1417 -0.0007
  538loPI    C3 8595  15.141  14.294  11.107 -0.0654  0.2549 -0.0566
  538loPI   PO4 8596  14.742  13.983  10.802 -0.1834 -0.4359  0.4567
  538loPI   GL1 8597  14.819  14.010  10.344  0.0354  0.1221 -0.1895
  538loPI   GL2 8598  14.901  14.359  10.494 -0.0125 -0.2365  0.4950
  538loPI   C1A 8599  15.116  13.948   9.949  0.2773  0.0852 -0.0323
  538loPI   C2A 8600  15.281  13.891   9.446  0.1415  0.0148 -0.1661
  538loPI   C3A 8601  15.402  13.501   9.146  0.0790  0.1447  0.0202
  538loPI   C4A 8602  15.566  13.376   8.850 -0.1912  0.1670 -0.2770
  538loPI   C5A 8603  15.929  13.449   8.606 -0.0012  0.2738 -0.0955
  538loPI   C6A 8604  16.002  13.259   8.259  0.1585 -0.0265  0.0182
  538loPI   C1B 8605  15.063  14.395  10.053  0.0086  0.1220 -0.5197
  538loPI   C2B 8606  15.160  14.372   9.622  0.2343 -0.0295 -0.1181
  538loPI   C3B 8607  15.020  14.413   9.246  0.0673  0.2729 -0.0565
  538loPI   C4B 8608  15.062  14.522   8.886  0.0038  0.0286 -0.1575
  539loPI    C1 8609  16.093   5.116  11.190 -0.0800 -0.0225  0.0776
  539loPI    C2 8610  16.010   4.881  11.503  0.0222  0.0690  0.1744
  539loPI    C3 8611  16.278   5.176  11.539 -0.0587  0.1614  0.0360
  539loPI   PO4 8612  16.087   4.908  10.985  0.3940  0.0528 -0.2375
  539loPI   GL1 8613  15.798   4.924  10.561 -0.0880 -0.3111 -0.0928
  539loPI   GL2 8614  15.576   5.194  10.471 -0.0780  0.2556 -0.1564
  539loPI   C1A 8615  15.960   5.116  10.111  0.2453  0.1967 -0.1568
  539loPI   C2A 8616  16.259   5.130   9.873 -0.1037 -0.2804 -0.3296
  539loPI   C3A 8617  16.346   5.121   9.474 -0.4363  0.1466  0.0548
  539loPI   C4A 8618  16.527   5.210   9.108  0.1190 -0.0757 -0.0329
  539loPI   C5A 8619  16.453   5.175   8.682 -0.3921  0.0516  0.1666
  539loPI   C6A 8620  16.487   5.189   8.216  0.2121  0.3109  0.2311
  539loPI   C1B 8621  15.541   5.430  10.105 -0.0313  0.0747 -0.1261
  539loPI   C2B 8622  15.447   5.250   9.780  0.3613  0.0693 -0.0089
  539loPI   C3B 8623  15.392   5.210   9.327 -0.0524  0.1135  0.1511
  539loPI   C4B 8624  15.427   4.960   8.972  0.3317 -0.1121 -0.0157
  540loPI    C1 8625   9.926   4.142  11.669 -0.0189  0.1117  0.0348
  540loPI    C2 8626  10.042   3.831  11.893 -0.1654 -0.1009 -0.1798
  540loPI    C3 8627   9.900   4.162  12.068  0.1873 -0.0705  0.0591
  540loPI   PO4 8628   9.773   3.924  11.457  0.0974  0.1625 -0.1360
  540loPI   GL1 8629   9.657   4.050  11.021  0.0292  0.0320 -0.0129
  540loPI   GL2 8630   9.775   4.315  10.913  0.2944  0.1742 -0.2338
  540loPI   C1A 8631   9.680   3.901  10.575  0.2199 -0.1245 -0.0536
  540loPI   C2A 8632   9.891   3.834  10.142  0.3283  0.1142  0.0733
  540loPI   C3A 8633   9.834   3.944   9.807 -0.0589 -0.1516  0.2610
  540loPI   C4A 8634   9.776   3.978   9.405  0.0995  0.0079 -0.1603
  540loPI   C5A 8635   9.821   4.090   9.074  0.0576 -0.0941 -0.0225
  540loPI   C6A 8636   9.907   4.360   8.643 -0.1245  0.0823  0.1704
  540loPI   C1B 8637   9.725   4.428  10.472 -0.2625 -0.2370 -0.0769
  540loPI   C2B 8638   9.833   4.334  10.086 -0.1049  0.0444  0.1187
  540loPI   C3B 8639   9.820   4.470   9.642 -0.0248 -0.2879 -0.2339
  540loPI   C4B 8640   9.839   4.570   9.218  0.1862  0.0175  0.0992
  541loPI    C1 8641   1.600   0.298  10.397 -0.1674  0.0157  0.0642
  541loPI    C2 8642   1.263   0.494  10.484  0.1029  0.3968  0.2824
  541loPI    C3 8643   1.454   0.288  10.769  0.0235  0.1274  0.1439
  541loPI   PO4 8644   1.834   0.373  10.360 -0.0338 -0.2490 -0.0289
  541loPI   GL1 8645   1.945   0.596  10.014  0.0433 -0.2505  0.2310
  541loPI   GL2 8646   1.882   0.831  10.211 -0.0603  0.0024 -0.1558
  541loPI   C1A 8647   1.954   0.714   9.503 -0.0329  0.1901  0.1570
  541loPI   C2A 8648   1.978   0.897   9.115 -0.1355  0.0367 -0.1144
  541loPI   C3A 8649   2.186   1.070   8.780 -0.1941 -0.2171  0.2985
  541loPI   C4A 8650   2.062   1.174   8.261  0.1768 -0.0896  0.1938
  541loPI   C5A 8651   1.865   0.970   7.864 -0.2533  0.1635  0.0226
  541loPI   C6A 8652   2.053   0.541   7.788  0.2700 -0.1992  0.0046
  541loPI   C1B 8653   2.024   1.252   9.948  0.0358  0.1362 -0.3519
  541loPI   C2B 8654   2.099   1.257   9.478  0.2890 -0.2065 -0.3006
  541loPI   C3B 8655   2.038   1.466   9.134 -0.1370 -0.1095  0.0752
  541loPI   C4B 8656   2.133   1.546   8.701 -0.0486 -0.0603  0.0980
  542loPI    C1 8657   6.562   1.279  10.928 -0.1123  0.0823  0.0177
  542loPI    C2 8658   6.369   1.047  11.191  0.0284  0.0554  0.0978
  542loPI    C3 8659   6.352   1.446  11.225 -0.0588  0.0542  0.0713
  542loPI   PO4 8660   6.559   1.175  10.678  0.1675 -0.2755  0.1775
  542loPI   GL1 8661   6.347   1.137  10.312  0.1828 -0.0793  0.1709
  542loPI   GL2 8662   6.612   1.310  10.203 -0.1380  0.1574 -0.2868
  542loPI   C1A 8663   6.012   1.169  10.053  0.1215 -0.4514 -0.2017
  542loPI   C2A 8664   5.825   1.321   9.636 -0.5265 -0.0652  0.1363
  542loPI   C3A 8665   5.851   1.438   9.197 -0.1487  0.1681 -0.1929
  542loPI   C4A 8666   5.785   1.626   8.815  0.0943  0.1710 -0.0534
  542loPI   C5A 8667   5.681   1.771   8.418  0.0382 -0.2246 -0.3258
  542loPI   C6A 8668   5.363   1.967   8.105 -0.2284  0.0210 -0.0284
  542loPI   C1B 8669   6.535   1.609   9.887 -0.2894 -0.0932 -0.0135
  542loPI   C2B 8670   6.288   1.532   9.471 -0.0729 -0.0961  0.3303
  542loPI   C3B 8671   6.217   1.746   9.110  0.0872 -0.0479  0.4228
  542loPI   C4B 8672   6.265   1.745   8.698  0.1161 -0.2250  0.0922
  543loPI    C1 8673  17.193   2.419  10.917 -0.0588  0.0277 -0.2543
  543loPI    C2 8674  17.502   2.578  11.114 -0.0995 -0.1675 -0.0282
  543loPI    C3 8675  17.140   2.746  11.140 -0.1167 -0.2246  0.1112
  543loPI   PO4 8676  17.293   2.375  10.722  0.2431  0.0404  0.3780
  543loPI   GL1 8677  17.375   2.370  10.268  0.2895 -0.2746 -0.2875
  543loPI   GL2 8678  17.649   2.551  10.206 -0.0042 -0.2308  0.2976
  543loPI   C1A 8679  17.192   2.193   9.948 -0.0650 -0.2724 -0.0657
  543loPI   C2A 8680  17.243   2.146   9.554  0.0404 -0.1691 -0.0787
  543loPI   C3A 8681  17.322   2.224   9.100 -0.0625  0.0457  0.3799
  543loPI   C4A 8682  17.258   2.112   8.707 -0.1843  0.1746 -0.0922
  543loPI   C5A 8683  17.285   2.291   8.333 -0.0348  0.0822  0.1521
  543loPI   C6A 8684  17.217   2.560   8.029  0.0182  0.0333 -0.1154
  543loPI   C1B 8685  17.629   2.352   9.825 -0.0424  0.0296  0.2191
  543loPI   C2B 8686  17.761   2.326   9.415  0.0827  0.2730  0.1969
  543loPI   C3B 8687  17.759   2.401   8.967  0.0663  0.2602 -0.1428
  543loPI   C4B 8688  17.792   2.346   8.473 -0.0248  0.0315  0.0099
  544loPI    C1 8689   4.634   0.834  10.869  0.0152 -0.0028  0.0246
  544loPI    C2 8690   4.589   1.095  11.169 -0.1518  0.1420 -0.1238
  544loPI    C3 8691   4.550   0.703  11.237  0.0038  0.1604  0.0810
  544loPI   PO4 8692   4.816   0.964  10.723 -0.0528  0.0455 -0.3543
  544loPI   GL1 8693   4.777   1.202  10.335 -0.0841  0.0793 -0.1365
  544loPI   GL2 8694   4.825   0.894  10.217  0.0460 -0.2018 -0.2992
  544loPI   C1A 8695   5.076   1.223   9.965 -0.0034  0.0695 -0.2975
  544loPI   C2A 8696   5.398   1.042   9.717 -0.0412 -0.3172 -0.0374
  544loPI   C3A 8697   5.442   0.898   9.256 -0.1301  0.3314  0.0122
  544loPI   C4A 8698   5.592   1.102   8.921  0.0786 -0.2877  0.2241
  544loPI   C5A 8699   5.814   1.161   8.549 -0.1220  0.2499  0.0954
  544loPI   C6A 8700   5.955   1.409   8.184 -0.0232 -0.2767 -0.0771
  544loPI   C1B 8701   4.690   1.004   9.749 -0.0104  0.2517  0.1956
  544loPI   C2B 8702   4.930   1.120   9.350  0.0815 -0.0136  0.3424
  544loPI   C3B 8703   4.898   1.065   8.849 -0.2626 -0.1854  0.3354
  544loPI   C4B 8704   5.044   1.091   8.420 -0.0815  0.1118 -0.0023
  545loPI    C1 8705   1.905  17.086  10.639 -0.2006  0.1431  0.0589
  545loPI    C2 8706   2.189  16.999  10.907  0.0176  0.0488 -0.1978
  545loPI    C3 8707   2.080  17.379  10.848  0.1779  0.0973 -0.1845
  545loPI   PO4 8708   2.032  16.995  10.420  0.1334 -0.1206 -0.4050
  545loPI   GL1 8709   2.415  16.931  10.105 -0.2214  0.1607 -0.1366
  545loPI   GL2 8710   2.611  16.707  10.081 -0.1443 -0.3787 -0.3653
  545loPI   C1A 8711   2.412  17.234   9.770  0.1287 -0.0976 -0.3383
  545loPI   C2A 8712   2.276  17.308   9.354  0.0406  0.2088  0.2181
  545loPI   C3A 8713   2.229  17.473   8.869 -0.2848 -0.0455 -0.4423
  545loPI   C4A 8714   2.125  17.438   8.388  0.1896 -0.1821 -0.1805
  545loPI   C5A 8715   1.829  17.176   8.077 -0.1997  0.1228  0.1587
  545loPI   C6A 8716   1.567  16.836   8.240  0.0727 -0.0067 -0.2244
  545loPI   C1B 8717   2.690  16.466   9.711 -0.2966  0.0543  0.1680
  545loPI   C2B 8718   2.856  16.540   9.187  0.0285  0.1520 -0.0166
  545loPI   C3B 8719   2.842  16.687   8.750 -0.0580 -0.0310 -0.0096
  545loPI   C4B 8720   2.531  16.752   8.267  0.0354  0.0182 -0.1986
  546loPI    C1 8721  10.782  11.761  11.028 -0.0020 -0.0541 -0.0513
  546loPI    C2 8722  10.829  12.129  11.177 -0.1404 -0.0805  0.0590
  546loPI    C3 8723  11.083  11.838  11.281  0.0552  0.0161 -0.1399
  546loPI   PO4 8724  10.799  11.862  10.746 -0.0977  0.1014 -0.0041
  546loPI   GL1 8725  10.509  11.869  10.487  0.1146  0.2323 -0.1567
  546loPI   GL2 8726  10.376  11.646  10.389 -0.2490 -0.3160  0.1259
  546loPI   C1A 8727  10.680  11.827   9.988 -0.0410  0.2995  0.0539
  546loPI   C2A 8728  10.760  11.785   9.513 -0.1394  0.3618  0.0773
  546loPI   C3A 8729  10.974  11.855   9.136 -0.1378  0.2735 -0.1166
  546loPI   C4A 8730  10.959  11.904   8.715 -0.1836  0.2512  0.0102
  546loPI   C5A 8731  11.199  11.919   8.341  0.0745  0.3020  0.0806
  546loPI   C6A 8732  11.342  11.910   7.945 -0.0626  0.0647  0.0743
  546loPI   C1B 8733  10.225  11.581  10.094 -0.2542  0.0179 -0.1114
  546loPI   C2B 8734  10.284  11.494   9.733 -0.1579  0.0490 -0.1790
  546loPI   C3B 8735  10.360  11.532   9.355 -0.1887  0.0984 -0.2999
  546loPI   C4B 8736  10.268  11.498   8.932 -0.2906 -0.0474 -0.0540
  547loPI    C1 8737  16.771   3.663  11.067  0.3831  0.1049 -0.0815
  547loPI    C2 8738  17.001   3.951  11.222  0.1769  0.2358 -0.0140
  547loPI    C3 8739  16.615   4.023  11.146  0.1330 -0.0117 -0.0333
  547loPI   PO4 8740  16.835   3.522  10.826  0.3975 -0.1659  0.1679
  547loPI   GL1 8741  16.844   3.587  10.374 -0.4157  0.0425  0.0648
  547loPI   GL2 8742  17.122   3.631  10.153  0.1277  0.1865  0.1357
  547loPI   C1A 8743  16.670   3.840  10.039  0.1129  0.2692 -0.1014
  547loPI   C2A 8744  16.600   3.865   9.620 -0.2353  0.1025 -0.1110
  547loPI   C3A 8745  16.559   3.810   9.211 -0.1027 -0.1374 -0.0613
  547loPI   C4A 8746  16.606   3.797   8.813 -0.2441  0.2171 -0.1348
  547loPI   C5A 8747  16.614   3.874   8.371 -0.1102  0.2154  0.1112
  547loPI   C6A 8748  16.190   3.900   8.128  0.1012 -0.1383  0.0821
  547loPI   C1B 8749  16.945   3.569   9.731  0.1072 -0.0041  0.1136
  547loPI   C2B 8750  17.005   3.518   9.277  0.0262  0.1033 -0.1788
  547loPI   C3B 8751  17.007   3.456   8.802  0.1335  0.2470  0.0414
  547loPI   C4B 8752  17.053   3.535   8.347  0.1094  0.3514 -0.0805
  548loPI    C1 8753  16.806   1.588  10.689  0.0529 -0.0567  0.0546
  548loPI    C2 8754  16.608   1.768  10.392  0.2059 -0.0628 -0.0526
  548loPI    C3 8755  16.408   1.624  10.707  0.0517  0.0229 -0.1099
  548loPI   PO4 8756  16.936   1.441  10.594 -0.3866 -0.0016 -0.1232
  548loPI   GL1 8757  17.032   1.502  10.198  0.1512 -0.0780  0.1586
  548loPI   GL2 8758  17.023   1.162  10.160  0.3371  0.0533 -0.0751
  548loPI   C1A 8759  17.192   1.684   9.814  0.1708  0.1757  0.0108
  548loPI   C2A 8760  17.254   1.675   9.403 -0.0570 -0.1844 -0.0036
  548loPI   C3A 8761  17.266   1.682   8.990 -0.1112  0.2959 -0.3828
  548loPI   C4A 8762  17.214   1.511   8.613  0.1075  0.2479  0.1260
  548loPI   C5A 8763  17.067   1.411   8.175 -0.2175  0.1579 -0.0682
  548loPI   C6A 8764  16.629   1.320   7.969 -0.1085  0.0135  0.1289
  548loPI   C1B 8765  17.105   1.172   9.703 -0.1878 -0.1644  0.2107
  548loPI   C2B 8766  17.172   1.167   9.272  0.1012  0.0698 -0.2378
  548loPI   C3B 8767  17.238   1.108   8.928 -0.2411  0.0784 -0.0579
  548loPI   C4B 8768  17.247   1.048   8.520  0.0665 -0.0869  0.0830
  549loPI    C1 8769  17.256   7.540  11.130 -0.0547  0.1733 -0.0991
  549loPI    C2 8770  16.877   7.613  11.235 -0.0434 -0.0350  0.0938
  549loPI    C3 8771  17.068   7.295  11.384  0.0799 -0.1564 -0.3109
  549loPI   PO4 8772  17.200   7.500  10.803 -0.0177 -0.0581 -0.0625
  549loPI   GL1 8773  17.288   7.377  10.514 -0.0373  0.4278  0.0498
  549loPI   GL2 8774  17.518   7.146  10.462  0.0391  0.0610  0.1007
  549loPI   C1A 8775  17.149   7.535  10.170  0.1883  0.0568 -0.1706
  549loPI   C2A 8776  17.045   7.442   9.780  0.2026 -0.0726  0.0029
  549loPI   C3A 8777  17.068   7.277   9.397  0.0097  0.0740 -0.0585
  549loPI   C4A 8778  17.263   7.300   9.038  0.2391 -0.3879  0.0523
  549loPI   C5A 8779  17.150   7.473   8.596  0.1691  0.0719 -0.0064
  549loPI   C6A 8780  16.874   7.722   8.246 -0.0811  0.0372 -0.0078
  549loPI   C1B 8781  17.477   7.227   9.953  0.3326  0.3394 -0.1223
  549loPI   C2B 8782  17.565   7.125   9.505 -0.0270  0.0132 -0.1611
  549loPI   C3B 8783  17.634   7.011   9.017  0.1020  0.4271 -0.1449
  549loPI   C4B 8784  17.460   6.952   8.515 -0.3284  0.2207  0.1971
  550loPI    C1 8785   9.024   6.732  11.386  0.0851 -0.1234 -0.0425
  550loPI    C2 8786   8.631   6.708  11.318  0.0757  0.0432 -0.0509
  550loPI    C3 8787   8.792   6.512  11.627  0.0009 -0.1005 -0.1021
  550loPI   PO4 8788   9.097   6.738  11.183  0.0001  0.1007  0.1558
  550loPI   GL1 8789   9.218   6.654  10.827 -0.1740  0.2048  0.1866
  550loPI   GL2 8790   8.931   6.817  10.745  0.4074  0.0049  0.1645
  550loPI   C1A 8791   9.231   6.630  10.370  0.1554 -0.1674  0.1013
  550loPI   C2A 8792   9.228   6.605   9.998 -0.1666 -0.0064  0.1864
  550loPI   C3A 8793   9.356   6.767   9.628 -0.0875 -0.0314  0.1724
  550loPI   C4A 8794   9.331   6.799   9.178 -0.0020  0.1399 -0.0461
  550loPI   C5A 8795   9.385   6.949   8.895  0.0720  0.0433 -0.0942
  550loPI   C6A 8796   9.856   6.992   8.835 -0.0787  0.1220 -0.1702
  550loPI   C1B 8797   8.861   6.913  10.228  0.2211 -0.1335 -0.2089
  550loPI   C2B 8798   8.808   7.035   9.809  0.1945 -0.1315  0.0873
  550loPI   C3B 8799   8.834   7.168   9.329 -0.1582  0.2383 -0.0863
  550loPI   C4B 8800   8.945   7.114   8.943  0.2943 -0.0726  0.0495
  551loPI    C1 8801   5.850  10.334  11.222  0.1478 -0.2073  0.0935
  551loPI    C2 8802   5.506  10.130  11.225  0.0458 -0.0364  0.1142
  551loPI    C3 8803   5.555  10.443  11.470  0.3569 -0.2896  0.3830
  551loPI   PO4 8804   5.941  10.292  11.007  0.4064 -0.0230 -0.0880
  551loPI   GL1 8805   5.840  10.338  10.657  0.0378 -0.1174  0.1158
  551loPI   GL2 8806   5.949  10.506  10.460 -0.1442  0.3141  0.0161
  551loPI   C1A 8807   5.589  10.161  10.302 -0.2713 -0.0381 -0.0253
  551loPI   C2A 8808   5.621  10.042   9.927  0.0928 -0.2022  0.0779
  551loPI   C3A 8809   5.615  10.012   9.464  0.0439  0.1571  0.3205
  551loPI   C4A 8810   5.687   9.975   9.065  0.1286 -0.2284 -0.1278
  551loPI   C5A 8811   5.668   9.907   8.663  0.2166 -0.1914 -0.2648
  551loPI   C6A 8812   5.488  10.042   8.274  0.1534 -0.1066 -0.0527
  551loPI   C1B 8813   6.116  10.283  10.134  0.1927 -0.0538 -0.1303
  551loPI   C2B 8814   6.053  10.189   9.690 -0.0634 -0.0300 -0.1484
  551loPI   C3B 8815   6.154  10.267   9.301  0.0301  0.0124 -0.0728
  551loPI   C4B 8816   6.089  10.230   8.906 -0.2137 -0.1277 -0.1160
  552loPI    C1 8817   4.863  15.447  10.375 -0.0576  0.0084  0.2445
  552loPI    C2 8818   5.201  15.488  10.166 -0.2405  0.0904 -0.0405
  552loPI    C3 8819   5.136  15.716  10.488 -0.0970  0.1906 -0.0813
  552loPI   PO4 8820   4.690  15.414  10.151 -0.2112 -0.2764  0.1329
  552loPI   GL1 8821   4.887  15.414   9.782 -0.1192  0.3551 -0.1016
  552loPI   GL2 8822   5.099  15.267   9.642 -0.0284 -0.0605  0.1791
  552loPI   C1A 8823   4.693  15.504   9.370  0.0630  0.0114 -0.1028
  552loPI   C2A 8824   4.751  15.522   8.995  0.1114  0.2553  0.3578
  552loPI   C3A 8825   4.571  15.411   8.466  0.0910 -0.2480 -0.0844
  552loPI   C4A 8826   4.614  15.212   8.098 -0.0951  0.0901  0.2470
  552loPI   C5A 8827   4.530  14.861   7.794 -0.0792  0.2020 -0.0825
  552loPI   C6A 8828   4.468  14.598   7.486  0.4428 -0.3792 -0.0751
  552loPI   C1B 8829   5.134  15.154   9.246 -0.1062 -0.1294 -0.2376
  552loPI   C2B 8830   5.114  15.025   8.833 -0.0884 -0.0537  0.0555
  552loPI   C3B 8831   4.996  14.997   8.466  0.2805  0.2090 -0.0677
  552loPI   C4B 8832   5.015  14.933   7.972 -0.1975 -0.0487  0.1080
  553loPI    C1 8833   5.340   9.642  11.236 -0.1353  0.2246 -0.0288
  553loPI    C2 8834   4.970   9.502  11.295 -0.0072 -0.1822 -0.1557
  553loPI    C3 8835   5.249   9.456  11.578  0.0025 -0.0642 -0.1455
  553loPI   PO4 8836   5.391   9.656  11.004  0.1017  0.1202  0.2817
  553loPI   GL1 8837   5.638   9.468  10.649 -0.1288 -0.0911  0.2800
  553loPI   GL2 8838   5.232   9.446  10.570 -0.1212 -0.0925 -0.4435
  553loPI   C1A 8839   5.575   9.508  10.169 -0.0831 -0.1686 -0.1978
  553loPI   C2A 8840   5.574   9.555   9.806  0.1156 -0.0227 -0.2398
  553loPI   C3A 8841   5.527   9.558   9.332 -0.2225 -0.1828  0.0221
  553loPI   C4A 8842   5.539   9.432   8.903  0.0957 -0.1202  0.1393
  553loPI   C5A 8843   5.493   9.447   8.529  0.4363 -0.1143  0.1205
  553loPI   C6A 8844   5.830   9.625   8.285 -0.2450  0.3898  0.0221
  553loPI   C1B 8845   5.107   9.343  10.154  0.1917 -0.0694  0.3849
  553loPI   C2B 8846   5.075   9.354   9.672  0.2430 -0.0764  0.0905
  553loPI   C3B 8847   5.062   9.247   9.202  0.0480 -0.0354 -0.0233
  553loPI   C4B 8848   5.042   9.253   8.741  0.1595  0.0775 -0.0769
  554loPI    C1 8849   7.407   8.895  11.062  0.0464 -0.0126 -0.1172
  554loPI    C2 8850   7.585   8.539  11.101  0.1760  0.0582 -0.0561
  554loPI    C3 8851   7.276   8.635  11.337  0.2894  0.0765  0.0861
  554loPI   PO4 8852   7.457   8.959  10.789  0.1607 -0.0009 -0.1091
  554loPI   GL1 8853   7.889   8.892  10.487 -0.0347 -0.1711  0.2582
  554loPI   GL2 8854   8.174   8.670  10.511 -0.0437  0.0990  0.3740
  554loPI   C1A 8855   7.763   8.954  10.087  0.0053  0.1514 -0.1534
  554loPI   C2A 8856   7.775   9.003   9.633  0.1617 -0.2911 -0.3299
  554loPI   C3A 8857   7.739   9.034   9.191 -0.2388 -0.2576 -0.2046
  554loPI   C4A 8858   7.800   9.000   8.652  0.1448  0.1996 -0.3118
  554loPI   C5A 8859   7.598   8.895   8.284  0.0528 -0.0261  0.0122
  554loPI   C6A 8860   7.417   8.629   8.035 -0.2987  0.0552  0.2542
  554loPI   C1B 8861   8.200   8.692  10.107 -0.0911 -0.0898 -0.0812
  554loPI   C2B 8862   8.147   8.727   9.640 -0.2308  0.2833 -0.2695
  554loPI   C3B 8863   8.202   8.718   9.236  0.1217 -0.0216 -0.0799
  554loPI   C4B 8864   8.201   8.743   8.689 -0.1832  0.0651  0.0904
  555POPI    C1 8865  12.650  14.483  10.514 -0.1061 -0.0891  0.1029
  555POPI    C2 8866  12.745  14.685  10.846 -0.0448 -0.0312  0.0502
  555POPI    C3 8867  12.373  14.547  10.796 -0.0640 -0.0072  0.1258
  555POPI   PO4 8868  12.865  14.643  10.316 -0.2041 -0.0474 -0.1287
  555POPI   GL1 8869  12.751  14.730   9.894 -0.1429  0.2452 -0.0211
  555POPI   GL2 8870  12.466  14.737  10.024  0.1730  0.1678  0.1541
  555POPI   C1A 8871  13.104  14.808   9.654 -0.0771  0.4149  0.0994
  555POPI   D2A 8872  13.258  14.673   9.186 -0.0790  0.0217 -0.3785
  555POPI   C3A 8873  13.614  14.765   8.955 -0.0454  0.0440 -0.1281
  555POPI   C4A 8874  13.901  15.050   8.731 -0.0546 -0.0705 -0.2556
  555POPI   C1B 8875  12.253  14.871   9.544 -0.0838  0.1329 -0.0179
  555POPI   C2B 8876  11.972  14.985   9.215 -0.1275  0.0579  0.1693
  555POPI   C3B 8877  11.877  14.770   8.877 -0.0941 -0.3669  0.2139
  555POPI   C4B 8878  12.018  14.413   8.743  0.2150 -0.1325 -0.2035
  556POPI    C1 8879  16.085  17.564  10.638  0.0838  0.0023 -0.0713
  556POPI    C2 8880  16.006  17.249  10.872 -0.3002  0.0956 -0.0680
  556POPI    C3 8881  16.292  17.509  10.975 -0.0556 -0.1898 -0.0154
  556POPI   PO4 8882  15.969  17.623  10.458 -0.2771  0.1164 -0.0607
  556POPI   GL1 8883  16.106  17.445  10.060 -0.2601 -0.1849  0.1855
  556POPI   GL2 8884  15.876  17.691   9.947 -0.2638 -0.0665  0.1599
  556POPI   C1A 8885  16.110  17.195   9.631  0.2392  0.0774  0.1234
  556POPI   D2A 8886  15.921  16.929   9.371 -0.1057  0.2720  0.1480
  556POPI   C3A 8887  15.890  16.926   8.920  0.1915 -0.2187 -0.4109
  556POPI   C4A 8888  15.919  16.942   8.423  0.0960 -0.2155  0.3801
  556POPI   C1B 8889  15.999  17.704   9.454 -0.2487  0.4399 -0.0977
  556POPI   C2B 8890  16.062  17.508   9.070  0.0733 -0.0685  0.0553
  556POPI   C3B 8891  16.079  17.556   8.601 -0.1060 -0.2495  0.2227
  556POPI   C4B 8892  16.149  17.774   8.111  0.0114 -0.3507  0.0293
  557POPI    C1 8893   6.487  12.319  10.869  0.0715 -0.0349 -0.0519
  557POPI    C2 8894   6.591  12.212  11.240  0.0828  0.0364 -0.0345
  557POPI    C3 8895   6.213  12.166  11.117  0.1026 -0.0876 -0.0499
  557POPI   PO4 8896   6.652  12.415  10.790  0.1734 -0.0943 -0.0809
  557POPI   GL1 8897   6.917  12.175  10.453 -0.0421 -0.0407 -0.2776
  557POPI   GL2 8898   7.147  12.333  10.437  0.0710 -0.3261 -0.1632
  557POPI   C1A 8899   6.872  12.016   9.937 -0.0276 -0.1979  0.1207
  557POPI   D2A 8900   6.870  12.097   9.535 -0.0432  0.2158 -0.0761
  557POPI   C3A 8901   6.724  12.595   9.581 -0.1665  0.1273  0.0980
  557POPI   C4A 8902   6.567  13.038   9.531 -0.4271  0.0759 -0.2380
  557POPI   C1B 8903   7.109  12.490   9.987  0.0609  0.1023 -0.0634
  557POPI   C2B 8904   7.211  12.457   9.589 -0.2155  0.0864  0.0102
  557POPI   C3B 8905   7.480  12.591   9.325  0.4356 -0.0566  0.0239
  557POPI   C4B 8906   7.469  12.723   8.844  0.1960  0.2221 -0.2194
  558POPI    C1 8907  10.891   6.738  11.199 -0.0313 -0.0352  0.0354
  558POPI    C2 8908  10.744   6.801  11.565  0.0538  0.2647  0.0201
  558POPI    C3 8909  11.136   6.742  11.515  0.0303  0.1348 -0.0134
  558POPI   PO4 8910  10.673   6.535  11.112 -0.2020 -0.0367  0.0137
  558POPI   GL1 8911  10.774   6.493  10.725 -0.0667  0.1601  0.1751
  558POPI   GL2 8912  11.055   6.662  10.758 -0.1253  0.2234 -0.0631
  558POPI   C1A 8913  10.701   6.514  10.380 -0.1850  0.1352 -0.1345
  558POPI   D2A 8914  10.541   6.513   9.973 -0.1601  0.2115 -0.2098
  558POPI   C3A 8915  10.544   6.380   9.557 -0.1120  0.1219 -0.0052
  558POPI   C4A 8916  10.630   6.343   9.164  0.1111 -0.1806 -0.0886
  558POPI   C1B 8917  11.168   6.542  10.270 -0.0248  0.0370 -0.0033
  558POPI   C2B 8918  11.211   6.498   9.886  0.1439  0.0791 -0.2429
  558POPI   C3B 8919  11.053   6.466   9.451 -0.3125  0.1180  0.2128
  558POPI   C4B 8920  11.094   6.524   8.955  0.1280 -0.0458  0.0650
  559POPI    C1 8921   4.124   6.570  10.834  0.0834 -0.1691  0.1651
  559POPI    C2 8922   3.982   6.201  10.772 -0.2219 -0.0238 -0.0260
  559POPI    C3 8923   3.935   6.376  11.128 -0.0258 -0.1880  0.0832
  559POPI   PO4 8924   4.184   6.661  10.560  0.1086  0.0212 -0.1349
  559POPI   GL1 8925   4.322   6.845  10.127  0.0629  0.0111 -0.1099
  559POPI   GL2 8926   4.650   6.770   9.937  0.2960  0.2802 -0.0867
  559POPI   C1A 8927   4.303   7.059   9.706  0.0446  0.0120 -0.0918
  559POPI   D2A 8928   4.389   7.125   9.246  0.0107  0.1968  0.0537
  559POPI   C3A 8929   4.382   6.891   8.884  0.0314 -0.0725  0.0490
  559POPI   C4A 8930   4.322   6.551   8.693  0.1568  0.0231  0.0277
  559POPI   C1B 8931   4.714   6.802   9.548 -0.3889 -0.0516  0.1779
  559POPI   C2B 8932   4.798   6.747   9.075 -0.2162  0.1758  0.0625
  559POPI   C3B 8933   4.835   6.774   8.651  0.1760  0.3643  0.0997
  559POPI   C4B 8934   4.720   6.553   8.384 -0.1476  0.2381 -0.0306
  560POPI    C1 8935   2.009  14.082  10.933 -0.1395 -0.4047  0.0367
  560POPI    C2 8936   1.647  14.182  11.072 -0.0230 -0.0155  0.0702
  560POPI    C3 8937   1.966  14.198  11.313  0.0918  0.1155 -0.0874
  560POPI   PO4 8938   1.945  14.164  10.692 -0.1121 -0.1622 -0.0201
  560POPI   GL1 8939   2.005  14.092  10.243 -0.0528  0.3197 -0.3141
  560POPI   GL2 8940   2.298  14.199  10.128  0.2431 -0.1492  0.0091
  560POPI   C1A 8941   1.809  13.863  10.038  0.1061  0.0234  0.0826
  560POPI   D2A 8942   1.566  13.746   9.632  0.1366 -0.2001  0.1027
  560POPI   C3A 8943   1.759  13.818   9.192 -0.1783 -0.0726 -0.2253
  560POPI   C4A 8944   1.801  13.879   8.635 -0.0016 -0.0135  0.2635
  560POPI   C1B 8945   2.330  14.100   9.714 -0.0928 -0.2154 -0.1903
  560POPI   C2B 8946   2.251  14.038   9.247  0.0973  0.2195  0.4629
  560POPI   C3B 8947   2.297  14.023   8.724  0.0436 -0.0196 -0.2160
  560POPI   C4B 8948   2.096  14.102   8.283  0.5121  0.0247  0.3318
  561POPI    C1 8949   3.061  12.214  11.001  0.1156 -0.1568 -0.0974
  561POPI    C2 8950   3.283  11.962  11.218  0.1126  0.0703  0.1742
  561POPI    C3 8951   2.885  11.962  11.256  0.0908 -0.0811 -0.0394
  561POPI   PO4 8952   3.176  12.288  10.744  0.0431  0.1323  0.3338
  561POPI   GL1 8953   3.219  12.243  10.264  0.1353  0.1282  0.1033
  561POPI   GL2 8954   3.469  12.347  10.360  0.1194 -0.1303 -0.0062
  561POPI   C1A 8955   3.308  11.999   9.846  0.2776 -0.2635  0.0575
  561POPI   D2A 8956   3.150  12.031   9.402  0.3097 -0.1083  0.0876
  561POPI   C3A 8957   3.291  11.900   9.025  0.0959 -0.0153  0.1026
  561POPI   C4A 8958   3.195  11.916   8.643 -0.2125  0.2998 -0.0061
  561POPI   C1B 8959   3.823  12.302  10.061 -0.1033  0.4098  0.1825
  561POPI   C2B 8960   3.716  12.148   9.616 -0.2501 -0.1425  0.2992
  561POPI   C3B 8961   3.738  12.080   9.190 -0.0612 -0.2643 -0.1337
  561POPI   C4B 8962   3.669  12.064   8.754  0.2106  0.0543 -0.0162
  562POPI    C1 8963   5.048   6.203  10.848 -0.0635 -0.1325  0.1367
  562POPI    C2 8964   5.267   6.524  10.751 -0.1232 -0.1508 -0.0642
  562POPI    C3 8965   5.156   6.464  11.131 -0.1614  0.0975 -0.0343
  562POPI   PO4 8966   4.917   6.179  10.618 -0.1621 -0.2137 -0.0941
  562POPI   GL1 8967   5.172   6.145  10.288  0.2138  0.0070 -0.0878
  562POPI   GL2 8968   5.017   6.345  10.117 -0.1413 -0.1074 -0.0326
  562POPI   C1A 8969   5.408   5.948   9.993 -0.3382 -0.3531 -0.0740
  562POPI   D2A 8970   5.475   5.794   9.653 -0.0829  0.1718 -0.0908
  562POPI   C3A 8971   5.464   5.918   9.280 -0.0096 -0.3404 -0.0983
  562POPI   C4A 8972   5.516   6.039   8.942  0.1517  0.1554  0.1503
  562POPI   C1B 8973   5.133   6.333   9.634  0.0194  0.1062  0.2332
  562POPI   C2B 8974   5.238   6.454   9.240  0.2688  0.2454 -0.1784
  562POPI   C3B 8975   5.192   6.381   8.777 -0.0997  0.0521 -0.0806
  562POPI   C4B 8976   5.256   6.364   8.302  0.0297  0.1437  0.0302
  563POPI    C1 8977  10.273   0.200  10.555 -0.0065 -0.3091 -0.2015
  563POPI    C2 8978  10.055  -0.052  10.334  0.0908 -0.4299 -0.1607
  563POPI    C3 8979  10.450  -0.105  10.366  0.0832 -0.3888  0.0087
  563POPI   PO4 8980  10.126   0.441  10.480  0.0255  0.0781  0.0936
  563POPI   GL1 8981  10.198   0.474  10.082  0.0150 -0.1990 -0.0435
  563POPI   GL2 8982  10.189   0.837   9.995 -0.1461  0.0555  0.3257
  563POPI   C1A 8983  10.366   0.507   9.666 -0.3635  0.1668 -0.1491
  563POPI   D2A 8984  10.621   0.162   9.460 -0.2456  0.2035 -0.3012
  563POPI   C3A 8985  10.701   0.176   9.099  0.1502  0.0467  0.2000
  563POPI   C4A 8986  10.623   0.275   8.709 -0.1661  0.0063  0.2021
  563POPI   C1B 8987  10.139   1.008   9.541 -0.0838 -0.0424 -0.1179
  563POPI   C2B 8988  10.239   1.054   9.090 -0.1039 -0.1010 -0.0194
  563POPI   C3B 8989   9.841   1.020   8.911 -0.5819 -0.2230  0.0231
  563POPI   C4B 8990   9.624   0.820   9.313 -0.0976 -0.0654 -0.0106
  564POPI    C1 8991  11.248   2.246  11.158 -0.1057  0.1239  0.0886
  564POPI    C2 8992  11.614   2.212  11.315 -0.0829  0.0361  0.0170
  564POPI    C3 8993  11.309   2.007  11.473 -0.0581 -0.0600 -0.0585
  564POPI   PO4 8994  11.367   2.172  10.845  0.1228 -0.1170 -0.0552
  564POPI   GL1 8995  11.217   2.059  10.478  0.1073  0.1271 -0.3332
  564POPI   GL2 8996  11.269   1.760  10.348  0.1362 -0.3140  0.0468
  564POPI   C1A 8997  11.373   2.212  10.076 -0.2901 -0.1596  0.1137
  564POPI   D2A 8998  11.401   2.377   9.639 -0.0372 -0.0136 -0.3248
  564POPI   C3A 8999  11.441   2.749   9.453  0.1725 -0.0762  0.2098
  564POPI   C4A 9000  11.411   2.955   9.130 -0.5320  0.0981 -0.1272
  564POPI   C1B 9001  11.543   1.790   9.927 -0.0292  0.0717 -0.3026
  564POPI   C2B 9002  11.658   1.964   9.503 -0.0354  0.0738  0.0036
  564POPI   C3B 9003  11.542   2.179   9.149 -0.0936 -0.0374  0.0193
  564POPI   C4B 9004  11.559   2.563   8.893  0.0437 -0.0681  0.0510
  565POPI    C1 9005   0.949  16.960  10.832 -0.0902 -0.0176  0.0033
  565POPI    C2 9006   1.320  16.906  10.693  0.0335  0.0799  0.2877
  565POPI    C3 9007   1.118  16.599  10.852 -0.1593 -0.0635 -0.2140
  565POPI   PO4 9008   0.717  16.994  10.630  0.0016 -0.0325  0.0345
  565POPI   GL1 9009   0.625  17.216  10.170  0.0187 -0.0818  0.2260
  565POPI   GL2 9010   0.563  16.866  10.096 -0.0173  0.1434  0.0445
  565POPI   C1A 9011   0.489  17.214   9.766  0.1234 -0.0061 -0.1628
  565POPI   D2A 9012   0.404  17.372   9.342  0.1076  0.2465  0.0908
  565POPI   C3A 9013   0.441  17.017   9.063  0.2461 -0.2232  0.0192
  565POPI   C4A 9014   0.189  16.754   8.829  0.0375  0.0151 -0.2450
  565POPI   C1B 9015   0.875  16.824   9.725  0.2121  0.0097  0.0318
  565POPI   C2B 9016   1.185  16.742   9.496 -0.2039 -0.0232 -0.0662
  565POPI   C3B 9017   1.443  16.867   9.156  0.2154 -0.1288  0.0038
  565POPI   C4B 9018   1.422  16.831   8.673  0.4708  0.3245  0.2688
  566POPI    C1 9019   6.915   6.039  11.052  0.1727 -0.0656  0.0407
  566POPI    C2 9020   7.180   6.339  11.050  0.1547 -0.0496  0.0593
  566POPI    C3 9021   6.917   6.306  11.350  0.0435  0.0152 -0.0301
  566POPI   PO4 9022   7.099   5.833  10.943  0.1025 -0.0825 -0.1114
  566POPI   GL1 9023   7.196   5.891  10.539  0.0988 -0.0287 -0.0312
  566POPI   GL2 9024   6.979   6.205  10.579 -0.2652  0.1570  0.0003
  566POPI   C1A 9025   7.375   5.902  10.115 -0.0185  0.0373 -0.0218
  566POPI   D2A 9026   7.380   5.986   9.678 -0.0619  0.0713 -0.0864
  566POPI   C3A 9027   7.420   5.955   9.256 -0.2096 -0.3214  0.3132
  566POPI   C4A 9028   7.416   6.164   8.904 -0.0442 -0.0461  0.0905
  566POPI   C1B 9029   6.857   6.121  10.125 -0.4616 -0.3183  0.0608
  566POPI   C2B 9030   6.981   6.300   9.786  0.1319  0.0384 -0.0188
  566POPI   C3B 9031   6.923   6.315   9.378  0.1139  0.0422  0.1818
  566POPI   C4B 9032   6.994   6.475   8.954 -0.2043  0.1242 -0.0717
  567POPI    C1 9033   1.173  10.185  10.918 -0.0358  0.2308  0.0255
  567POPI    C2 9034   1.015  10.068  10.570 -0.0622 -0.0507  0.1297
  567POPI    C3 9035   0.825   9.988  10.913  0.2685 -0.3350  0.2517
  567POPI   PO4 9036   1.448  10.228  10.778  0.2196 -0.1071 -0.1063
  567POPI   GL1 9037   1.669  10.282  10.416 -0.2751 -0.0409  0.1772
  567POPI   GL2 9038   1.376  10.263  10.320  0.2403 -0.3175  0.1518
  567POPI   C1A 9039   1.789  10.067  10.009 -0.0898  0.1911 -0.2325
  567POPI   D2A 9040   2.005  10.019   9.667 -0.1329 -0.0295  0.1225
  567POPI   C3A 9041   1.928   9.894   9.273  0.0521  0.0564  0.2905
  567POPI   C4A 9042   1.942   9.901   8.835  0.0419  0.0305 -0.0697
  567POPI   C1B 9043   1.424  10.414   9.912  0.1202  0.3218  0.1356
  567POPI   C2B 9044   1.472  10.285   9.445 -0.1640 -0.0823  0.1905
  567POPI   C3B 9045   1.387  10.242   9.038  0.1917  0.2743 -0.5424
  567POPI   C4B 9046   1.497  10.442   8.617  0.1039 -0.0132 -0.1778
  568POPI    C1 9047  11.799  10.287  11.221 -0.1387 -0.0541  0.1044
  568POPI    C2 9048  11.808  10.095  11.572 -0.1248 -0.0728  0.0939
  568POPI    C3 9049  11.945  10.470  11.545  0.0524 -0.1382  0.0673
  568POPI   PO4 9050  11.634  10.173  11.073 -0.4151 -0.0436 -0.1770
  568POPI   GL1 9051  11.676   9.849  10.785  0.0461  0.0758 -0.0237
  568POPI   GL2 9052  11.282   9.854  10.800 -0.2661 -0.1599  0.1324
  568POPI   C1A 9053  11.894   9.835  10.419 -0.0207  0.0161 -0.1561
  568POPI   D2A 9054  12.087   9.801  10.126  0.1496 -0.0030  0.1114
  568POPI   C3A 9055  11.958   9.775   9.755  0.0775  0.0198  0.0324
  568POPI   C4A 9056  11.971   9.743   9.290 -0.0456 -0.2684 -0.0123
  568POPI   C1B 9057  11.395   9.704  10.402  0.3105  0.0440 -0.1091
  568POPI   C2B 9058  11.479   9.680   9.982  0.3776  0.2402 -0.1469
  568POPI   C3B 9059  11.555   9.558   9.613 -0.0441  0.0154 -0.1733
  568POPI   C4B 9060  11.509   9.604   9.165  0.0239  0.2331 -0.1064
  569POPI    C1 9061  11.386  17.776  10.919  0.1854 -0.0804  0.4419
  569POPI    C2 9062  11.727  17.959  10.815  0.0610 -0.0023  0.1609
  569POPI    C3 9063  11.578  18.007  11.183  0.2865  0.0643  0.2449
  569POPI   PO4 9064  11.205  17.834  10.709 -0.0687  0.0162  0.0300
  569POPI   GL1 9065  11.013  17.673  10.272  0.1674 -0.0276 -0.0680
  569POPI   GL2 9066  11.115  17.975  10.222 -0.2045 -0.0052  0.0461
  569POPI   C1A 9067  11.104  17.311   9.956 -0.1431 -0.0054  0.2292
  569POPI   D2A 9068  11.194  17.169   9.483 -0.0713 -0.2245 -0.0131
  569POPI   C3A 9069  11.202  16.682   9.399 -0.2636 -0.1168 -0.0405
  569POPI   C4A 9070  11.012  16.220   9.365 -0.0326 -0.1166 -0.1056
  569POPI   C1B 9071  11.067  17.914   9.768  0.3595 -0.0211  0.1652
  569POPI   C2B 9072  11.163  18.036   9.365 -0.1972 -0.1259 -0.2016
  569POPI   C3B 9073  11.218  17.973   8.919  0.1182  0.2808  0.1449
  569POPI   C4B 9074  11.068  17.977   8.490  0.0175  0.0150  0.1018
  570DPPI    C1 9075   4.732   5.773  10.912  0.0442  0.2098  0.0441
  570DPPI    C2 9076   4.516   6.099  10.996 -0.3312  0.0331 -0.2049
  570DPPI    C3 9077   4.483   5.774  11.226  0.0619  0.1717  0.0583
  570DPPI   PO4 9078   4.743   5.697  10.599 -0.1238 -0.0577 -0.0389
  570DPPI   GL1 9079   4.604   5.808  10.180 -0.0529 -0.0206  0.3080
  570DPPI   GL2 9080   4.932   5.757  10.078  0.2036 -0.1602 -0.1650
  570DPPI   C1A 9081   4.327   5.720   9.843 -0.0901  0.0477 -0.3553
  570DPPI   C2A 9082   3.952   5.458   9.664  0.2358 -0.1341 -0.0748
  570DPPI   C3A 9083   3.922   5.414   9.189  0.1087 -0.0359  0.0933
  570DPPI   C4A 9084   4.090   5.599   8.668  0.4896 -0.3952 -0.0756
  570DPPI   C1B 9085   5.133   5.510   9.839  0.1040  0.0025 -0.1963
  570DPPI   C2B 9086   5.400   5.363   9.461  0.0863 -0.4518 -0.0876
  570DPPI   C3B 9087   5.678   5.513   9.079 -0.2153 -0.0975 -0.1161
  570DPPI   C4B 9088   6.043   5.357   8.859 -0.0901 -0.2114  0.1149
  571DPPI    C1 9089   3.878   1.468  10.998 -0.0569 -0.1189 -0.0121
  571DPPI    C2 9090   3.526   1.282  11.029 -0.0167 -0.2049 -0.0700
  571DPPI    C3 9091   3.543   1.681  11.051 -0.1218 -0.1983 -0.1006
  571DPPI   PO4 9092   3.984   1.389  10.747  0.1492 -0.1679 -0.0866
  571DPPI   GL1 9093   3.981   1.302  10.283  0.1380  0.2982  0.1595
  571DPPI   GL2 9094   4.270   1.413  10.161 -0.2004 -0.2936 -0.3622
  571DPPI   C1A 9095   3.893   1.154   9.867  0.0500  0.1142  0.2470
  571DPPI   C2A 9096   3.925   0.969   9.421  0.0045 -0.2745  0.1399
  571DPPI   C3A 9097   3.938   1.141   9.089 -0.3721 -0.1330  0.3310
  571DPPI   C4A 9098   3.853   1.035   8.610  0.0734 -0.2283  0.0490
  571DPPI   C1B 9099   4.340   1.360   9.665  0.2955  0.1372 -0.1014
  571DPPI   C2B 9100   4.378   1.276   9.268  0.1893  0.0370 -0.0720
  571DPPI   C3B 9101   4.623   1.566   9.077  0.0498  0.0351 -0.2237
  571DPPI   C4B 9102   4.848   1.530   8.688 -0.0434 -0.1912 -0.0420
  572DPPI    C1 9103   6.685  16.754  10.447  0.1090 -0.2377  0.0723
  572DPPI    C2 9104   6.701  17.038  10.729  0.1984 -0.2289  0.0586
  572DPPI    C3 9105   6.378  16.804  10.698 -0.0438  0.1264 -0.1784
  572DPPI   PO4 9106   6.687  16.852  10.219 -0.2227  0.2366 -0.1250
  572DPPI   GL1 9107   6.760  16.982   9.810 -0.0459 -0.0106 -0.0915
  572DPPI   GL2 9108   6.996  17.295   9.890  0.0454 -0.1731 -0.1709
  572DPPI   C1A 9109   6.835  17.030   9.426 -0.1202 -0.1716  0.1475
  572DPPI   C2A 9110   6.877  17.308   9.142 -0.1233  0.0200 -0.0350
  572DPPI   C3A 9111   6.665  17.461   8.744  0.1124  0.1301 -0.1081
  572DPPI   C4A 9112   6.303  17.587   8.471  0.2130 -0.2195  0.1201
  572DPPI   C1B 9113   7.199  17.361   9.619 -0.3814 -0.3314  0.1300
  572DPPI   C2B 9114   7.384  17.444   9.272 -0.1266  0.1497 -0.1229
  572DPPI   C3B 9115   7.879  17.439   9.113  0.0069  0.1018  0.1671
  572DPPI   C4B 9116   8.062  17.370   8.639 -0.0785  0.2408  0.1172
  573DPPI    C1 9117   2.237   3.438  11.074 -0.0451  0.2584  0.0174
  573DPPI    C2 9118   2.582   3.629  11.140  0.1576 -0.1308  0.1112
  573DPPI    C3 9119   2.405   3.427  11.437 -0.0479 -0.0993  0.0116
  573DPPI   PO4 9120   2.103   3.568  10.767 -0.0927 -0.3824 -0.1542
  573DPPI   GL1 9121   1.708   3.402  10.531  0.2957 -0.4379  0.1442
  573DPPI   GL2 9122   1.715   3.150  10.550 -0.1611 -0.0511  0.1803
  573DPPI   C1A 9123   1.554   3.456  10.109 -0.3313 -0.0213  0.2553
  573DPPI   C2A 9124   1.391   3.534   9.724 -0.0049 -0.2567 -0.0226
  573DPPI   C3A 9125   1.368   3.561   9.351 -0.0025 -0.2801  0.1025
  573DPPI   C4A 9126   1.356   3.533   8.900  0.0546  0.1481 -0.2505
  573DPPI   C1B 9127   1.873   3.057  10.149 -0.4140  0.1020  0.0104
  573DPPI   C2B 9128   1.991   3.285   9.716 -0.0265 -0.2232 -0.1280
  573DPPI   C3B 9129   2.083   3.245   9.248  0.1851 -0.1278  0.2021
  573DPPI   C4B 9130   1.830   3.151   8.885  0.3371 -0.0093  0.2709
  574DPPI    C1 9131   6.070  17.827  10.240 -0.0399 -0.0410 -0.0281
  574DPPI    C2 9132   6.024  17.587  10.557  0.2592  0.0064  0.0541
  574DPPI    C3 9133   6.003  17.984  10.602 -0.1451  0.0032 -0.0662
  574DPPI   PO4 9134   6.059  17.629  10.071 -0.1141  0.3061  0.2499
  574DPPI   GL1 9135   6.086  17.562   9.711  0.1003  0.2677 -0.0586
  574DPPI   GL2 9136   5.947  17.283   9.777 -0.3544  0.0867  0.0178
  574DPPI   C1A 9137   5.936  17.764   9.364 -0.3417  0.1132  0.1368
  574DPPI   C2A 9138   5.490  17.821   9.129 -0.0417  0.2887  0.2805
  574DPPI   C3A 9139   5.304  17.535   8.759  0.0942  0.1976  0.2233
  574DPPI   C4A 9140   5.124  17.480   8.370 -0.1472  0.2222 -0.2031
  574DPPI   C1B 9141   5.723  17.284   9.371  0.1843  0.0052  0.2012
  574DPPI   C2B 9142   5.571  17.197   9.065 -0.2400 -0.1477 -0.0746
  574DPPI   C3B 9143   5.128  17.052   8.835 -0.4041  0.0946  0.2129
  574DPPI   C4B 9144   4.961  16.902   8.310  0.0250 -0.0976 -0.1778
  575DPPI    C1 9145  13.269   0.638  10.717  0.0585 -0.1704  0.3862
  575DPPI    C2 9146  13.228   0.266  10.576 -0.1502 -0.1228  0.3180
  575DPPI    C3 9147  13.058   0.368  10.923 -0.3236 -0.0180  0.2036
  575DPPI   PO4 9148  13.625   0.641  10.724  0.0514  0.0000 -0.1892
  575DPPI   GL1 9149  13.655   0.685  10.277 -0.0123 -0.2018  0.0422
  575DPPI   GL2 9150  13.279   0.712  10.217 -0.0407  0.1818  0.0138
  575DPPI   C1A 9151  13.781   1.042   9.942  0.0001 -0.2097  0.3151
  575DPPI   C2A 9152  13.910   1.323   9.523  0.2041  0.0281 -0.0120
  575DPPI   C3A 9153  14.063   1.663   9.180  0.0792  0.1167 -0.1586
  575DPPI   C4A 9154  14.047   1.868   8.740 -0.0065  0.2725  0.0112
  575DPPI   C1B 9155  13.372   0.402   9.907 -0.1271  0.1910  0.1103
  575DPPI   C2B 9156  13.326   0.426   9.466  0.0311 -0.1014  0.1495
  575DPPI   C3B 9157  13.429   0.461   8.981 -0.2345 -0.2084 -0.1426
  575DPPI   C4B 9158  13.638   0.500   8.550 -0.0792 -0.0117 -0.1195
  576DPPI    C1 9159   3.278   2.078  10.864  0.0846 -0.3185  0.0608
  576DPPI    C2 9160   3.535   2.147  11.162 -0.1690 -0.2572  0.2694
  576DPPI    C3 9161   3.231   2.399  11.097  0.0849 -0.0731 -0.2691
  576DPPI   PO4 9162   3.442   2.063  10.696  0.0736 -0.0985  0.2187
  576DPPI   GL1 9163   3.542   2.336  10.310 -0.1175 -0.1401 -0.3135
  576DPPI   GL2 9164   3.200   2.170  10.314 -0.0815  0.1232 -0.2498
  576DPPI   C1A 9165   3.461   2.687  10.069 -0.1766  0.2519 -0.0481
  576DPPI   C2A 9166   3.319   2.699   9.607 -0.0819 -0.0079  0.1277
  576DPPI   C3A 9167   3.392   2.411   9.264  0.1092 -0.0065  0.2439
  576DPPI   C4A 9168   3.324   2.453   8.886  0.1225  0.0281  0.0580
  576DPPI   C1B 9169   3.178   1.917   9.908  0.0101  0.1175  0.0392
  576DPPI   C2B 9170   3.160   1.882   9.455 -0.3560  0.0102 -0.0869
  576DPPI   C3B 9171   3.126   2.034   9.084  0.0352  0.0251  0.1761
  576DPPI   C4B 9172   3.393   1.959   8.665 -0.0500 -0.2252  0.1201
  577DPPI    C1 9173  15.201  12.614  11.173  0.1689  0.1684 -0.1012
  577DPPI    C2 9174  15.329  12.235  11.195 -0.0313  0.1079  0.0397
  577DPPI    C3 9175  15.535  12.527  11.376  0.0215  0.0401  0.0897
  577DPPI   PO4 9176  15.148  12.684  10.877 -0.0921 -0.0656 -0.1979
  577DPPI   GL1 9177  14.969  12.693  10.505  0.0656  0.0258 -0.1192
  577DPPI   GL2 9178  15.238  12.495  10.318  0.2429 -0.3045  0.2446
  577DPPI   C1A 9179  14.698  12.806  10.182  0.1581 -0.0899  0.3040
  577DPPI   C2A 9180  14.596  12.943   9.755 -0.0706  0.0119 -0.2155
  577DPPI   C3A 9181  14.735  12.895   9.327  0.3230 -0.2842  0.0057
  577DPPI   C4A 9182  14.673  12.789   8.901 -0.0762  0.1216  0.0009
  577DPPI   C1B 9183  15.136  12.515   9.901 -0.0047 -0.2717 -0.0163
  577DPPI   C2B 9184  15.038  12.167   9.607  0.1844  0.0919 -0.0046
  577DPPI   C3B 9185  15.204  11.891   9.349 -0.0379  0.0223 -0.2826
  577DPPI   C4B 9186  15.278  11.728   9.026 -0.2143  0.1488  0.0537
  578DPPI    C1 9187  17.263   3.867  10.786  0.0735  0.1400  0.0348
  578DPPI    C2 9188  17.532   3.992  11.054  0.2006  0.1331 -0.0885
  578DPPI    C3 9189  17.381   3.623  11.079  0.0218  0.2180  0.1212
  578DPPI   PO4 9190  17.312   3.874  10.573 -0.0207 -0.1312 -0.0454
  578DPPI   GL1 9191  17.155   4.224  10.391 -0.1011  0.0935  0.1195
  578DPPI   GL2 9192  17.209   4.529  10.198  0.0068  0.1178 -0.1166
  578DPPI   C1A 9193  17.085   4.109   9.992 -0.2308 -0.1664  0.2250
  578DPPI   C2A 9194  17.147   4.038   9.604 -0.4111  0.1764  0.1326
  578DPPI   C3A 9195  17.165   4.041   9.156 -0.2317  0.2026  0.0914
  578DPPI   C4A 9196  17.097   3.954   8.680  0.2065 -0.0036 -0.1145
  578DPPI   C1B 9197  17.173   4.578   9.769  0.2263  0.1189 -0.1405
  578DPPI   C2B 9198  17.297   4.540   9.347  0.2475 -0.0311 -0.3080
  578DPPI   C3B 9199  17.271   4.622   8.901 -0.0535 -0.0620  0.0388
  578DPPI   C4B 9200  17.404   4.655   8.462  0.1821  0.0771 -0.1986
  579PYPI    C1 9201   8.902  10.817  11.224 -0.0870 -0.0170  0.1755
  579PYPI    C2 9202   8.792  10.475  11.400  0.1323 -0.0987  0.1573
  579PYPI    C3 9203   8.518  10.756  11.319 -0.0023 -0.1435  0.4451
  579PYPI   PO4 9204   9.018  10.670  10.930  0.0708  0.0280 -0.0971
  579PYPI   GL1 9205   9.052  10.204  10.591  0.1360  0.2137 -0.2026
  579PYPI   GL2 9206   8.810  10.407  10.495  0.1555  0.0701  0.1211
  579PYPI   C1A 9207   9.247  10.169  10.208 -0.0317 -0.1269  0.1303
  579PYPI   C2A 9208   9.307  10.047   9.799 -0.0011 -0.1496  0.2812
  579PYPI   D3A 9209   9.096  10.135   9.365  0.2186  0.0864  0.0064
  579PYPI   C4A 9210   9.218  10.156   8.910 -0.0194 -0.1156  0.3594
  579PYPI   C1B 9211   8.800  10.337  10.047 -0.3506 -0.1561 -0.3874
  579PYPI   C2B 9212   8.767  10.413   9.664 -0.0842 -0.2155 -0.3686
  579PYPI   C3B 9213   8.707  10.428   9.227 -0.1678  0.0069  0.1178
  579PYPI   C4B 9214   8.708  10.397   8.758  0.0728  0.0751 -0.0586
  580PYPI    C1 9215   1.342  15.631  10.909 -0.1562  0.1115 -0.1286
  580PYPI    C2 9216   1.097  15.795  11.180 -0.0893 -0.1435  0.0910
  580PYPI    C3 9217   1.490  15.871  11.192 -0.1237  0.0794 -0.1183
  580PYPI   PO4 9218   1.168  15.633  10.618  0.3269  0.0557 -0.2825
  580PYPI   GL1 9219   1.152  15.628  10.160  0.1504 -0.2252  0.0067
  580PYPI   GL2 9220   0.755  15.480  10.256 -0.2061 -0.2236 -0.0693
  580PYPI   C1A 9221   1.008  15.922   9.852  0.1426  0.0910  0.2697
  580PYPI   C2A 9222   0.998  15.868   9.423 -0.2644 -0.1793  0.0263
  580PYPI   D3A 9223   0.875  16.083   9.200 -0.0787 -0.0049  0.2579
  580PYPI   C4A 9224   1.040  15.834   8.889 -0.0221 -0.1703  0.1631
  580PYPI   C1B 9225   0.557  15.662   9.896 -0.1632  0.0575 -0.2078
  580PYPI   C2B 9226   0.527  15.697   9.525  0.0706  0.0277 -0.0652
  580PYPI   C3B 9227   0.227  15.465   9.132  0.0858  0.0130  0.0901
  580PYPI   C4B 9228   0.124  15.345   8.802  0.2979 -0.2141  0.4774
  581PYPI    C1 9229   3.943   4.849  11.092  0.0070  0.5569  0.0204
  581PYPI    C2 9230   4.271   5.013  10.932  0.2162 -0.0049 -0.1534
  581PYPI    C3 9231   4.293   4.825  11.284  0.0838 -0.0601 -0.1742
  581PYPI   PO4 9232   3.844   4.824  10.828 -0.0255  0.0096 -0.1824
  581PYPI   GL1 9233   3.686   4.933  10.360 -0.2597 -0.1882 -0.0650
  581PYPI   GL2 9234   3.816   4.687  10.244  0.1257 -0.1085  0.1728
  581PYPI   C1A 9235   3.761   5.100   9.953 -0.3881 -0.0314 -0.3021
  581PYPI   C2A 9236   3.751   5.034   9.448  0.1804 -0.0917  0.2318
  581PYPI   D3A 9237   3.947   4.875   9.057  0.3892 -0.1354  0.0511
  581PYPI   C4A 9238   3.924   5.092   8.734 -0.1012  0.2818 -0.0287
  581PYPI   C1B 9239   3.697   4.652   9.812 -0.1940 -0.2175 -0.1420
  581PYPI   C2B 9240   3.798   4.526   9.506 -0.3351 -0.1715  0.0656
  581PYPI   C3B 9241   4.193   4.470   9.183 -0.1611  0.0327  0.0686
  581PYPI   C4B 9242   4.566   4.636   9.418 -0.0270 -0.0284  0.0001
  582PYPI    C1 9243  10.689  10.802  10.884  0.2307  0.1154 -0.0191
  582PYPI    C2 9244  10.578  11.044  11.183 -0.1096  0.1973 -0.2065
  582PYPI    C3 9245  10.825  10.738  11.255 -0.0873  0.2913  0.1324
  582PYPI   PO4 9246  10.440  10.822  10.698  0.1995  0.0791 -0.1156
  582PYPI   GL1 9247  10.355  10.699  10.396  0.0623  0.0364 -0.1697
  582PYPI   GL2 9248  10.390  10.361  10.432  0.0716 -0.0435  0.0454
  582PYPI   C1A 9249  10.236  10.544   9.979  0.0511 -0.1945  0.0606
  582PYPI   C2A 9250  10.088  10.555   9.615 -0.2976 -0.0242  0.0552
  582PYPI   D3A 9251  10.253  10.536   9.228 -0.1920  0.1847  0.1382
  582PYPI   C4A 9252  10.212  10.543   8.719  0.1293  0.3084  0.1190
  582PYPI   C1B 9253  10.626  10.237  10.093 -0.3185 -0.0296  0.0747
  582PYPI   C2B 9254  10.618  10.211   9.785  0.0831 -0.1000 -0.0152
  582PYPI   C3B 9255  10.711  10.249   9.392  0.1547 -0.1247  0.2681
  582PYPI   C4B 9256  10.607  10.359   8.954  0.1165 -0.0918  0.0439
  583PYPI    C1 9257   7.325  11.664  10.711 -0.0306 -0.1829  0.0532
  583PYPI    C2 9258   7.310  11.678  11.111 -0.0920 -0.2957  0.0555
  583PYPI    C3 9259   7.652  11.582  10.927  0.0326  0.1018  0.0693
  583PYPI   PO4 9260   7.047  11.608  10.708 -0.1599  0.0602 -0.1427
  583PYPI   GL1 9261   6.854  11.712  10.371  0.1806 -0.1347 -0.0394
  583PYPI   GL2 9262   7.147  11.429  10.251  0.3799 -0.0960 -0.0829
  583PYPI   C1A 9263   6.569  11.609   9.986  0.0180  0.1476 -0.1362
  583PYPI   C2A 9264   6.573  11.549   9.628  0.0086  0.0714  0.0171
  583PYPI   D3A 9265   6.743  11.691   9.251 -0.0783  0.5072 -0.0600
  583PYPI   C4A 9266   6.822  11.822   8.856 -0.2051  0.1147  0.0868
  583PYPI   C1B 9267   7.031  11.448   9.881 -0.3538  0.1425 -0.2038
  583PYPI   C2B 9268   7.124  11.416   9.421  0.1751  0.1007  0.0359
  583PYPI   C3B 9269   7.081  11.347   9.011 -0.1737 -0.0556  0.1149
  583PYPI   C4B 9270   6.930  11.228   8.589 -0.2185 -0.2401  0.0712
  584PYPI    C1 9271  12.747   4.314  11.268 -0.0471  0.0849 -0.1329
  584PYPI    C2 9272  12.952   4.595  11.467  0.1258 -0.0787 -0.0773
  584PYPI    C3 9273  12.574   4.514  11.569  0.0833  0.1146 -0.0769
  584PYPI   PO4 9274  12.908   4.419  11.005  0.1124 -0.1917  0.0297
  584PYPI   GL1 9275  13.191   4.376  10.679 -0.2644 -0.1692  0.1947
  584PYPI   GL2 9276  13.162   4.660  10.559 -0.0108  0.1866  0.1151
  584PYPI   C1A 9277  13.153   4.286  10.281 -0.1960 -0.1860 -0.2361
  584PYPI   C2A 9278  13.000   4.341   9.899 -0.1997 -0.0317 -0.2279
  584PYPI   D3A 9279  13.054   4.477   9.542  0.1003 -0.0510  0.2574
  584PYPI   C4A 9280  13.097   4.496   9.064 -0.3001 -0.1009 -0.4432
  584PYPI   C1B 9281  13.113   4.862  10.152 -0.1474 -0.1973 -0.1549
  584PYPI   C2B 9282  13.126   5.047   9.739  0.1649 -0.1865  0.0296
  584PYPI   C3B 9283  13.177   4.989   9.306 -0.0254 -0.3281  0.0925
  584PYPI   C4B 9284  13.116   5.014   8.939  0.0656 -0.4656 -0.1372
  585ERGO   ROH 9285  11.156   6.157  10.550  0.0578 -0.1617 -0.0687
  585ERGO    R1 9286  11.056   6.002  10.335 -0.0421 -0.0960 -0.0704
  585ERGO    R2 9287  10.871   6.099  10.154 -0.0693 -0.0145 -0.0010
  585ERGO    R3 9288  11.056   6.021   9.972 -0.1391 -0.0269 -0.0670
  585ERGO    R4 9289  10.810   6.058   9.817 -0.2166 -0.1178  0.0371
  585ERGO    R5 9290  10.936   5.880   9.821 -0.1803 -0.0910  0.0268
  585ERGO    C1 9291  10.950   5.961   9.449 -0.3678 -0.1897 -0.0027
  585ERGO    C2 9292  11.108   6.022   9.056 -0.1005  0.2583 -0.1512
  586ERGO   ROH 9293   9.539  15.361  10.234 -0.0900 -0.3751  0.0415
  586ERGO    R1 9294   9.446  15.273   9.982 -0.1487 -0.1138 -0.0309
  586ERGO    R2 9295   9.296  15.434   9.814  0.0097  0.1430  0.0663
  586ERGO    R3 9296   9.491  15.373   9.635 -0.0280  0.0926  0.0427
  586ERGO    R4 9297   9.247  15.394   9.474 -0.0341  0.1954  0.0665
  586ERGO    R5 9298   9.385  15.226   9.479 -0.0934  0.1465  0.0365
  586ERGO    C1 9299   9.402  15.313   9.108 -0.0950  0.1784  0.0443
  586ERGO    C2 9300   9.603  15.273   8.788  0.0467  0.2526  0.2758
  587ERGO   ROH 9301   0.695   2.267  10.256 -0.0009  0.0123 -0.1184
  587ERGO    R1 9302   0.752   2.370   9.999 -0.0592  0.0526 -0.1163
  587ERGO    R2 9303   0.936   2.253   9.829  0.1632  0.2746 -0.0412
  587ERGO    R3 9304   0.727   2.254   9.655  0.2117 -0.0418 -0.1052
  587ERGO    R4 9305   0.966   2.261   9.485  0.2518  0.3978 -0.0309
  587ERGO    R5 9306   0.797   2.399   9.479  0.0184  0.1155 -0.0517
  587ERGO    C1 9307   0.787   2.266   9.121  0.3488  0.1724 -0.0850
  587ERGO    C2 9308   0.781   2.329   8.759 -0.3357  0.0767  0.0281
  588ERGO   ROH 9309   7.157  10.912  10.305  0.1811  0.2035  0.0819
  588ERGO    R1 9310   7.320  11.010  10.095  0.0911  0.0671 -0.0527
  588ERGO    R2 9311   7.437  10.844   9.907 -0.1167 -0.0403 -0.0880
  588ERGO    R3 9312   7.311  11.008   9.731 -0.1511 -0.0241 -0.0486
  588ERGO    R4 9313   7.468  10.827   9.563 -0.0316  0.1114 -0.0889
  588ERGO    R5 9314   7.472  11.044   9.558 -0.1268  0.1174  0.0008
  588ERGO    C1 9315   7.368  10.971   9.198 -0.0143  0.2150 -0.0523
  588ERGO    C2 9316   7.348  10.972   8.828  0.0275  0.2165 -0.0299
  589ERGO   ROH 9317  14.145   2.221  10.525  0.2165 -0.2211 -0.0005
  589ERGO    R1 9318  14.035   2.304  10.278  0.2588 -0.0197  0.0465
  589ERGO    R2 9319  14.191   2.380  10.063  0.3052 -0.1838  0.0213
  589ERGO    R3 9320  14.046   2.191   9.932  0.0133  0.0351  0.0184
  589ERGO    R4 9321  14.131   2.378   9.722  0.2870 -0.0763  0.0236
  589ERGO    R5 9322  13.927   2.313   9.764  0.1866  0.2253  0.0289
  589ERGO    C1 9323  13.959   2.199   9.402  0.0024  0.1917  0.0221
  589ERGO    C2 9324  13.962   2.128   9.170  0.0695 -0.0321 -0.1936
  590ERGO   ROH 9325   8.481  11.940  10.561 -0.2064 -0.0302  0.1583
  590ERGO    R1 9326   8.434  11.747  10.360 -0.3122 -0.1215  0.2676
  590ERGO    R2 9327   8.184  11.706  10.249 -0.2609  0.2603 -0.0176
  590ERGO    R3 9328   8.317  11.748  10.015  0.1333 -0.1907  0.1103
  590ERGO    R4 9329   8.067  11.615   9.937 -0.1136  0.3749 -0.1068
  590ERGO    R5 9330   8.270  11.552   9.884 -0.1903 -0.1556  0.1695
  590ERGO    C1 9331   8.123  11.601   9.535  0.3421  0.0182 -0.0384
  590ERGO    C2 9332   8.239  11.614   9.221 -0.0886  0.1573 -0.0043
  591ERGO   ROH 9333  12.736   0.982  10.134  0.0767 -0.4169 -0.0771
  591ERGO    R1 9334  12.701   1.102   9.881 -0.1513 -0.3836 -0.0316
  591ERGO    R2 9335  12.913   1.188   9.726 -0.3042  0.0887  0.0033
  591ERGO    R3 9336  12.798   1.030   9.538  0.0015 -0.0690 -0.0575
  591ERGO    R4 9337  12.907   1.257   9.388 -0.2136  0.0639 -0.0041
  591ERGO    R5 9338  12.702   1.184   9.381 -0.1158 -0.2020 -0.1148
  591ERGO    C1 9339  12.796   1.148   9.014  0.1263 -0.0986 -0.0655
  591ERGO    C2 9340  12.913   1.305   8.780 -0.5908  0.0122 -0.0740
  592ERGO   ROH 9341  15.479  11.094  10.492 -0.2442 -0.0738  0.0117
  592ERGO    R1 9342  15.439  11.262  10.267 -0.0153  0.0143  0.0344
  592ERGO    R2 9343  15.615  11.270  10.055 -0.0232 -0.2313  0.0152
  592ERGO    R3 9344  15.392  11.218   9.909 -0.1247  0.1234  0.0349
  592ERGO    R4 9345  15.598  11.277   9.709 -0.0266 -0.2631  0.0148
  592ERGO    R5 9346  15.402  11.372   9.726  0.1308  0.0765  0.0070
  592ERGO    C1 9347  15.378  11.232   9.372 -0.1239  0.0514  0.0330
  592ERGO    C2 9348  15.202  11.248   8.982 -0.1984  0.1085 -0.2695
  593ERGO   ROH 9349   0.208   6.926  10.655 -0.3856 -0.1198  0.1295
  593ERGO    R1 9350   0.096   6.831  10.413 -0.1440 -0.1122  0.0114
  593ERGO    R2 9351   0.015   7.000  10.210 -0.0773 -0.0984 -0.0018
  593ERGO    R3 9352   0.179   6.845  10.059  0.1263  0.0364  0.0779
  593ERGO    R4 9353  -0.030   6.933   9.874 -0.0383 -0.3796  0.0466
  593ERGO    R5 9354   0.032   6.727   9.912  0.2649 -0.2742  0.1740
  593ERGO    C1 9355   0.099   6.748   9.537  0.1758 -0.4169  0.1494
  593ERGO    C2 9356   0.096   6.774   9.240 -0.0515 -0.1166  0.1979
  594ERGO   ROH 9357   9.777  10.840  10.535 -0.3181  0.2652  0.0370
  594ERGO    R1 9358   9.664  10.896  10.282 -0.1785  0.1273 -0.0587
  594ERGO    R2 9359   9.790  11.054  10.094 -0.0684  0.0145 -0.0813
  594ERGO    R3 9360   9.751  10.838   9.934  0.0090 -0.0759  0.0203
  594ERGO    R4 9361   9.753  11.067   9.751 -0.1459 -0.1560 -0.0803
  594ERGO    R5 9362   9.598  10.915   9.767 -0.0644 -0.2283  0.0172
  594ERGO    C1 9363   9.694  10.872   9.401 -0.1183 -0.3400  0.0156
  594ERGO    C2 9364   9.831  10.836   9.070  0.0342  0.1466  0.1404
  595ERGO   ROH 9365  13.011   2.043  10.237 -0.1125 -0.0744 -0.1076
  595ERGO    R1 9366  12.887   2.078   9.986 -0.0591 -0.0198 -0.1254
  595ERGO    R2 9367  12.870   2.325   9.862  0.0762 -0.0181 -0.1295
  595ERGO    R3 9368  12.987   2.193   9.655  0.0397 -0.0736 -0.1164
  595ERGO    R4 9369  12.791   2.372   9.529  0.1111  0.0097 -0.1345
  595ERGO    R5 9370  12.808   2.157   9.499  0.0274 -0.0053 -0.1262
  595ERGO    C1 9371  12.856   2.276   9.140  0.0973 -0.0262 -0.1251
  595ERGO    C2 9372  12.793   2.435   8.998  0.2705  0.1044 -0.1106
  596ERGO   ROH 9373   5.974   3.594  10.274  0.1612  0.2838  0.1014
  596ERGO    R1 9374   5.888   3.662  10.013  0.1866  0.0251  0.0225
  596ERGO    R2 9375   5.870   3.924   9.926 -0.1386 -0.0388 -0.1248
  596ERGO    R3 9376   6.029   3.833   9.725  0.0872  0.0700  0.0009
  596ERGO    R4 9377   5.885   4.061   9.609 -0.0947 -0.1286 -0.1616
  596ERGO    R5 9378   5.896   3.859   9.527  0.1799 -0.1442 -0.0906
  596ERGO    C1 9379   6.043   4.055   9.236  0.1428 -0.0787 -0.0650
  596ERGO    C2 9380   5.887   4.298   9.023 -0.2085  0.1194  0.0725
  597ERGO   ROH 9381  17.102   0.659  10.193 -0.2682  0.1704  0.0321
  597ERGO    R1 9382  17.154   0.705   9.918 -0.2613  0.1359  0.0272
  597ERGO    R2 9383  17.254   0.508   9.751  0.0619  0.2057  0.1283
  597ERGO    R3 9384  17.037   0.570   9.601  0.0068 -0.1604  0.0488
  597ERGO    R4 9385  17.250   0.520   9.406  0.1855  0.2664  0.1284
  597ERGO    R5 9386  17.124   0.698   9.419 -0.1477  0.0395  0.1133
  597ERGO    C1 9387  17.042   0.585   9.064  0.2060 -0.0419  0.0539
  597ERGO    C2 9388  17.136   0.608   8.699 -0.1616  0.1400  0.0367
  598ERGO   ROH 9389   9.718   7.016  10.824  0.0134 -0.0642  0.0409
  598ERGO    R1 9390   9.832   6.959  10.572  0.0160 -0.0328  0.0354
  598ERGO    R2 9391   9.697   6.819  10.376  0.0221 -0.0162  0.0215
  598ERGO    R3 9392   9.757   7.036  10.224  0.0146  0.0015  0.0429
  598ERGO    R4 9393   9.719   6.819  10.031 -0.3221  0.0955 -0.0043
  598ERGO    R5 9394   9.893   6.949  10.047 -0.2169 -0.0249 -0.1272
  598ERGO    C1 9395   9.788   7.023   9.688 -0.5293  0.1771  0.0007
  598ERGO    C2 9396   9.786   6.990   9.337 -0.0642  0.1883  0.0645
  599ERGO   ROH 9397   7.757   1.424  10.189 -0.0860  0.0214  0.0674
  599ERGO    R1 9398   7.710   1.294   9.942 -0.1358  0.0141  0.0800
  599ERGO    R2 9399   7.464   1.297   9.816 -0.1142  0.1699  0.0345
  599ERGO    R3 9400   7.609   1.391   9.606 -0.0067  0.0341  0.0473
  599ERGO    R4 9401   7.367   1.279   9.485 -0.1109  0.2849  0.0274
  599ERGO    R5 9402   7.573   1.231   9.432 -0.1571  0.0801  0.0375
  599ERGO    C1 9403   7.447   1.357   9.095 -0.0079  0.2243  0.0351
  599ERGO    C2 9404   7.456   1.367   8.760 -0.2581 -0.0940  0.2115
  600ERGO   ROH 9405  13.068  13.836   9.994  0.1970  0.2030 -0.0653
  600ERGO    R1 9406  13.153  13.706   9.757  0.1640  0.1233 -0.0332
  600ERGO    R2 9407  13.017  13.729   9.518  0.0484 -0.0754  0.0131
  600ERGO    R3 9408  13.260  13.806   9.424 -0.0322  0.0048 -0.1351
  600ERGO    R4 9409  13.134  13.666   9.199  0.0348 -0.4179  0.0717
  600ERGO    R5 9410  13.330  13.624   9.285  0.0919 -0.1359  0.0999
  600ERGO    C1 9411  13.431  13.702   8.925 -0.0488 -0.5420 -0.0332
  600ERGO    C2 9412  13.647  13.616   8.608  0.3298  0.0540  0.2897
  601ERGO   ROH 9413   9.973   2.042  10.040  0.1992 -0.0175  0.1351
  601ERGO    R1 9414  10.069   2.171   9.807  0.0534 -0.0045  0.0807
  601ERGO    R2 9415   9.901   2.272   9.612 -0.0703 -0.0099  0.1809
  601ERGO    R3 9416  10.039   2.502   9.657 -0.0588 -0.0024  0.1078
  601ERGO    R4 9417   9.919   2.538   9.393  0.0009 -0.1054  0.0702
  601ERGO    R5 9418  10.130   2.559   9.443 -0.0096 -0.1025  0.1029
  601ERGO    C1 9419  10.060   2.908   9.307  0.0530 -0.1541 -0.0630
  601ERGO    C2 9420  10.188   3.234   9.323  0.1114  0.0035 -0.1547
  602ERGO   ROH 9421   2.595   0.101  10.011 -0.0175 -0.0909 -0.0077
  602ERGO    R1 9422   2.624   0.011   9.744 -0.0959 -0.0409 -0.0333
  602ERGO    R2 9423   2.415  -0.100   9.601 -0.1300 -0.0461  0.0190
  602ERGO    R3 9424   2.479   0.093   9.421 -0.2187 -0.0053  0.0303
  602ERGO    R4 9425   2.326  -0.103   9.267 -0.1549 -0.0493  0.0255
  602ERGO    R5 9426   2.523  -0.027   9.219 -0.1888  0.0308  0.0162
  602ERGO    C1 9427   2.334   0.076   8.904 -0.2527 -0.0128  0.0399
  602ERGO    C2 9428   2.094   0.019   8.687 -0.0015  0.0936 -0.2856
  603ERGO   ROH 9429  10.898  11.528  10.326 -0.2288 -0.0966 -0.0219
  603ERGO    R1 9430  10.917  11.365  10.095  0.0085 -0.0696 -0.0248
  603ERGO    R2 9431  10.699  11.306   9.935  0.1091 -0.2961 -0.0909
  603ERGO    R3 9432  10.859  11.404   9.738  0.0645 -0.1140 -0.0377
  603ERGO    R4 9433  10.671  11.230   9.599  0.2156 -0.2018 -0.1211
  603ERGO    R5 9434  10.888  11.221   9.587  0.2203 -0.0394 -0.0957
  603ERGO    C1 9435  10.806  11.276   9.219  0.2357  0.0238 -0.0886
  603ERGO    C2 9436  10.745  11.456   8.993 -0.0867  0.2251  0.2027
  604ERGO   ROH 9437  13.710   3.227  10.293  0.1002 -0.1351  0.0321
  604ERGO    R1 9438  13.841   3.235  10.042  0.0183  0.0605 -0.0054
  604ERGO    R2 9439  13.758   3.084   9.826 -0.0005  0.1692 -0.0671
  604ERGO    R3 9440  13.754   3.325   9.701 -0.1146  0.2431  0.0733
  604ERGO    R4 9441  13.734   3.128   9.484 -0.0112  0.3441 -0.0453
  604ERGO    R5 9442  13.880   3.290   9.500 -0.0855  0.4127  0.0538
  604ERGO    C1 9443  13.717   3.380   9.167 -0.1246  0.5153  0.0990
  604ERGO    C2 9444  13.759   3.348   8.752 -0.0174  0.0873  0.3793
  605ERGO   ROH 9445  12.505   5.427  10.596  0.0558  0.0202 -0.1957
  605ERGO    R1 9446  12.361   5.388  10.356  0.0793 -0.0108 -0.2056
  605ERGO    R2 9447  12.292   5.597  10.188 -0.1776  0.0100 -0.0832
  605ERGO    R3 9448  12.418   5.446  10.001 -0.0130  0.2592 -0.1781
  605ERGO    R4 9449  12.258   5.638   9.847 -0.0785  0.2937 -0.0615
  605ERGO    R5 9450  12.255   5.421   9.826  0.0678  0.3104 -0.2594
  605ERGO    C1 9451  12.355   5.520   9.472  0.1336  0.6928 -0.1380
  605ERGO    C2 9452  12.278   5.578   9.103 -0.0716  0.0993 -0.2751
  606ERGO   ROH 9453  13.496  13.070  10.230  0.1539 -0.0905  0.1796
  606ERGO    R1 9454  13.471  12.864  10.038  0.1550 -0.1282  0.2197
  606ERGO    R2 9455  13.498  12.909   9.767 -0.0428 -0.1420  0.1954
  606ERGO    R3 9456  13.683  12.710   9.785  0.0886 -0.0305  0.1035
  606ERGO    R4 9457  13.598  12.708   9.504 -0.1159 -0.1375  0.1643
  606ERGO    R5 9458  13.598  12.538   9.641  0.0837 -0.1101  0.2003
  606ERGO    C1 9459  13.828  12.404   9.367 -0.0350 -0.0303  0.0600
  606ERGO    C2 9460  13.934  12.375   8.925 -0.2524  0.2513 -0.1650
  607ERGO   ROH 9461   3.369  15.805   9.878  0.0219  0.2213 -0.1386
  607ERGO    R1 9462   3.349  15.949   9.636  0.0255  0.2056 -0.1486
  607ERGO    R2 9463   3.564  16.081   9.522  0.0575  0.0970 -0.2174
  607ERGO    R3 9464   3.499  15.932   9.305 -0.0656  0.1026 -0.1852
  607ERGO    R4 9465   3.646  16.161   9.196  0.0359  0.0118 -0.2437
  607ERGO    R5 9466   3.448  16.093   9.135 -0.0137  0.1086 -0.1953
  607ERGO    C1 9467   3.633  16.068   8.802 -0.0924 -0.0324 -0.2289
  607ERGO    C2 9468   3.591  15.901   8.438  0.3427 -0.1799  0.1070
  608ERGO   ROH 9469   7.894   9.967  10.342 -0.0972 -0.3503 -0.0083
  608ERGO    R1 9470   7.801   9.902  10.083 -0.0318 -0.2838 -0.0482
  608ERGO    R2 9471   7.704  10.092   9.907 -0.0237 -0.2463 -0.0061
  608ERGO    R3 9472   7.891   9.986   9.741  0.0256 -0.1631 -0.0053
  608ERGO    R4 9473   7.693  10.109   9.562  0.0659 -0.0756 -0.0016
  608ERGO    R5 9474   7.765   9.904   9.554  0.0727 -0.0755 -0.0812
  608ERGO    C1 9475   7.863  10.020   9.205  0.1644  0.1017  0.0017
  608ERGO    C2 9476   7.782   9.978   8.881 -0.4204  0.0655 -0.0092
  609ERGO   ROH 9477   4.118   9.534  10.208  0.0188 -0.1836  0.0486
  609ERGO    R1 9478   4.270   9.530   9.969 -0.0858  0.0903 -0.0255
  609ERGO    R2 9479   4.232   9.339   9.773  0.0896  0.0834 -0.0481
  609ERGO    R3 9480   4.202   9.557   9.613 -0.2940  0.0836  0.0110
  609ERGO    R4 9481   4.193   9.328   9.429  0.1420  0.1047 -0.0558
  609ERGO    R5 9482   4.325   9.502   9.414 -0.1667  0.3576  0.0043
  609ERGO    C1 9483   4.143   9.525   9.079 -0.1875  0.1173 -0.0050
  609ERGO    C2 9484   4.074   9.404   8.743  0.0134  0.3028  0.2696
  610ERGO   ROH 9485   3.538  13.636  10.047  0.1501 -0.0290 -0.0628
  610ERGO    R1 9486   3.554  13.522   9.788  0.1693 -0.0517 -0.0524
  610ERGO    R2 9487   3.343  13.529   9.610  0.1255 -0.2061 -0.0136
  610ERGO    R3 9488   3.528  13.641   9.445  0.0245 -0.1075 -0.0605
  610ERGO    R4 9489   3.370  13.465   9.271 -0.0688 -0.0053 -0.0690
  610ERGO    R5 9490   3.587  13.465   9.294 -0.0587 -0.0141 -0.1991
  610ERGO    C1 9491   3.560  13.533   8.919 -0.2768  0.2041 -0.1454
  610ERGO    C2 9492   3.436  13.457   8.528 -0.1467  0.0920 -0.1530
  611ERGO   ROH 9493  11.897  11.051  10.260  0.1762 -0.2378 -0.0005
  611ERGO    R1 9494  11.759  11.120  10.023  0.0678 -0.0847  0.1065
  611ERGO    R2 9495  11.853  11.308   9.845  0.0784 -0.1039  0.0956
  611ERGO    R3 9496  11.823  11.106   9.666 -0.1743 -0.0382  0.0586
  611ERGO    R4 9497  11.806  11.351   9.505  0.1264  0.0182  0.1028
  611ERGO    R5 9498  11.661  11.188   9.510 -0.0782  0.1932  0.0743
  611ERGO    C1 9499  11.749  11.186   9.139 -0.0829  0.1510  0.0724
  611ERGO    C2 9500  11.859  11.260   8.760  0.0037  0.0510 -0.4080
  612ERGO   ROH 9501   1.049   5.947  10.518  0.0225  0.0472 -0.0531
  612ERGO    R1 9502   1.076   5.810  10.272 -0.1541 -0.1531  0.0348
  612ERGO    R2 9503   0.872   5.658  10.162 -0.3757  0.0753  0.1086
  612ERGO    R3 9504   0.915   5.817   9.946 -0.1121 -0.1152  0.0168
  612ERGO    R4 9505   0.818   5.564   9.834 -0.4161 -0.0494  0.1510
  612ERGO    R5 9506   1.001   5.668   9.779 -0.2672 -0.3278  0.1285
  612ERGO    C1 9507   0.826   5.658   9.440 -0.1920 -0.3008  0.0896
  612ERGO    C2 9508   0.917   5.706   9.051 -0.3152  0.3229 -0.2747
  613ERGO   ROH 9509   3.654  17.007   9.797  0.0333  0.0655 -0.1818
  613ERGO    R1 9510   3.492  16.930   9.578  0.0875 -0.0596 -0.1780
  613ERGO    R2 9511   3.255  17.059   9.515  0.0799 -0.1287 -0.2784
  613ERGO    R3 9512   3.371  17.084   9.271  0.1168 -0.2178 -0.2714
  613ERGO    R4 9513   3.084  17.109   9.219  0.1384  0.1749 -0.2645
  613ERGO    R5 9514   3.222  16.971   9.122 -0.0380  0.0136 -0.3007
  613ERGO    C1 9515   3.093  17.162   8.818  0.2073  0.2680 -0.2497
  613ERGO    C2 9516   2.988  17.325   8.522 -0.0141 -0.0471  0.3273
  614ERGO   ROH 9517  12.330   0.181  10.130  0.4237 -0.0202 -0.0077
  614ERGO    R1 9518  12.474   0.173   9.887  0.2131 -0.1078 -0.1310
  614ERGO    R2 9519  12.390   0.025   9.669 -0.1209  0.0357 -0.0961
  614ERGO    R3 9520  12.414   0.264   9.540  0.0192  0.0434 -0.0615
  614ERGO    R4 9521  12.370   0.068   9.326 -0.4588  0.1289 -0.0699
  614ERGO    R5 9522  12.534   0.212   9.339 -0.2621 -0.0631 -0.2146
  614ERGO    C1 9523  12.381   0.316   9.006 -0.5239  0.1904 -0.0221
  614ERGO    C2 9524  12.241   0.136   8.695  0.0959  0.1754  0.2438
  615PSPI    C1 9525   6.912  12.718   6.109  0.1392 -0.1638  0.2990
  615PSPI    C2 9526   7.300  12.694   6.013  0.1244 -0.1450  0.2342
  615PSPI    C3 9527   7.163  13.009   6.218  0.0674  0.0590 -0.1090
  615PSPI   PO4 9528   6.870  12.488   6.228 -0.0296  0.1807 -0.2236
  615PSPI   GL1 9529   6.567  12.348   6.572 -0.4122  0.1958  0.0784
  615PSPI   GL2 9530   6.807  12.099   6.743  0.2244  0.1865 -0.0213
  615PSPI   C1A 9531   6.487  12.451   7.024 -0.1943 -0.0309 -0.1855
  615PSPI   C2A 9532   6.225  12.539   7.314 -0.0137 -0.0208 -0.1065
  615PSPI   C3A 9533   5.936  12.772   7.672  0.0190  0.0245  0.0146
  615PSPI   C4A 9534   5.983  12.949   8.054  0.0525 -0.0804 -0.0462
  615PSPI   C1B 9535   6.910  12.135   7.205  0.1945  0.0819 -0.0398
  615PSPI   C2B 9536   6.854  11.945   7.569  0.0073  0.1444 -0.2415
  615PSPI   C3B 9537   6.646  11.967   7.956  0.1592  0.2409  0.0333
  615PSPI   C4B 9538   6.793  11.977   8.392 -0.0644  0.0727  0.0917
  616PSPI    C1 9539   5.971  17.406   5.914  0.1523  0.4265  0.2351
  616PSPI    C2 9540   6.370  17.438   5.902  0.1882 -0.0298  0.0074
  616PSPI    C3 9541   6.164  17.366   5.566 -0.0561 -0.1063  0.1708
  616PSPI   PO4 9542   5.861  17.384   6.155  0.3804  0.1313  0.1618
  616PSPI   GL1 9543   6.031  17.198   6.575  0.2294 -0.0649  0.0029
  616PSPI   GL2 9544   5.742  17.251   6.658  0.1072  0.1354 -0.0928
  616PSPI   C1A 9545   6.279  16.957   6.875 -0.1169 -0.1969  0.0940
  616PSPI   C2A 9546   6.482  16.681   7.078 -0.0446 -0.1322 -0.0175
  616PSPI   C3A 9547   6.869  16.689   7.352 -0.1766  0.1293  0.2470
  616PSPI   C4A 9548   6.917  16.502   7.750  0.0777 -0.1322 -0.0478
  616PSPI   C1B 9549   5.709  17.077   7.070 -0.4132 -0.1643 -0.1252
  616PSPI   C2B 9550   6.017  17.116   7.281 -0.0167  0.0416  0.1270
  616PSPI   C3B 9551   6.225  16.949   7.626  0.1066 -0.2925  0.0717
  616PSPI   C4B 9552   6.319  16.823   7.974  0.2004 -0.1732 -0.2438
  617PSPI    C1 9553  17.420  10.156   6.406 -0.2091 -0.1449  0.1639
  617PSPI    C2 9554  17.802  10.040   6.437 -0.1507  0.0000  0.0025
  617PSPI    C3 9555  17.567   9.883   6.153 -0.2917 -0.2944  0.2756
  617PSPI   PO4 9556  17.362  10.255   6.638 -0.1620 -0.0208 -0.2058
  617PSPI   GL1 9557  17.570  10.504   6.969 -0.4084  0.1185 -0.0090
  617PSPI   GL2 9558  17.820  10.323   6.870 -0.1450 -0.2241 -0.0232
  617PSPI   C1A 9559  17.532  10.668   7.327  0.2331 -0.0602  0.1830
  617PSPI   C2A 9560  17.681  10.659   7.715 -0.1036 -0.1720 -0.1731
  617PSPI   C3A 9561  17.845  10.566   8.130  0.0065  0.3097 -0.1471
  617PSPI   C4A 9562  17.939  10.315   8.593 -0.0766 -0.1724  0.2842
  617PSPI   C1B 9563  18.013  10.336   7.226  0.1279 -0.1648  0.0365
  617PSPI   C2B 9564  18.115  10.431   7.558 -0.0519  0.0816 -0.2689
  617PSPI   C3B 9565  18.099  10.193   7.866 -0.3591  0.0632  0.0658
  617PSPI   C4B 9566  18.043   9.960   8.245  0.0098 -0.1737 -0.1495
  618PSPI    C1 9567  16.948  16.574   5.823 -0.3156 -0.0456 -0.1851
  618PSPI    C2 9568  17.245  16.319   5.908 -0.1105  0.1978 -0.1606
  618PSPI    C3 9569  17.055  16.294   5.557  0.0616  0.1545 -0.2519
  618PSPI   PO4 9570  16.991  16.714   6.095 -0.3841 -0.1181  0.1043
  618PSPI   GL1 9571  17.011  16.449   6.417 -0.0997 -0.0592 -0.0701
  618PSPI   GL2 9572  17.198  16.181   6.402 -0.2791 -0.0171  0.1087
  618PSPI   C1A 9573  17.156  16.752   6.792  0.1039 -0.1805 -0.2913
  618PSPI   C2A 9574  17.254  16.986   7.134  0.0552  0.0935  0.0718
  618PSPI   C3A 9575  17.122  17.213   7.535 -0.0903  0.0924 -0.1948
  618PSPI   C4A 9576  16.796  17.452   7.694  0.4489 -0.0402 -0.2065
  618PSPI   C1B 9577  17.224  16.079   6.822  0.0759 -0.1492  0.0464
  618PSPI   C2B 9578  17.383  16.113   7.282  0.2631  0.1515 -0.0760
  618PSPI   C3B 9579  17.568  16.291   7.579  0.2098  0.1511  0.0159
  618PSPI   C4B 9580  17.927  16.449   7.675  0.1567  0.0145  0.1193
  619PSPI    C1 9581   4.005  13.141   5.723 -0.1363 -0.1042  0.2074
  619PSPI    C2 9582   3.938  12.807   5.931 -0.2000 -0.1326  0.1415
  619PSPI    C3 9583   3.960  12.792   5.532 -0.0957 -0.0754  0.1449
  619PSPI   PO4 9584   4.241  13.267   5.897  0.0836 -0.1611 -0.1703
  619PSPI   GL1 9585   4.321  13.065   6.305  0.0011 -0.2337 -0.1667
  619PSPI   GL2 9586   4.668  12.915   6.346  0.0508 -0.0272  0.1620
  619PSPI   C1A 9587   4.275  13.411   6.527  0.2861 -0.1967 -0.0631
  619PSPI   C2A 9588   4.460  13.572   6.868  0.4655  0.0429  0.2120
  619PSPI   C3A 9589   4.456  13.774   7.300 -0.0379  0.1549 -0.2984
  619PSPI   C4A 9590   4.302  13.686   7.718  0.1839  0.0017  0.0487
  619PSPI   C1B 9591   4.621  13.139   6.800  0.2433  0.2753 -0.0653
  619PSPI   C2B 9592   4.844  13.355   7.140  0.0956  0.2440  0.0375
  619PSPI   C3B 9593   4.993  13.689   7.078  0.0163 -0.0239  0.1262
  619PSPI   C4B 9594   4.802  13.984   6.745  0.0630 -0.2619 -0.0196
  620PSPI    C1 9595  11.910   9.331   6.164  0.1503  0.0277 -0.1588
  620PSPI    C2 9596  12.108   9.477   6.479  0.0476 -0.0794 -0.0438
  620PSPI    C3 9597  12.286   9.215   6.235  0.0817 -0.1001  0.0030
  620PSPI   PO4 9598  11.655   9.281   6.268 -0.0421 -0.1710  0.0843
  620PSPI   GL1 9599  11.402   9.525   6.559  0.2472 -0.0179 -0.1891
  620PSPI   GL2 9600  11.684   9.689   6.682  0.0975 -0.0147 -0.1635
  620PSPI   C1A 9601  11.328   9.588   7.069 -0.1975 -0.1137 -0.0178
  620PSPI   C2A 9602  11.391   9.761   7.456 -0.1828 -0.4913  0.0153
  620PSPI   C3A 9603  11.469   9.755   7.816  0.0040 -0.0847 -0.1431
  620PSPI   C4A 9604  11.577   9.726   8.224  0.1160 -0.2175  0.0266
  620PSPI   C1B 9605  11.816   9.685   7.045  0.1213 -0.0413  0.0034
  620PSPI   C2B 9606  11.970   9.740   7.445  0.1413  0.0868  0.3402
  620PSPI   C3B 9607  12.161   9.674   7.963  0.1145 -0.0690 -0.0488
  620PSPI   C4B 9608  12.031   9.542   8.343 -0.2129  0.0258 -0.4676
  621PSPI    C1 9609   3.720   1.938   5.741  0.0492 -0.0377  0.1767
  621PSPI    C2 9610   4.042   1.785   5.559  0.0658  0.1290  0.0632
  621PSPI    C3 9611   3.759   1.969   5.344 -0.1129 -0.0281  0.1609
  621PSPI   PO4 9612   3.808   2.043   5.881 -0.0204 -0.0742 -0.0703
  621PSPI   GL1 9613   3.813   2.122   6.209  0.0866  0.3326  0.3844
  621PSPI   GL2 9614   3.501   2.217   6.447  0.0105 -0.1470 -0.0275
  621PSPI   C1A 9615   3.711   1.794   6.539 -0.1695  0.0328  0.1744
  621PSPI   C2A 9616   3.877   1.849   6.966 -0.2029  0.2693 -0.1634
  621PSPI   C3A 9617   3.975   1.903   7.454 -0.2235  0.0445  0.0746
  621PSPI   C4A 9618   4.185   1.977   7.734  0.1888 -0.0684 -0.0379
  621PSPI   C1B 9619   3.450   2.094   6.907  0.3967 -0.3544  0.1888
  621PSPI   C2B 9620   3.035   2.114   7.167 -0.1724  0.0898  0.0597
  621PSPI   C3B 9621   3.054   2.147   7.526  0.0943  0.3497 -0.0218
  621PSPI   C4B 9622   2.769   1.970   7.832  0.0314 -0.2412  0.0424
  622PSPI    C1 9623   2.751   8.210   5.590  0.0642 -0.1176 -0.1651
  622PSPI    C2 9624   2.727   8.609   5.574 -0.0617 -0.1206 -0.0702
  622PSPI    C3 9625   3.065   8.433   5.697  0.0321 -0.0462 -0.2193
  622PSPI   PO4 9626   2.612   8.093   5.780 -0.1721  0.1791 -0.1977
  622PSPI   GL1 9627   2.560   8.240   6.196  0.0522 -0.1566 -0.0562
  622PSPI   GL2 9628   2.662   8.497   6.059 -0.0608 -0.2829 -0.2248
  622PSPI   C1A 9629   2.351   8.506   6.469 -0.1949 -0.1641  0.3221
  622PSPI   C2A 9630   2.307   8.625   6.958 -0.2683  0.1878  0.0517
  622PSPI   C3A 9631   2.518   8.893   7.351 -0.3505  0.0316 -0.0735
  622PSPI   C4A 9632   2.772   8.920   7.780  0.1693  0.0363 -0.1163
  622PSPI   C1B 9633   2.742   8.879   6.381 -0.1826  0.0163  0.1964
  622PSPI   C2B 9634   2.731   8.835   6.831 -0.1733  0.2378 -0.2320
  622PSPI   C3B 9635   2.931   8.605   7.151 -0.0287  0.0450 -0.1427
  622PSPI   C4B 9636   2.989   8.493   7.659  0.0036 -0.0183 -0.2917
  623PSPI    C1 9637   7.702  12.506   6.303 -0.0171  0.1094  0.0372
  623PSPI    C2 9638   8.049  12.419   6.124 -0.0201  0.1525  0.0103
  623PSPI    C3 9639   7.704  12.327   5.945 -0.0227 -0.0633  0.1222
  623PSPI   PO4 9640   7.730  12.402   6.500 -0.1220 -0.0344  0.2806
  623PSPI   GL1 9641   7.513  12.314   6.837  0.2127  0.0919 -0.0216
  623PSPI   GL2 9642   7.748  12.117   6.929  0.3063 -0.2927  0.0408
  623PSPI   C1A 9643   7.382  12.294   7.273 -0.0174 -0.0200  0.0345
  623PSPI   C2A 9644   7.298  12.140   7.652  0.1479  0.1657 -0.1381
  623PSPI   C3A 9645   7.018  12.327   7.833 -0.2048 -0.1228 -0.0102
  623PSPI   C4A 9646   6.821  12.503   8.259 -0.1329 -0.0251  0.2199
  623PSPI   C1B 9647   7.821  12.031   7.354  0.0349  0.1892 -0.0518
  623PSPI   C2B 9648   7.787  12.084   7.795  0.1056  0.1730  0.0227
  623PSPI   C3B 9649   7.471  11.842   8.030 -0.0311 -0.0706  0.0479
  623PSPI   C4B 9650   7.282  12.018   8.330  0.0333 -0.1815  0.0303
  624PSPI    C1 9651   5.818  10.896   6.064 -0.1256 -0.0273 -0.1051
  624PSPI    C2 9652   6.126  11.083   5.891 -0.1634  0.1595  0.0266
  624PSPI    C3 9653   6.020  11.177   6.265 -0.1804 -0.1299  0.0967
  624PSPI   PO4 9654   5.898  10.590   6.072 -0.1238 -0.0442 -0.0079
  624PSPI   GL1 9655   6.095  10.440   6.478 -0.1203  0.2165 -0.0110
  624PSPI   GL2 9656   6.370  10.450   6.643  0.1163  0.1631  0.1562
  624PSPI   C1A 9657   5.894  10.261   6.777  0.2581 -0.0479 -0.1100
  624PSPI   C2A 9658   5.832   9.996   7.138 -0.0621 -0.2661 -0.1366
  624PSPI   C3A 9659   5.820   9.908   7.567 -0.0270 -0.0359  0.2236
  624PSPI   C4A 9660   5.873   9.980   7.949 -0.0854  0.3149 -0.2046
  624PSPI   C1B 9661   6.216  10.531   7.044 -0.0176 -0.1513  0.1374
  624PSPI   C2B 9662   6.218  10.315   7.469  0.0132 -0.0176  0.2512
  624PSPI   C3B 9663   6.449  10.080   7.841  0.1429  0.2181 -0.1753
  624PSPI   C4B 9664   6.356   9.666   8.050 -0.0813 -0.1076 -0.1565
  625PSPI    C1 9665  10.692   7.270   6.578  0.1323  0.1047 -0.0730
  625PSPI    C2 9666  10.512   7.117   6.256  0.0522 -0.0534  0.0451
  625PSPI    C3 9667  10.870   7.290   6.221  0.0633 -0.1079 -0.1212
  625PSPI   PO4 9668  10.643   7.435   6.743  0.3335 -0.1452  0.1665
  625PSPI   GL1 9669  10.788   7.804   6.919 -0.0769 -0.1526  0.1663
  625PSPI   GL2 9670  11.091   7.982   6.915 -0.1882  0.1079  0.0042
  625PSPI   C1A 9671  10.725   7.871   7.364 -0.5518 -0.1375  0.2976
  625PSPI   C2A 9672  10.552   7.657   7.685 -0.3859  0.4554  0.0342
  625PSPI   C3A 9673  10.505   7.650   8.153  0.3230  0.2485 -0.1272
  625PSPI   C4A 9674  10.898   7.701   8.357  0.1050  0.1402  0.0239
  625PSPI   C1B 9675  11.197   8.218   7.240 -0.0148 -0.2759 -0.2499
  625PSPI   C2B 9676  11.096   8.429   7.572 -0.0387 -0.0916 -0.0368
  625PSPI   C3B 9677  10.872   8.695   7.846  0.0964 -0.0197 -0.0334
  625PSPI   C4B 9678  10.847   8.772   8.210 -0.1190 -0.1090  0.0326
  626PSPI    C1 9679  17.026   5.797   6.125  0.1621 -0.0911  0.2311
  626PSPI    C2 9680  17.170   6.170   6.108  0.1934 -0.1019  0.2586
  626PSPI    C3 9681  16.931   6.034   5.817  0.2286 -0.0797  0.2193
  626PSPI   PO4 9682  17.266   5.693   6.252 -0.2029 -0.0961 -0.1336
  626PSPI   GL1 9683  17.330   5.464   6.671  0.0873 -0.0075  0.3126
  626PSPI   GL2 9684  17.270   5.229   6.486  0.4129 -0.0361  0.2684
  626PSPI   C1A 9685  17.431   5.311   7.072  0.2067  0.1558  0.0537
  626PSPI   C2A 9686  17.465   5.091   7.421  0.0809  0.0034  0.3790
  626PSPI   C3A 9687  17.296   5.184   7.799  0.0931 -0.0656  0.1111
  626PSPI   C4A 9688  17.016   5.019   8.068 -0.1083  0.4817 -0.2257
  626PSPI   C1B 9689  17.686   5.116   6.619  0.1487  0.4615 -0.0487
  626PSPI   C2B 9690  17.812   4.931   7.024  0.2280 -0.1073  0.1912
  626PSPI   C3B 9691  18.014   4.525   7.095  0.2927  0.2657  0.0886
  626PSPI   C4B 9692  18.118   4.256   6.753  0.3669 -0.2617  0.4246
  627PSPI    C1 9693   0.782  10.505   6.198  0.1979  0.1779  0.2112
  627PSPI    C2 9694   1.126  10.319   6.284  0.0714 -0.1330  0.0587
  627PSPI    C3 9695   0.987  10.319   5.909  0.0167  0.1852  0.0766
  627PSPI   PO4 9696   0.753  10.703   6.239  0.1163 -0.1826 -0.1227
  627PSPI   GL1 9697   0.827  10.903   6.794  0.0042  0.0736 -0.2924
  627PSPI   GL2 9698   1.106  10.818   6.596 -0.0872 -0.2130 -0.0710
  627PSPI   C1A 9699   1.049  10.851   7.177  0.3472 -0.1026  0.3205
  627PSPI   C2A 9700   1.176  10.861   7.638 -0.1499  0.0333 -0.2554
  627PSPI   C3A 9701   1.054  10.802   8.047  0.0670  0.3391  0.0404
  627PSPI   C4A 9702   1.068  10.589   8.433  0.0333 -0.0391 -0.2275
  627PSPI   C1B 9703   1.251  10.487   6.859  0.3440  0.1440  0.2067
  627PSPI   C2B 9704   1.045  10.359   7.261  0.0219  0.1110 -0.0156
  627PSPI   C3B 9705   1.147  10.297   7.746 -0.0424  0.1275  0.1013
  627PSPI   C4B 9706   0.787  10.266   7.992  0.2379  0.2985  0.0825
  628PSPI    C1 9707   5.044  16.042   5.401  0.0800  0.1541 -0.0934
  628PSPI    C2 9708   4.790  15.982   5.098 -0.0614 -0.2141  0.0921
  628PSPI    C3 9709   4.670  16.181   5.424  0.0427  0.0434 -0.0242
  628PSPI   PO4 9710   5.081  15.762   5.465 -0.1137 -0.3086  0.0173
  628PSPI   GL1 9711   5.190  15.599   5.934 -0.1470 -0.1463 -0.1217
  628PSPI   GL2 9712   4.922  15.495   5.865 -0.3404  0.1411  0.1140
  628PSPI   C1A 9713   5.028  15.520   6.354 -0.1449  0.0989 -0.1538
  628PSPI   C2A 9714   4.820  15.241   6.653  0.0885 -0.0549  0.3175
  628PSPI   C3A 9715   4.580  14.931   6.791 -0.0100 -0.2295  0.2653
  628PSPI   C4A 9716   4.370  14.566   6.940 -0.0858  0.0213  0.4219
  628PSPI   C1B 9717   4.691  15.237   6.174  0.1412  0.1943  0.0732
  628PSPI   C2B 9718   4.464  14.806   6.320  0.2307 -0.2924 -0.0555
  628PSPI   C3B 9719   4.580  14.354   6.488  0.2822 -0.4015 -0.0757
  628PSPI   C4B 9720   4.361  14.111   6.863 -0.2098 -0.1049 -0.0153
  629PSPI    C1 9721   2.090   7.280   5.907  0.0195  0.1477  0.0102
  629PSPI    C2 9722   2.283   6.940   5.823 -0.1997 -0.0048  0.1148
  629PSPI    C3 9723   1.891   6.933   5.906 -0.2543  0.3014 -0.1000
  629PSPI   PO4 9724   2.353   7.385   6.000 -0.2170  0.0945  0.0278
  629PSPI   GL1 9725   2.700   7.307   6.342 -0.0643  0.1324 -0.0436
  629PSPI   GL2 9726   2.838   7.610   6.649  0.1270 -0.0517 -0.2672
  629PSPI   C1A 9727   2.554   7.218   6.791 -0.1377  0.0595 -0.0665
  629PSPI   C2A 9728   2.369   7.285   7.216 -0.0689 -0.0095 -0.1116
  629PSPI   C3A 9729   2.405   7.332   7.671 -0.1502  0.0587  0.0989
  629PSPI   C4A 9730   2.419   7.499   8.069  0.1756  0.3667  0.1662
  629PSPI   C1B 9731   2.674   7.707   7.046  0.3579 -0.0925  0.0123
  629PSPI   C2B 9732   2.662   7.743   7.479 -0.0967  0.0358 -0.0541
  629PSPI   C3B 9733   2.510   7.948   7.917  0.4458  0.1102  0.1926
  629PSPI   C4B 9734   2.775   8.153   8.240 -0.1902  0.1500 -0.0873
  630PSPI    C1 9735   1.638  10.923   6.105 -0.0180 -0.2104  0.0186
  630PSPI    C2 9736   1.412  10.983   5.780  0.0306 -0.0843  0.0079
  630PSPI    C3 9737   1.255  10.807   6.102 -0.0536 -0.0930 -0.0377
  630PSPI   PO4 9738   1.857  10.795   6.056 -0.1888 -0.1247 -0.1591
  630PSPI   GL1 9739   2.154  10.731   6.349 -0.1236  0.0204 -0.0698
  630PSPI   GL2 9740   2.130  10.975   6.489  0.2315  0.1567  0.0483
  630PSPI   C1A 9741   1.993  10.398   6.644  0.3709 -0.0976  0.1159
  630PSPI   C2A 9742   2.001  10.092   6.908 -0.1004  0.2492 -0.4301
  630PSPI   C3A 9743   1.933   9.977   7.339 -0.0448  0.0299  0.1962
  630PSPI   C4A 9744   2.101   9.792   7.686  0.1107  0.1239 -0.0004
  630PSPI   C1B 9745   2.134  10.802   6.970  0.1378  0.0786 -0.3429
  630PSPI   C2B 9746   2.062  10.922   7.360  0.1706 -0.0727  0.0637
  630PSPI   C3B 9747   2.059  10.942   7.764  0.2553  0.1681  0.3321
  630PSPI   C4B 9748   1.905  10.985   8.255 -0.2441 -0.2256 -0.1801
  631PSPI    C1 9749   9.810   3.482   6.369 -0.1889  0.1317  0.1177
  631PSPI    C2 9750  10.173   3.644   6.329 -0.1377 -0.0019  0.0333
  631PSPI    C3 9751   9.858   3.877   6.407 -0.0758  0.1458 -0.1477
  631PSPI   PO4 9752   9.838   3.227   6.450  0.0372 -0.0134  0.3297
  631PSPI   GL1 9753  10.076   3.037   6.801  0.0483  0.2258 -0.2539
  631PSPI   GL2 9754  10.303   3.222   6.717 -0.0394  0.0496  0.0961
  631PSPI   C1A 9755   9.857   2.809   7.141  0.3297 -0.0374 -0.2313
  631PSPI   C2A 9756   9.880   2.713   7.563 -0.3205 -0.0055 -0.0487
  631PSPI   C3A 9757   9.699   2.807   7.989 -0.0575  0.2871  0.0636
  631PSPI   C4A 9758   9.861   2.925   8.369  0.1528  0.3374  0.0888
  631PSPI   C1B 9759  10.220   3.125   7.261  0.1069 -0.2497 -0.2188
  631PSPI   C2B 9760  10.133   3.150   7.762  0.1932  0.0503  0.1787
  631PSPI   C3B 9761   9.952   3.314   8.042 -0.1982 -0.0532 -0.0870
  631PSPI   C4B 9762   9.902   3.423   8.493 -0.2677  0.0436 -0.0929
  632PSPI    C1 9763  11.954   8.702   6.237  0.2133 -0.0609 -0.1443
  632PSPI    C2 9764  12.071   8.920   5.922  0.2027 -0.2941 -0.3119
  632PSPI    C3 9765  11.692   8.795   5.949  0.0978  0.0743  0.0026
  632PSPI   PO4 9766  11.982   8.858   6.419  0.1347 -0.1758  0.0167
  632PSPI   GL1 9767  12.305   8.946   6.695 -0.0173  0.0391 -0.2030
  632PSPI   GL2 9768  12.394   8.686   6.807 -0.1099 -0.0775  0.1505
  632PSPI   C1A 9769  12.192   9.314   6.997 -0.2399 -0.0494  0.2463
  632PSPI   C2A 9770  12.244   9.344   7.429 -0.0487 -0.1815  0.0697
  632PSPI   C3A 9771  12.280   9.191   7.917 -0.1388 -0.0003 -0.2699
  632PSPI   C4A 9772  12.449   8.867   8.206 -0.1042 -0.4252  0.2024
  632PSPI   C1B 9773  12.583   8.955   7.162 -0.1717  0.2593  0.1435
  632PSPI   C2B 9774  12.723   9.234   7.567  0.2848  0.0790 -0.1118
  632PSPI   C3B 9775  13.142   9.385   7.715 -0.2081  0.1777  0.0630
  632PSPI   C4B 9776  13.404   9.429   7.477 -0.3028 -0.2076 -0.0759
  633PSPI    C1 9777  17.848  17.468   5.959 -0.0095  0.1195  0.0024
  633PSPI    C2 9778  17.748  17.382   5.581 -0.2952  0.0620  0.0891
  633PSPI    C3 9779  17.532  17.235   5.884  0.0275 -0.0247  0.2817
  633PSPI   PO4 9780  17.822  17.687   5.989  0.1846 -0.1871 -0.0559
  633PSPI   GL1 9781  17.900  17.860   6.416  0.1049 -0.1883  0.0116
  633PSPI   GL2 9782  17.983  17.597   6.465  0.0791  0.0249 -0.1000
  633PSPI   C1A 9783  17.634  17.853   6.726  0.3485 -0.2714 -0.0387
  633PSPI   C2A 9784  17.721  17.789   7.191  0.0604  0.0549  0.0180
  633PSPI   C3A 9785  17.750  17.757   7.623 -0.1884 -0.1007 -0.0722
  633PSPI   C4A 9786  17.576  17.990   7.889  0.0441  0.1864  0.2778
  633PSPI   C1B 9787  18.041  17.680   6.869 -0.2307  0.3528  0.5209
  633PSPI   C2B 9788  18.215  17.678   7.306 -0.0321  0.0832  0.2677
  633PSPI   C3B 9789  18.171  17.520   7.799 -0.2224  0.2476  0.2551
  633PSPI   C4B 9790  17.791  17.564   8.149  0.0676  0.2793 -0.2329
  634PSPI    C1 9791   4.595   3.756   5.660  0.0061 -0.0157 -0.2964
  634PSPI    C2 9792   4.606   4.146   5.750  0.1582 -0.0642 -0.0959
  634PSPI    C3 9793   4.510   4.028   5.380 -0.1429  0.1529 -0.0909
  634PSPI   PO4 9794   4.422   3.700   5.884 -0.1172 -0.0835 -0.0818
  634PSPI   GL1 9795   4.444   3.676   6.365  0.0055 -0.0025 -0.0483
  634PSPI   GL2 9796   4.255   3.863   6.562  0.1047  0.0422 -0.3319
  634PSPI   C1A 9797   4.555   3.655   6.844  0.2698 -0.0272 -0.0992
  634PSPI   C2A 9798   4.657   3.672   7.232 -0.2540  0.1433 -0.3806
  634PSPI   C3A 9799   5.055   3.544   7.480 -0.2513  0.1100  0.0598
  634PSPI   C4A 9800   5.266   3.379   7.804 -0.2907  0.0376 -0.1328
  634PSPI   C1B 9801   4.230   4.005   6.948  0.0757  0.3343  0.0377
  634PSPI   C2B 9802   4.352   4.082   7.397  0.3987 -0.2200  0.0035
  634PSPI   C3B 9803   4.169   3.973   7.894  0.0887  0.1298  0.1102
  634PSPI   C4B 9804   3.966   3.801   8.311 -0.2583  0.1446 -0.1677
  635POPI    C1 9805  13.048  16.313   6.291  0.1531 -0.1606  0.0257
  635POPI    C2 9806  12.837  16.461   5.984  0.0153 -0.0305  0.1812
  635POPI    C3 9807  12.795  16.078   6.090 -0.1807  0.0063  0.2410
  635POPI   PO4 9808  12.994  16.444   6.528  0.0179 -0.2123  0.4421
  635POPI   GL1 9809  12.907  16.365   6.885  0.0820  0.0560  0.2145
  635POPI   GL2 9810  13.232  16.157   6.842  0.1680 -0.0444  0.2056
  635POPI   C1A 9811  13.057  16.249   7.309  0.0741  0.2218 -0.0543
  635POPI   D2A 9812  13.118  16.156   7.774  0.2413 -0.1894 -0.5573
  635POPI   C3A 9813  13.062  15.793   8.020  0.3012 -0.2537 -0.0408
  635POPI   C4A 9814  13.337  15.606   8.343 -0.0917 -0.0168 -0.1879
  635POPI   C1B 9815  13.544  16.306   7.147  0.0372  0.0387  0.0292
  635POPI   C2B 9816  13.600  16.379   7.649  0.0270  0.0927 -0.0715
  635POPI   C3B 9817  13.489  16.309   8.140  0.2626  0.0234  0.2994
  635POPI   C4B 9818  13.085  16.100   8.357 -0.2698 -0.0470  0.1197
  636POPI    C1 9819   1.036  11.715   5.770  0.1030  0.0869  0.1541
  636POPI    C2 9820   0.942  11.482   5.459  0.1733  0.2112  0.0387
  636POPI    C3 9821   0.889  11.878   5.436  0.0881  0.2114  0.2207
  636POPI   PO4 9822   0.948  11.629   6.070 -0.1540  0.0713  0.1219
  636POPI   GL1 9823   0.919  11.633   6.534  0.1153  0.1277 -0.0253
  636POPI   GL2 9824   1.095  11.888   6.592 -0.0640  0.2171 -0.0868
  636POPI   C1A 9825   1.030  11.313   6.798  0.2707 -0.0210 -0.0451
  636POPI   D2A 9826   1.306  11.272   7.080  0.3387 -0.1950 -0.0360
  636POPI   C3A 9827   1.202  11.408   7.457 -0.2889  0.1173  0.3004
  636POPI   C4A 9828   1.188  11.262   7.958 -0.0572  0.2088 -0.2774
  636POPI   C1B 9829   1.071  11.757   7.006 -0.0884 -0.0898  0.0417
  636POPI   C2B 9830   1.142  11.926   7.438  0.1028  0.0014 -0.2087
  636POPI   C3B 9831   0.897  12.014   7.845 -0.2344 -0.0728 -0.5407
  636POPI   C4B 9832   0.904  12.192   8.251  0.1880 -0.0560 -0.4589
  637POPI    C1 9833  16.076  15.475   5.980 -0.0739 -0.0955 -0.0561
  637POPI    C2 9834  15.685  15.428   6.050 -0.1028  0.1556 -0.0423
  637POPI    C3 9835  15.808  15.608   5.715 -0.0049  0.2408  0.0385
  637POPI   PO4 9836  16.234  15.259   6.087  0.2888  0.0163  0.0086
  637POPI   GL1 9837  16.536  15.249   6.442  0.2292 -0.0958  0.2259
  637POPI   GL2 9838  16.308  15.248   6.680  0.0250  0.2525  0.0169
  637POPI   C1A 9839  16.754  15.354   6.878  0.0626  0.0773  0.0574
  637POPI   D2A 9840  16.699  15.383   7.331  0.1317 -0.0162 -0.0818
  637POPI   C3A 9841  16.750  15.047   7.608  0.0755  0.1157 -0.3460
  637POPI   C4A 9842  16.489  14.864   7.786 -0.0138  0.1062  0.0921
  637POPI   C1B 9843  16.310  15.208   7.127  0.0444 -0.0809  0.1773
  637POPI   C2B 9844  16.172  15.071   7.498  0.1332  0.1722  0.4441
  637POPI   C3B 9845  16.064  15.088   7.983  0.2448  0.0936  0.0345
  637POPI   C4B 9846  16.212  14.884   8.280 -0.1994  0.4222  0.2921
  638POPI    C1 9847   5.403  10.668   5.731 -0.2063  0.4038 -0.2126
  638POPI    C2 9848   5.168  10.406   5.541 -0.1271  0.1804 -0.0071
  638POPI    C3 9849   5.424  10.632   5.333 -0.1458  0.0449 -0.1802
  638POPI   PO4 9850   5.301  10.873   5.908  0.0116  0.1507 -0.2767
  638POPI   GL1 9851   5.399  10.924   6.317  0.2647  0.0721 -0.0750
  638POPI   GL2 9852   5.157  11.164   6.341 -0.1895 -0.0041  0.0043
  638POPI   C1A 9853   5.562  11.112   6.741  0.0432  0.2289  0.0849
  638POPI   D2A 9854   5.615  11.227   7.153  0.1208  0.2519 -0.3217
  638POPI   C3A 9855   5.504  10.968   7.407  0.0710 -0.2232 -0.2586
  638POPI   C4A 9856   5.422  10.801   7.764 -0.1545  0.0567 -0.2113
  638POPI   C1B 9857   5.125  11.233   6.922 -0.0688  0.0717  0.3470
  638POPI   C2B 9858   4.997  11.122   7.351  0.0332 -0.1154  0.0603
  638POPI   C3B 9859   4.960  10.909   7.725  0.3352 -0.0252 -0.0867
  638POPI   C4B 9860   4.760  10.952   8.118 -0.3253  0.0715 -0.2189
  639POPI    C1 9861  15.148  14.265   5.810 -0.0443  0.0462 -0.0148
  639POPI    C2 9862  14.841  14.082   5.631  0.0081  0.1542 -0.2185
  639POPI    C3 9863  15.162  13.871   5.742 -0.2155  0.0071  0.1681
  639POPI   PO4 9864  15.066  14.455   6.070  0.2081 -0.0644 -0.4508
  639POPI   GL1 9865  15.257  14.316   6.475  0.3010 -0.1111 -0.0528
  639POPI   GL2 9866  15.510  14.484   6.561  0.0206  0.3787  0.0335
  639POPI   C1A 9867  15.382  14.099   6.824 -0.0804  0.1411 -0.1199
  639POPI   D2A 9868  15.266  13.757   7.081  0.1481  0.2056  0.2758
  639POPI   C3A 9869  14.874  13.427   7.087 -0.0429  0.0954 -0.0937
  639POPI   C4A 9870  14.475  13.619   7.045 -0.0254 -0.0226 -0.1986
  639POPI   C1B 9871  15.789  14.428   6.849  0.1109 -0.3068  0.3456
  639POPI   C2B 9872  15.899  14.445   7.317 -0.0214 -0.2205  0.0456
  639POPI   C3B 9873  15.637  14.388   7.718  0.0720 -0.1418  0.0845
  639POPI   C4B 9874  15.458  14.306   8.153  0.1099  0.1385  0.0654
  640POPI    C1 9875  12.619   6.264   6.082 -0.1302  0.0815 -0.1492
  640POPI    C2 9876  12.420   5.917   6.073 -0.0078  0.0046  0.0447
  640POPI    C3 9877  12.465   6.130   5.738 -0.1350 -0.1372 -0.0639
  640POPI   PO4 9878  12.537   6.390   6.347 -0.1562 -0.2024  0.0914
  640POPI   GL1 9879  12.351   6.375   6.689  0.0876  0.0312  0.3037
  640POPI   GL2 9880  12.541   6.594   6.820 -0.1944  0.2564  0.0786
  640POPI   C1A 9881  12.304   6.040   7.076 -0.1079 -0.1596 -0.0033
  640POPI   D2A 9882  12.251   5.700   7.384 -0.1192 -0.0647 -0.1207
  640POPI   C3A 9883  12.217   5.779   7.777  0.1924 -0.0979 -0.0839
  640POPI   C4A 9884  12.078   5.601   8.172 -0.1130 -0.0594  0.0361
  640POPI   C1B 9885  12.912   6.784   7.014 -0.0063  0.4074  0.1487
  640POPI   C2B 9886  12.871   6.910   7.413 -0.0773  0.4014  0.0654
  640POPI   C3B 9887  13.099   6.775   7.848  0.2297  0.0159 -0.3610
  640POPI   C4B 9888  13.303   6.726   8.184  0.0049  0.1582  0.0184
  641POPI    C1 9889   6.639   4.998   6.090 -0.0976  0.0731  0.2744
  641POPI    C2 9890   6.816   5.349   6.014  0.0070  0.0241  0.2891
  641POPI    C3 9891   7.032   5.013   6.016 -0.1405 -0.0755  0.0046
  641POPI   PO4 9892   6.391   5.009   6.186 -0.0695  0.1757  0.2326
  641POPI   GL1 9893   6.024   4.919   6.480 -0.0498  0.0728 -0.1163
  641POPI   GL2 9894   5.962   5.272   6.461  0.1928  0.0034  0.2157
  641POPI   C1A 9895   5.904   4.866   6.873 -0.1982 -0.0447 -0.3487
  641POPI   D2A 9896   5.750   5.017   7.286  0.1039 -0.0407  0.2889
  641POPI   C3A 9897   5.363   5.385   7.321 -0.0371  0.1841 -0.0610
  641POPI   C4A 9898   5.222   5.672   7.755  0.0931 -0.0757  0.1358
  641POPI   C1B 9899   5.949   5.370   6.880  0.0536  0.0377 -0.1328
  641POPI   C2B 9900   5.840   5.565   7.198  0.1189  0.4303  0.0537
  641POPI   C3B 9901   5.715   5.816   7.537 -0.1122 -0.3236 -0.1509
  641POPI   C4B 9902   5.497   6.032   7.944  0.0123 -0.2148  0.2177
  642POPI    C1 9903  11.250  11.648   5.904  0.0107 -0.1492 -0.0575
  642POPI    C2 9904  11.012  11.908   6.093  0.1801 -0.0599  0.0360
  642POPI    C3 9905  11.176  12.005   5.741  0.2186 -0.0527  0.0560
  642POPI   PO4 9906  11.319  11.495   6.183  0.2379  0.1129  0.3131
  642POPI   GL1 9907  11.120  11.303   6.596  0.1306  0.1926  0.2336
  642POPI   GL2 9908  11.538  11.315   6.598  0.1180  0.2582  0.0987
  642POPI   C1A 9909  11.231  11.552   7.012 -0.0479 -0.0209 -0.0623
  642POPI   D2A 9910  11.364  11.705   7.457  0.0420 -0.1564  0.0421
  642POPI   C3A 9911  11.330  11.428   7.802  0.0073  0.0013  0.1299
  642POPI   C4A 9912  11.207  11.263   8.194  0.1446 -0.3310 -0.2123
  642POPI   C1B 9913  11.528  10.993   6.888  0.0777  0.1517  0.1042
  642POPI   C2B 9914  11.468  10.873   7.306 -0.0017 -0.2405  0.1272
  642POPI   C3B 9915  11.230  10.877   7.713  0.0685  0.1118 -0.1506
  642POPI   C4B 9916  11.040  10.736   8.149  0.0547  0.1993  0.5283
  643POPI    C1 9917  14.640  10.683   6.522  0.0891  0.1359  0.2350
  643POPI    C2 9918  14.853  10.350   6.583  0.0857  0.0921  0.0169
  643POPI    C3 9919  14.975  10.619   6.314 -0.1202  0.0782 -0.0923
  643POPI   PO4 9920  14.333  10.580   6.562  0.3305 -0.1009  0.1499
  643POPI   GL1 9921  14.210  10.389   6.942 -0.0716  0.1724 -0.0764
  643POPI   GL2 9922  14.581  10.416   6.960  0.0204 -0.0764 -0.1433
  643POPI   C1A 9923  14.046  10.430   7.336 -0.3515  0.0482  0.1600
  643POPI   D2A 9924  14.111  10.503   7.799  0.0923  0.1538  0.0780
  643POPI   C3A 9925  13.739  10.430   7.917 -0.0997  0.2020 -0.0495
  643POPI   C4A 9926  13.503  10.157   8.038  0.2282 -0.0049  0.1411
  643POPI   C1B 9927  14.511  10.383   7.346 -0.2964 -0.1436  0.3616
  643POPI   C2B 9928  14.559  10.671   7.625  0.0692  0.2513 -0.0498
  643POPI   C3B 9929  14.630  10.924   7.962  0.2400  0.2840 -0.1947
  643POPI   C4B 9930  14.579  11.035   8.356 -0.1254 -0.1460  0.1021
  644POPI    C1 9931   7.741   7.008   6.509  0.0686 -0.0926  0.0701
  644POPI    C2 9932   7.540   7.080   6.171 -0.0488 -0.1565  0.1259
  644POPI    C3 9933   7.929   6.989   6.156 -0.0374 -0.0916  0.0132
  644POPI   PO4 9934   7.616   6.796   6.663  0.2154 -0.1783  0.1095
  644POPI   GL1 9935   7.633   6.880   7.079 -0.0986  0.2107  0.4668
  644POPI   GL2 9936   7.482   7.125   7.148 -0.1912 -0.2329 -0.1598
  644POPI   C1A 9937   7.876   6.850   7.351  0.1377  0.0629  0.0151
  644POPI   D2A 9938   8.016   6.937   7.708 -0.0704  0.1447  0.0715
  644POPI   C3A 9939   7.662   7.152   8.013  0.1201 -0.1650  0.1395
  644POPI   C4A 9940   7.782   7.371   8.452 -0.0244 -0.1390 -0.2975
  644POPI   C1B 9941   7.462   6.996   7.554  0.0559 -0.1662 -0.0165
  644POPI   C2B 9942   7.548   6.712   7.893 -0.3008 -0.0922 -0.0216
  644POPI   C3B 9943   7.844   6.630   8.178  0.3515  0.1878  0.1908
  644POPI   C4B 9944   8.189   6.408   8.309 -0.1829 -0.4244 -0.0320
  645POPI    C1 9945  11.395   6.246   6.281  0.1605  0.1104 -0.0318
  645POPI    C2 9946  11.312   6.536   6.018  0.0816  0.1508  0.0372
  645POPI    C3 9947  11.653   6.329   5.986 -0.0104  0.0323 -0.2059
  645POPI   PO4 9948  11.275   6.319   6.505 -0.1028  0.0539 -0.1617
  645POPI   GL1 9949  11.061   6.486   6.756  0.1267 -0.1435 -0.1865
  645POPI   GL2 9950  11.432   6.651   6.874 -0.0775  0.0831  0.0297
  645POPI   C1A 9951  11.099   6.375   7.214  0.1365  0.3237  0.0033
  645POPI   D2A 9952  11.482   6.259   7.596  0.1213 -0.1576  0.0682
  645POPI   C3A 9953  11.772   6.485   7.849  0.1250  0.0499  0.1908
  645POPI   C4A 9954  11.825   6.558   8.286  0.4387 -0.1644 -0.3340
  645POPI   C1B 9955  11.600   6.699   7.279  0.1502  0.0318 -0.1560
  645POPI   C2B 9956  11.628   6.975   7.739  0.0105 -0.1141  0.0022
  645POPI   C3B 9957  11.796   7.106   8.195  0.0842  0.0971  0.0095
  645POPI   C4B 9958  12.076   6.969   8.518 -0.0246  0.2258 -0.0133
  646POPI    C1 9959   7.446  14.643   5.774  0.0467  0.1514  0.1062
  646POPI    C2 9960   7.326  14.346   6.013  0.3192  0.0386  0.1066
  646POPI    C3 9961   7.450  14.265   5.642 -0.1591  0.2190 -0.1016
  646POPI   PO4 9962   7.641  14.694   5.907 -0.2890 -0.0821  0.1494
  646POPI   GL1 9963   7.664  14.970   6.268 -0.1950  0.0444 -0.0709
  646POPI   GL2 9964   7.586  14.641   6.443 -0.1922  0.0689  0.1036
  646POPI   C1A 9965   7.484  15.160   6.636 -0.0685  0.1758  0.4085
  646POPI   D2A 9966   7.541  15.148   7.067  0.3919 -0.1510 -0.0904
  646POPI   C3A 9967   7.136  15.143   7.266 -0.0111  0.0849  0.2360
  646POPI   C4A 9968   6.801  15.099   7.500 -0.0511 -0.3046 -0.0053
  646POPI   C1B 9969   7.624  14.646   6.862 -0.1227 -0.0319 -0.1344
  646POPI   C2B 9970   7.538  14.733   7.278  0.1822 -0.0449  0.1190
  646POPI   C3B 9971   7.351  14.905   7.699  0.1673 -0.0707  0.0141
  646POPI   C4B 9972   7.344  14.956   8.151  0.0876  0.4706 -0.2019
  647POPI    C1 9973  17.373  11.375   6.182 -0.0092 -0.0523 -0.1308
  647POPI    C2 9974  17.150  11.063   6.067  0.0654 -0.1437 -0.0300
  647POPI    C3 9975  17.069  11.429   5.928 -0.0772 -0.1940 -0.0809
  647POPI   PO4 9976  17.365  11.311   6.449  0.0937  0.0282  0.0778
  647POPI   GL1 9977  17.564  11.468   6.784  0.0651 -0.0834  0.4008
  647POPI   GL2 9978  17.928  11.625   6.664  0.0086 -0.0715 -0.2888
  647POPI   C1A 9979  17.616  11.973   6.793 -0.2043 -0.1505 -0.1848
  647POPI   D2A 9980  17.706  12.290   6.983  0.2363 -0.1182  0.0667
  647POPI   C3A 9981  17.627  12.311   7.439 -0.0379  0.0165 -0.1284
  647POPI   C4A 9982  17.700  12.288   7.811  0.3080 -0.1504  0.0390
  647POPI   C1B 9983  17.997  11.437   7.081 -0.2399 -0.1710  0.3618
  647POPI   C2B 9984  17.951  11.423   7.508  0.2097  0.1055 -0.1895
  647POPI   C3B 9985  18.182  11.554   7.847 -0.3264  0.0275 -0.2448
  647POPI   C4B 9986  18.251  11.604   8.190 -0.0519 -0.0968  0.0196
  648POPI    C1 9987  11.698   5.825   6.093  0.2139  0.2579  0.1985
  648POPI    C2 9988  11.986   5.895   5.825  0.1646  0.1648  0.1203
  648POPI    C3 9989  11.602   5.925   5.717  0.1418 -0.1725  0.0969
  648POPI   PO4 9990  11.855   6.032   6.327  0.1149 -0.0018 -0.2660
  648POPI   GL1 9991  11.672   6.187   6.763  0.0825 -0.1601 -0.0501
  648POPI   GL2 9992  11.420   6.069   6.954 -0.1890  0.1978  0.1283
  648POPI   C1A 9993  11.909   6.313   7.167  0.0716 -0.1396 -0.2055
  648POPI   D2A 9994  12.028   6.148   7.489  0.2912 -0.0315 -0.0830
  648POPI   C3A 9995  12.328   6.317   7.813 -0.0781 -0.0529 -0.1614
  648POPI   C4A 9996  12.629   6.606   7.732 -0.1668 -0.0402  0.1737
  648POPI   C1B 9997  11.274   5.871   7.340  0.2946 -0.1083 -0.1371
  648POPI   C2B 9998  11.203   5.831   7.827  0.0730 -0.1348 -0.2417
  648POPI   C3B 9999  10.824   5.902   8.222 -0.0137  0.0831  0.1801
  648POPI   C4B10000  10.722   6.128   8.638 -0.1392 -0.2657  0.2231
  649POPI    C110001   7.039   2.766   6.155  0.0213  0.1193 -0.0908
  649POPI    C210002   6.713   2.548   6.234 -0.1421  0.3914 -0.0011
  649POPI    C310003   6.706   2.817   5.939  0.0292  0.3401 -0.0530
  649POPI   PO410004   7.192   2.660   6.304  0.0682  0.2658 -0.0820
  649POPI   GL110005   7.401   2.526   6.626 -0.2107 -0.3357  0.0659
  649POPI   GL210006   7.435   2.195   6.720 -0.1540 -0.2923 -0.1412
  649POPI   C1A10007   7.409   2.654   6.949  0.1474 -0.1719  0.0617
  649POPI   D2A10008   7.475   2.633   7.341 -0.4478  0.0725 -0.2626
  649POPI   C3A10009   7.330   2.778   7.744  0.1268 -0.2654 -0.1927
  649POPI   C4A10010   7.298   2.792   8.182 -0.1435 -0.0258  0.2852
  649POPI   C1B10011   7.689   2.176   7.098 -0.0040 -0.0288  0.1442
  649POPI   C2B10012   7.689   2.206   7.468  0.0531  0.1700 -0.4292
  649POPI   C3B10013   7.611   2.064   7.820  0.0399  0.0952 -0.1541
  649POPI   C4B10014   7.733   1.898   8.200  0.0033 -0.1034  0.2616
  650POPI    C110015  12.786   8.409   5.990  0.1331  0.2100  0.0416
  650POPI    C210016  13.180   8.402   6.062  0.1829  0.0383 -0.2308
  650POPI    C310017  13.031   8.206   5.747 -0.1538 -0.1166  0.0175
  650POPI   PO410018  12.664   8.275   6.187  0.0997  0.0788 -0.0653
  650POPI   GL110019  12.675   8.024   6.535 -0.0363 -0.1149  0.3174
  650POPI   GL210020  12.629   7.774   6.839  0.2029 -0.1232 -0.3117
  650POPI   C1A10021  12.698   8.295   6.906 -0.0446  0.1067  0.1709
  650POPI   D2A10022  12.725   8.456   7.295  0.0111 -0.0992 -0.1467
  650POPI   C3A10023  12.724   8.213   7.568  0.0391 -0.0815  0.2252
  650POPI   C4A10024  12.541   7.921   7.775 -0.0794  0.0816  0.1240
  650POPI   C1B10025  12.565   7.842   7.251 -0.1699  0.3219  0.2195
  650POPI   C2B10026  12.635   7.463   7.510 -0.1218  0.0627 -0.1298
  650POPI   C3B10027  12.769   7.124   7.869 -0.1489 -0.0660  0.1156
  650POPI   C4B10028  12.742   6.874   8.233 -0.0987  0.1229 -0.0432
  651POPI    C110029  15.137   3.657   5.954 -0.1710 -0.2758 -0.0552
  651POPI    C210030  15.176   3.964   5.700 -0.0712 -0.1591  0.0991
  651POPI    C310031  15.303   3.599   5.595 -0.0782 -0.1224 -0.0380
  651POPI   PO410032  15.280   3.760   6.188  0.1948 -0.1552 -0.2783
  651POPI   GL110033  15.709   3.810   6.393  0.1234  0.0854  0.0149
  651POPI   GL210034  15.936   4.061   6.479 -0.2906  0.0814 -0.0538
  651POPI   C1A10035  15.573   3.653   6.813 -0.0855 -0.0335 -0.0579
  651POPI   D2A10036  15.584   3.562   7.283  0.2260  0.1068 -0.0986
  651POPI   C3A10037  15.587   3.816   7.610 -0.0245  0.1603 -0.2668
  651POPI   C4A10038  15.659   3.900   8.055 -0.1230  0.1010  0.0023
  651POPI   C1B10039  15.841   4.252   6.821 -0.0785 -0.1246 -0.1860
  651POPI   C2B10040  15.568   4.144   7.281  0.0062 -0.0059  0.0791
  651POPI   C3B10041  15.741   4.333   7.620 -0.2500 -0.1018 -0.3730
  651POPI   C4B10042  15.821   4.591   7.984 -0.2120  0.0217 -0.3537
  652POPI    C110043   0.500  13.787   6.227 -0.1784 -0.1779 -0.0694
  652POPI    C210044   0.640  13.876   5.863 -0.0714 -0.1237 -0.0155
  652POPI    C310045   0.383  13.572   5.910 -0.1263 -0.0978 -0.1432
  652POPI   PO410046   0.330  14.026   6.337  0.1513 -0.0368  0.0665
  652POPI   GL110047   0.175  14.256   6.713  0.0042  0.1950 -0.0813
  652POPI   GL210048  -0.041  14.031   6.783 -0.0304  0.0997  0.2973
  652POPI   C1A10049   0.065  14.329   7.211  0.0686 -0.0989  0.0329
  652POPI   D2A10050   0.100  14.401   7.546 -0.0647  0.0456 -0.0542
  652POPI   C3A10051   0.128  14.242   7.821  0.2962  0.1342 -0.0530
  652POPI   C4A10052   0.287  14.017   8.094 -0.2267  0.0662 -0.0706
  652POPI   C1B10053   0.032  13.857   7.096  0.1235  0.3808 -0.2128
  652POPI   C2B10054   0.077  13.857   7.481 -0.1463 -0.2933 -0.0054
  652POPI   C3B10055  -0.147  13.795   7.904  0.2009 -0.0240 -0.1904
  652POPI   C4B10056  -0.139  13.691   8.270 -0.2357  0.0035  0.3002
  653POPI    C110057   7.926   6.148   6.162 -0.0587 -0.0338  0.0834
  653POPI    C210058   7.576   6.035   6.004 -0.0085  0.2648 -0.2558
  653POPI    C310059   7.909   6.023   5.783  0.2386 -0.1971  0.1212
  653POPI   PO410060   7.936   6.097   6.418  0.0703 -0.0667  0.3128
  653POPI   GL110061   7.746   6.116   6.882  0.3910 -0.0655 -0.1336
  653POPI   GL210062   7.885   6.471   6.889  0.1143 -0.2143 -0.1744
  653POPI   C1A10063   7.567   5.861   7.295 -0.2143  0.1427 -0.3055
  653POPI   D2A10064   7.304   5.645   7.398  0.0384 -0.1659 -0.2191
  653POPI   C3A10065   7.365   5.579   7.873 -0.0550 -0.3015  0.1780
  653POPI   C4A10066   7.256   5.838   8.287 -0.0819  0.0840 -0.0359
  653POPI   C1B10067   8.212   6.425   7.202 -0.1170 -0.1792 -0.2395
  653POPI   C2B10068   8.415   6.580   7.569  0.0222 -0.0607  0.0732
  653POPI   C3B10069   8.576   6.434   7.965  0.2171  0.1742 -0.1458
  653POPI   C4B10070   8.726   6.318   8.448 -0.2195  0.2175 -0.0980
  654POPI    C110071  15.312  16.210   5.959 -0.1635  0.0940 -0.0300
  654POPI    C210072  15.082  16.449   5.736 -0.0660  0.0045 -0.2286
  654POPI    C310073  15.191  16.090   5.598  0.0185 -0.0409 -0.0477
  654POPI   PO410074  15.193  16.185   6.159 -0.2357  0.1601 -0.2626
  654POPI   GL110075  15.289  15.903   6.571 -0.1093  0.0250  0.0349
  654POPI   GL210076  15.514  15.852   6.366  0.0760  0.0755  0.1526
  654POPI   C1A10077  15.365  15.689   7.008 -0.0803  0.0139  0.3667
  654POPI   D2A10078  15.437  15.655   7.478  0.0116  0.0892 -0.0059
  654POPI   C3A10079  15.231  15.579   7.857 -0.2503  0.1439 -0.1284
  654POPI   C4A10080  14.996  15.689   8.279  0.1068 -0.1433  0.0298
  654POPI   C1B10081  15.794  15.902   6.698  0.2648 -0.1610  0.2715
  654POPI   C2B10082  15.846  15.973   7.107  0.1162  0.2191 -0.2477
  654POPI   C3B10083  15.793  16.055   7.501 -0.0110 -0.2003  0.0569
  654POPI   C4B10084  15.801  16.060   7.964 -0.0409 -0.1386 -0.2484
  655POPI    C110085  17.679   8.475   6.049 -0.1029  0.2610 -0.1072
  655POPI    C210086  17.790   8.751   5.782  0.1557  0.0882 -0.1828
  655POPI    C310087  17.917   8.374   5.744  0.0052  0.0110  0.0562
  655POPI   PO410088  17.713   8.609   6.277 -0.0090 -0.0508 -0.1529
  655POPI   GL110089  17.979   8.567   6.605 -0.3186 -0.0126 -0.2900
  655POPI   GL210090  18.213   8.389   6.596 -0.0360 -0.4035 -0.3214
  655POPI   C1A10091  18.176   8.858   6.892  0.2448  0.1677 -0.0510
  655POPI   D2A10092  18.186   8.643   7.250 -0.1310 -0.4010 -0.1717
  655POPI   C3A10093  18.024   8.827   7.549  0.2139 -0.0004 -0.1570
  655POPI   C4A10094  17.987   9.145   7.783  0.0106 -0.0354 -0.1363
  655POPI   C1B10095  18.539   8.498   6.642  0.1486  0.1771 -0.0236
  655POPI   C2B10096  18.657   8.571   7.086 -0.2026  0.0537  0.2429
  655POPI   C3B10097  18.562   8.434   7.529  0.0757 -0.0459 -0.1040
  655POPI   C4B10098  18.464   8.658   7.957  0.1830  0.0792 -0.1653
  656POPI    C110099  12.763  15.581   6.168 -0.1148 -0.0308  0.1714
  656POPI    C210100  12.637  15.332   5.882  0.1460  0.0395 -0.0078
  656POPI    C310101  12.769  15.696   5.785  0.2649  0.0526  0.1994
  656POPI   PO410102  12.825  15.427   6.303 -0.0965 -0.1994  0.3572
  656POPI   GL110103  12.758  15.382   6.773  0.0298 -0.0819 -0.2433
  656POPI   GL210104  13.074  15.569   6.770  0.0006 -0.0491  0.2587
  656POPI   C1A10105  12.868  15.397   7.232  0.1480 -0.2148  0.0735
  656POPI   D2A10106  12.872  15.665   7.553  0.0337  0.0671 -0.2564
  656POPI   C3A10107  12.775  15.347   7.898 -0.0247 -0.1532 -0.0028
  656POPI   C4A10108  12.990  15.228   8.307 -0.4868  0.0443 -0.0817
  656POPI   C1B10109  13.216  15.737   7.117  0.0679 -0.4242 -0.0442
  656POPI   C2B10110  13.375  15.807   7.462 -0.2820  0.4811 -0.1416
  656POPI   C3B10111  13.553  15.885   7.895 -0.0042  0.2127  0.3231
  656POPI   C4B10112  13.753  15.846   8.267 -0.0303 -0.2343 -0.2381
  657POPI    C110113   7.853  11.430   6.139 -0.0177  0.2974  0.0334
  657POPI    C210114   7.663  11.310   5.808  0.0330 -0.1576  0.1619
  657POPI    C310115   8.043  11.433   5.787 -0.0062 -0.0561  0.0330
  657POPI   PO410116   7.816  11.266   6.272 -0.0402  0.0345  0.0660
  657POPI   GL110117   8.083  10.837   6.377 -0.3357 -0.0482 -0.1045
  657POPI   GL210118   7.993  11.060   6.635 -0.0237  0.1809  0.3396
  657POPI   C1A10119   8.149  10.576   6.753 -0.1049 -0.0445  0.0197
  657POPI   D2A10120   7.945  10.283   6.926  0.0244 -0.0287 -0.0328
  657POPI   C3A10121   7.971  10.179   7.354 -0.0091 -0.0398 -0.0851
  657POPI   C4A10122   7.901   9.954   7.713 -0.1036 -0.0330  0.1677
  657POPI   C1B10123   8.234  11.288   6.974  0.0784 -0.0542 -0.1015
  657POPI   C2B10124   8.361  11.147   7.368 -0.1222 -0.0568 -0.1338
  657POPI   C3B10125   8.373  11.293   7.781 -0.1639 -0.0204  0.1954
  657POPI   C4B10126   8.294  11.167   8.209 -0.0219 -0.1501 -0.1492
  658POPI    C110127   8.068  11.910   5.960  0.0702 -0.2381  0.0875
  658POPI    C210128   8.354  11.795   5.706  0.2196  0.1583  0.0684
  658POPI    C310129   8.165  12.142   5.649 -0.1915 -0.0469  0.1454
  658POPI   PO410130   8.173  11.826   6.197  0.2385  0.0317 -0.3690
  658POPI   GL110131   8.102  11.975   6.584  0.0273  0.1823  0.0846
  658POPI   GL210132   8.250  12.290   6.714 -0.0003  0.2270 -0.1818
  658POPI   C1A10133   8.210  11.824   7.013 -0.0013  0.0567  0.0109
  658POPI   D2A10134   8.314  11.645   7.419  0.1188  0.0131 -0.0398
  658POPI   C3A10135   8.297  11.870   7.793  0.1624 -0.0166 -0.0507
  658POPI   C4A10136   8.112  11.951   8.174 -0.2471  0.0479 -0.1466
  658POPI   C1B10137   8.249  12.329   7.123  0.0268  0.1398  0.2121
  658POPI   C2B10138   8.357  12.432   7.531 -0.1632  0.2160 -0.1945
  658POPI   C3B10139   8.281  12.457   7.946  0.0634 -0.1065  0.1257
  658POPI   C4B10140   8.259  12.422   8.391 -0.1744  0.1154 -0.2622
  659POPI    C110141  12.316  17.308   6.072 -0.2225  0.0439  0.1009
  659POPI    C210142  12.165  17.006   5.858  0.1749 -0.1351  0.0641
  659POPI    C310143  12.195  17.370   5.695 -0.0432 -0.1389  0.0113
  659POPI   PO410144  12.349  17.168   6.277 -0.0946 -0.1282  0.1062
  659POPI   GL110145  12.199  17.125   6.640 -0.1552 -0.2710  0.0079
  659POPI   GL210146  12.473  17.099   6.797 -0.1230  0.4420  0.0098
  659POPI   C1A10147  12.084  17.268   7.076 -0.2918 -0.0985 -0.0395
  659POPI   D2A10148  12.193  17.203   7.493  0.0901  0.1906 -0.2007
  659POPI   C3A10149  12.243  16.861   7.635  0.2882 -0.2213 -0.0113
  659POPI   C4A10150  12.403  16.962   8.080 -0.1346  0.1155 -0.1974
  659POPI   C1B10151  12.577  17.080   7.181 -0.0333 -0.2377  0.0538
  659POPI   C2B10152  12.674  17.075   7.602 -0.0178 -0.0400  0.3446
  659POPI   C3B10153  12.896  17.146   8.031 -0.2317 -0.2637  0.2160
  659POPI   C4B10154  13.148  17.096   8.413  0.0065 -0.1615 -0.0541
  660POPI    C110155   1.541  12.639   5.673  0.1739 -0.0432 -0.2164
  660POPI    C210156   1.686  12.300   5.518  0.5567  0.1247 -0.2369
  660POPI    C310157   1.637  12.621   5.285  0.1944  0.0875 -0.2178
  660POPI   PO410158   1.313  12.657   5.885 -0.3732 -0.0139  0.0802
  660POPI   GL110159   1.407  12.684   6.364 -0.1155 -0.0668 -0.3872
  660POPI   GL210160   1.597  12.309   6.346  0.0665  0.1564  0.0122
  660POPI   C1A10161   1.669  12.843   6.633  0.2853 -0.0366  0.2139
  660POPI   D2A10162   1.704  13.025   7.016 -0.0456 -0.0891  0.1324
  660POPI   C3A10163   2.100  13.007   7.258  0.4287  0.1225  0.1813
  660POPI   C4A10164   2.222  12.902   7.591 -0.0013 -0.0487  0.1661
  660POPI   C1B10165   1.417  12.361   6.769 -0.3373 -0.2164 -0.1226
  660POPI   C2B10166   1.367  12.295   7.170  0.0161  0.4496  0.2353
  660POPI   C3B10167   1.260  12.352   7.640 -0.0745 -0.0312  0.1615
  660POPI   C4B10168   1.338  12.217   8.078 -0.1332 -0.1106  0.0973
  661POPI    C110169  11.856   3.581   5.823  0.0267  0.0826 -0.1948
  661POPI    C210170  11.470   3.668   5.880  0.0237 -0.0324 -0.0320
  661POPI    C310171  11.639   3.731   5.523 -0.1759 -0.0939 -0.1389
  661POPI   PO410172  12.012   3.702   6.008  0.0281 -0.3139 -0.3792
  661POPI   GL110173  12.184   3.967   6.309 -0.1101  0.0453 -0.2000
  661POPI   GL210174  12.320   3.692   6.452 -0.0529  0.0262  0.2196
  661POPI   C1A10175  12.067   4.067   6.735 -0.0773  0.0327 -0.0119
  661POPI   D2A10176  12.049   3.928   7.167  0.1863 -0.1061 -0.1819
  661POPI   C3A10177  12.292   3.700   7.464 -0.3031  0.0065  0.0387
  661POPI   C4A10178  12.635   3.723   7.655 -0.0342 -0.1769  0.1428
  661POPI   C1B10179  12.749   3.589   6.514 -0.2207 -0.2844 -0.1731
  661POPI   C2B10180  13.072   3.593   6.819 -0.2608  0.2108  0.1269
  661POPI   C3B10181  13.210   3.623   7.261  0.0248 -0.1616 -0.2033
  661POPI   C4B10182  13.116   3.604   7.695 -0.0598  0.3101  0.3803
  662POPI    C110183   6.801   0.795   6.184  0.1103 -0.0559  0.1402
  662POPI    C210184   6.558   1.062   6.356 -0.0819 -0.2622  0.1945
  662POPI    C310185   6.417   0.816   6.074  0.1571 -0.1338 -0.0416
  662POPI   PO410186   6.947   0.742   6.327  0.1533  0.0414  0.0977
  662POPI   GL110187   7.259   0.799   6.717  0.2095 -0.1267  0.0827
  662POPI   GL210188   7.399   1.068   6.852  0.1403  0.0737  0.3495
  662POPI   C1A10189   7.154   0.829   7.246 -0.2458 -0.0460  0.3677
  662POPI   D2A10190   7.196   1.016   7.642  0.1319  0.0336 -0.4124
  662POPI   C3A10191   6.836   0.894   7.915  0.0506  0.1793 -0.0195
  662POPI   C4A10192   6.746   0.618   8.298 -0.2782 -0.0054  0.0466
  662POPI   C1B10193   6.896   1.158   6.963 -0.3998 -0.2426 -0.0964
  662POPI   C2B10194   6.528   1.198   6.799  0.0856  0.0178 -0.1389
  662POPI   C3B10195   6.059   1.028   6.952 -0.0140  0.1609 -0.1470
  662POPI   C4B10196   5.766   0.833   7.278  0.2468 -0.1163 -0.0204
  663POPI    C110197   0.598   9.782   5.915 -0.0119  0.0421  0.1527
  663POPI    C210198   0.467   9.784   5.537  0.1574  0.1632  0.0934
  663POPI    C310199   0.594   9.443   5.702 -0.0614  0.0801  0.0929
  663POPI   PO410200   0.653  10.000   6.047  0.0105 -0.1099 -0.1417
  663POPI   GL110201   0.813   9.969   6.458 -0.1870 -0.0642  0.2097
  663POPI   GL210202   0.730   9.828   6.668  0.2134  0.2435  0.2581
  663POPI   C1A10203   1.142   9.980   6.918  0.0883  0.0232 -0.1858
  663POPI   D2A10204   1.492  10.153   7.142  0.0725 -0.0559 -0.1733
  663POPI   C3A10205   1.541  10.139   7.557  0.1236 -0.0042  0.0225
  663POPI   C4A10206   1.687  10.073   7.987 -0.0138 -0.0301  0.0141
  663POPI   C1B10207   0.789   9.667   7.147 -0.0891 -0.1304  0.4197
  663POPI   C2B10208   1.108   9.843   7.420  0.2893  0.1065  0.2371
  663POPI   C3B10209   1.216   9.806   7.884  0.1275  0.4050 -0.1572
  663POPI   C4B10210   1.209  10.126   8.218 -0.0004 -0.1993  0.1368
  664POPI    C110211   2.870  14.100   5.941 -0.1717  0.0868 -0.0370
  664POPI    C210212   3.243  13.969   6.004 -0.1188  0.3002  0.1068
  664POPI    C310213   3.071  13.920   5.646 -0.1259 -0.2139  0.1732
  664POPI   PO410214   2.685  13.993   6.109 -0.0055  0.2146 -0.2815
  664POPI   GL110215   2.533  14.189   6.557 -0.0271 -0.1362 -0.1070
  664POPI   GL210216   2.461  14.524   6.450 -0.2829 -0.3839 -0.3526
  664POPI   C1A10217   2.874  13.966   6.900 -0.0990  0.2192  0.1577
  664POPI   D2A10218   3.174  13.814   7.180  0.0833 -0.0148 -0.3093
  664POPI   C3A10219   3.340  13.540   6.932  0.0665 -0.3368  0.0804
  664POPI   C4A10220   3.361  13.113   6.817  0.1083  0.3337  0.1692
  664POPI   C1B10221   2.897  14.835   6.452  0.2826 -0.1278 -0.0326
  664POPI   C2B10222   3.047  14.978   6.812 -0.1125  0.0472 -0.3548
  664POPI   C3B10223   2.900  15.191   7.216 -0.0372  0.2982  0.1828
  664POPI   C4B10224   2.719  15.119   7.585  0.1521 -0.0552 -0.4054
  665POPI    C110225   9.697   4.350   6.091  0.1322  0.1563  0.0367
  665POPI    C210226   9.337   4.294   5.924  0.1245  0.0412  0.0905
  665POPI    C310227   9.665   4.150   5.745  0.1353  0.0743  0.0836
  665POPI   PO410228   9.510   4.397   6.370  0.1064  0.1539 -0.2123
  665POPI   GL110229   9.549   4.150   6.720 -0.1712  0.0380  0.0938
  665POPI   GL210230   9.845   4.163   6.864  0.1201 -0.3172  0.1687
  665POPI   C1A10231   9.571   3.741   6.887  0.0957 -0.1962 -0.0336
  665POPI   D2A10232   9.707   3.326   7.016  0.1583 -0.1727 -0.1603
  665POPI   C3A10233   9.652   3.186   7.380 -0.2872 -0.2682 -0.1263
  665POPI   C4A10234   9.463   3.252   7.815 -0.2670 -0.1040  0.2179
  665POPI   C1B10235   9.596   4.260   7.211 -0.0439  0.1489  0.0134
  665POPI   C2B10236   9.279   4.087   7.547 -0.1672 -0.0345  0.1971
  665POPI   C3B10237   9.267   4.052   7.911 -0.1192  0.2581 -0.1717
  665POPI   C4B10238   9.053   3.759   8.229  0.0225 -0.3433 -0.0629
  666POPI    C110239  15.608   4.120   5.854  0.1185 -0.2702 -0.1785
  666POPI    C210240  15.913   4.289   5.657 -0.0382  0.4618  0.1692
  666POPI    C310241  15.540   4.327   5.518 -0.0328 -0.0128  0.0067
  666POPI   PO410242  15.633   4.211   6.097  0.2333 -0.2041 -0.0349
  666POPI   GL110243  15.389   4.240   6.558  0.0761 -0.1909 -0.1206
  666POPI   GL210244  15.221   3.970   6.623  0.1786 -0.0810 -0.0471
  666POPI   C1A10245  15.335   4.477   6.927  0.1238  0.0331  0.0034
  666POPI   D2A10246  15.246   4.486   7.416 -0.0912  0.0099 -0.3464
  666POPI   C3A10247  15.429   4.707   7.727  0.0654  0.1556  0.1873
  666POPI   C4A10248  15.338   5.020   7.929 -0.1936  0.3357  0.0265
  666POPI   C1B10249  15.175   3.872   6.992  0.0877  0.1114  0.1082
  666POPI   C2B10250  15.128   3.897   7.478 -0.0905  0.0271 -0.2589
  666POPI   C3B10251  15.238   4.092   7.839  0.1374 -0.0606  0.1445
  666POPI   C4B10252  15.455   4.378   8.177  0.1018 -0.0519 -0.1493
  667POPI    C110253   0.878  15.714   6.164 -0.0257  0.3014  0.0845
  667POPI    C210254   1.038  15.906   5.852  0.1219 -0.0615 -0.0681
  667POPI    C310255   1.268  15.675   6.084 -0.0551 -0.0649  0.1062
  667POPI   PO410256   0.787  15.842   6.349  0.0963  0.1805 -0.3079
  667POPI   GL110257   0.855  15.897   6.699  0.0189  0.1069 -0.3357
  667POPI   GL210258   1.199  15.828   6.597  0.1640  0.1807  0.0913
  667POPI   C1A10259   0.756  15.682   7.047  0.2233 -0.3263 -0.0030
  667POPI   D2A10260   0.675  15.744   7.501 -0.1745 -0.1821  0.1072
  667POPI   C3A10261   1.098  15.638   7.885  0.1282 -0.2085  0.2369
  667POPI   C4A10262   1.330  15.501   8.172 -0.1975 -0.2526 -0.1029
  667POPI   C1B10263   1.351  15.770   7.138  0.1053  0.3155  0.2191
  667POPI   C2B10264   1.341  15.804   7.464  0.1760 -0.0640  0.1323
  667POPI   C3B10265   1.328  16.125   7.751  0.1522 -0.1646 -0.1839
  667POPI   C4B10266   1.633  16.399   7.907 -0.0115  0.1681 -0.0175
  668POPI    C110267  13.836   2.106   5.653 -0.1083  0.0800 -0.0380
  668POPI    C210268  13.979   1.741   5.578 -0.3832  0.0100 -0.2384
  668POPI    C310269  14.200   2.063   5.493 -0.1553 -0.1060 -0.0975
  668POPI   PO410270  13.728   2.096   5.951  0.1258 -0.3952  0.2525
  668POPI   GL110271  13.811   2.127   6.340  0.1160  0.3582  0.2059
  668POPI   GL210272  14.068   1.929   6.525 -0.0137  0.0227  0.3236
  668POPI   C1A10273  13.826   2.205   6.830  0.4516  0.0328  0.1132
  668POPI   D2A10274  13.983   2.531   7.087 -0.1224 -0.0452  0.0568
  668POPI   C3A10275  13.826   2.568   7.575 -0.3626  0.2577 -0.2069
  668POPI   C4A10276  13.782   2.440   8.072 -0.1773  0.0722  0.0735
  668POPI   C1B10277  14.282   1.582   6.779 -0.1425 -0.1570  0.0025
  668POPI   C2B10278  14.447   1.276   7.076 -0.0357  0.2668  0.1727
  668POPI   C3B10279  14.472   1.134   7.416 -0.0549  0.0340 -0.2009
  668POPI   C4B10280  14.463   0.974   7.764  0.1092  0.3378 -0.0442
  669POPI    C110281   0.193   9.240   6.055  0.0071  0.1875 -0.0187
  669POPI    C210282   0.068   9.212   5.676 -0.0055  0.3200 -0.0250
  669POPI    C310283   0.068   9.567   5.860 -0.0456  0.2480  0.1152
  669POPI   PO410284   0.428   9.196   6.106 -0.0181 -0.1107 -0.1641
  669POPI   GL110285   0.515   9.053   6.510  0.2243  0.1533  0.3021
  669POPI   GL210286   0.495   9.367   6.694  0.2007 -0.0892  0.0456
  669POPI   C1A10287   0.942   8.899   6.695 -0.0666 -0.2974 -0.1899
  669POPI   D2A10288   1.315   8.789   7.073  0.3279 -0.2873  0.0222
  669POPI   C3A10289   1.148   8.851   7.430 -0.3731  0.3320  0.1803
  669POPI   C4A10290   1.087   8.729   7.768 -0.0563 -0.2330  0.2525
  669POPI   C1B10291   0.712   9.048   7.078 -0.1252  0.0325 -0.1809
  669POPI   C2B10292   0.689   8.965   7.522 -0.1346  0.3070  0.1794
  669POPI   C3B10293   0.705   9.103   7.885 -0.2174 -0.0792 -0.2270
  669POPI   C4B10294   0.938   9.300   8.144  0.0664 -0.3274 -0.5803
  670POPI    C110295  13.974   3.983   5.435  0.0118  0.0330  0.0637
  670POPI    C210296  14.288   3.737   5.404  0.0168  0.0132  0.2602
  670POPI    C310297  14.330   4.126   5.321  0.0258 -0.0378  0.0168
  670POPI   PO410298  13.927   3.910   5.728 -0.1260 -0.0539  0.3510
  670POPI   GL110299  13.845   3.740   6.072 -0.1987 -0.1296  0.2747
  670POPI   GL210300  13.948   3.447   6.226  0.0241 -0.1807 -0.0495
  670POPI   C1A10301  13.972   4.001   6.336  0.0732  0.2195 -0.2590
  670POPI   D2A10302  13.726   4.289   6.560  0.0439  0.1873  0.2065
  670POPI   C3A10303  13.299   4.462   6.440  0.0222  0.3035  0.0819
  670POPI   C4A10304  12.899   4.434   6.713 -0.0064 -0.1737 -0.0988
  670POPI   C1B10305  13.688   3.147   6.421 -0.0295 -0.2007  0.0355
  670POPI   C2B10306  13.333   3.143   6.649 -0.0841  0.0082  0.0027
  670POPI   C3B10307  13.210   3.198   7.089  0.1459  0.1260  0.2543
  670POPI   C4B10308  13.171   3.096   7.568 -0.3051 -0.0184 -0.1828
  671POPI    C110309  12.562   5.499   6.371 -0.2330 -0.2245  0.0355
  671POPI    C210310  12.874   5.257   6.304  0.1822  0.2997  0.0058
  671POPI    C310311  12.725   5.480   6.006 -0.1919  0.0971  0.0344
  671POPI   PO410312  12.441   5.392   6.524 -0.0870  0.3232 -0.0270
  671POPI   GL110313  12.211   5.484   6.948  0.0510 -0.2195  0.3906
  671POPI   GL210314  11.944   5.803   6.880 -0.0861  0.0156 -0.1461
  671POPI   C1A10315  12.416   5.245   7.244  0.1599 -0.0402 -0.2715
  671POPI   D2A10316  12.732   5.127   7.336 -0.1509 -0.0674 -0.1945
  671POPI   C3A10317  12.787   4.971   7.786 -0.0849 -0.1802  0.3339
  671POPI   C4A10318  12.689   4.753   8.210 -0.2320  0.1479  0.2987
  671POPI   C1B10319  11.797   5.712   7.181  0.2933 -0.0352  0.1406
  671POPI   C2B10320  11.716   5.746   7.558  0.0974  0.0183  0.3501
  671POPI   C3B10321  11.726   5.880   7.911 -0.0258 -0.1285 -0.3846
  671POPI   C4B10322  11.964   6.110   8.100 -0.1248  0.0711  0.3756
  672POPI    C110323   2.002   3.134   5.901  0.0460  0.1794  0.0207
  672POPI    C210324   2.338   3.029   5.711  0.0758  0.0752  0.1294
  672POPI    C310325   2.005   3.105   5.502  0.0644 -0.1971  0.0443
  672POPI   PO410326   2.126   3.306   6.138 -0.0305  0.0052 -0.2390
  672POPI   GL110327   2.222   3.430   6.454  0.1128  0.0071  0.2434
  672POPI   GL210328   2.523   3.279   6.526 -0.1914 -0.1305  0.3367
  672POPI   C1A10329   2.115   3.558   6.881  0.1461  0.0016 -0.0719
  672POPI   D2A10330   1.974   3.756   7.227  0.0364 -0.2674 -0.2938
  672POPI   C3A10331   2.029   3.710   7.628 -0.2092 -0.1670  0.0701
  672POPI   C4A10332   1.806   3.469   7.870 -0.0246 -0.0328  0.0222
  672POPI   C1B10333   2.552   3.284   7.040 -0.0686 -0.2091  0.0390
  672POPI   C2B10334   2.604   3.205   7.435 -0.2082 -0.0019 -0.2665
  672POPI   C3B10335   2.601   2.993   7.830 -0.3859  0.0111  0.0589
  672POPI   C4B10336   2.326   2.841   8.163  0.0211  0.2353  0.1241
  673POPI    C110337   6.011   9.062   5.894 -0.0093 -0.3120  0.2494
  673POPI    C210338   5.705   9.105   5.640  0.0699 -0.2286  0.1675
  673POPI    C310339   5.818   8.740   5.758  0.0427 -0.2690  0.0701
  673POPI   PO410340   5.923   9.276   6.104  0.0555 -0.0706  0.0231
  673POPI   GL110341   5.894   9.006   6.542 -0.1612  0.2764  0.0967
  673POPI   GL210342   6.174   9.095   6.522 -0.0373  0.3002  0.0224
  673POPI   C1A10343   5.937   8.909   7.038  0.1536 -0.0304  0.0085
  673POPI   D2A10344   5.956   8.982   7.398 -0.1333  0.1381  0.1480
  673POPI   C3A10345   5.987   8.841   7.775 -0.1142 -0.2950 -0.1378
  673POPI   C4A10346   5.650   8.477   8.004 -0.1030 -0.3089  0.1673
  673POPI   C1B10347   6.379   8.955   6.873 -0.4781 -0.0420  0.1440
  673POPI   C2B10348   6.546   8.750   7.210 -0.0522 -0.1813 -0.4267
  673POPI   C3B10349   6.570   8.571   7.670  0.0921 -0.1314  0.0284
  673POPI   C4B10350   6.641   8.385   8.128  0.0059 -0.0652 -0.1319
  674POPI    C110351   2.198   2.405   5.850 -0.3359 -0.1434 -0.0218
  674POPI    C210352   2.448   2.459   5.542 -0.1722  0.0419  0.1409
  674POPI    C310353   2.088   2.295   5.481 -0.0858 -0.0545 -0.1252
  674POPI   PO410354   2.093   2.608   5.929 -0.0714 -0.1427 -0.0160
  674POPI   GL110355   1.903   2.705   6.314  0.1857  0.0037  0.0186
  674POPI   GL210356   1.896   2.989   6.441  0.1454 -0.1105  0.2344
  674POPI   C1A10357   1.992   2.573   6.806 -0.1262  0.0771 -0.1055
  674POPI   D2A10358   1.807   2.817   7.114  0.2771  0.0798  0.0386
  674POPI   C3A10359   1.843   2.717   7.451  0.0839  0.2386 -0.0003
  674POPI   C4A10360   1.822   2.888   7.839 -0.4392  0.1480 -0.0848
  674POPI   C1B10361   2.137   3.055   6.828 -0.2410 -0.2685  0.1425
  674POPI   C2B10362   2.109   3.241   7.239  0.4141 -0.0128 -0.0431
  674POPI   C3B10363   2.162   3.204   7.633 -0.0604 -0.2431  0.2981
  674POPI   C4B10364   2.236   3.315   8.010  0.0466 -0.0595 -0.0850
  675POPI    C110365  11.863  13.970   5.866  0.1103  0.0528 -0.0800
  675POPI    C210366  11.837  13.627   5.661  0.0798 -0.0177  0.0408
  675POPI    C310367  11.803  13.977   5.470 -0.0735 -0.0842 -0.0561
  675POPI   PO410368  11.922  13.880   6.152 -0.0539 -0.0185  0.3659
  675POPI   GL110369  12.041  13.609   6.516 -0.1249 -0.3530 -0.0456
  675POPI   GL210370  12.296  13.923   6.579 -0.0152  0.0121  0.0581
  675POPI   C1A10371  11.975  13.571   6.952  0.0578 -0.1219  0.0907
  675POPI   D2A10372  11.823  13.437   7.413 -0.0344 -0.1284 -0.1302
  675POPI   C3A10373  11.582  13.175   7.528 -0.1647 -0.3352 -0.1251
  675POPI   C4A10374  11.479  12.935   7.832 -0.1008 -0.1535  0.2295
  675POPI   C1B10375  12.452  13.582   6.859 -0.1881  0.0045 -0.1200
  675POPI   C2B10376  12.447  13.583   7.312  0.0459 -0.0584  0.0579
  675POPI   C3B10377  12.270  13.480   7.635  0.0278  0.0226 -0.0732
  675POPI   C4B10378  11.991  13.340   7.916 -0.2732 -0.2769  0.3956
  676POPI    C110379  11.554  17.659   6.050 -0.1415 -0.0460 -0.5138
  676POPI    C210380  11.679  18.039   6.034 -0.0466 -0.0445  0.0569
  676POPI    C310381  11.941  17.740   5.988 -0.0388 -0.0412  0.0800
  676POPI   PO410382  11.521  17.651   6.376  0.3067 -0.3361  0.2402
  676POPI   GL110383  11.645  17.386   6.747  0.1702  0.2225 -0.4824
  676POPI   GL210384  11.888  17.622   6.722 -0.0817 -0.1206 -0.0865
  676POPI   C1A10385  11.335  17.269   7.067  0.1098  0.0991 -0.2005
  676POPI   D2A10386  11.392  17.338   7.416  0.3058  0.1717 -0.1016
  676POPI   C3A10387  11.215  17.055   7.705  0.0848 -0.1025 -0.1556
  676POPI   C4A10388  11.093  16.756   8.011  0.1182 -0.0373 -0.1407
  676POPI   C1B10389  11.780  17.653   7.158  0.2211 -0.0221 -0.2223
  676POPI   C2B10390  11.826  17.552   7.543 -0.0289  0.0748  0.0822
  676POPI   C3B10391  12.031  17.362   7.993  0.0755  0.1103  0.0035
  676POPI   C4B10392  12.071  17.046   8.423  0.1207  0.0218 -0.0380
  677POPI    C110393  15.929  10.880   6.298 -0.1269  0.0460 -0.0413
  677POPI    C210394  15.858  10.746   5.928  0.0159  0.0657 -0.0763
  677POPI    C310395  16.025  11.106   5.983 -0.0055  0.0631  0.0073
  677POPI   PO410396  15.804  10.710   6.420 -0.0748  0.1461 -0.1080
  677POPI   GL110397  15.983  10.587   6.872 -0.0860  0.2566  0.0352
  677POPI   GL210398  16.239  10.412   7.021  0.0542  0.0350 -0.1175
  677POPI   C1A10399  15.896  10.548   7.363  0.2045  0.3291  0.0445
  677POPI   D2A10400  15.935  10.605   7.728 -0.2530  0.0896 -0.2038
  677POPI   C3A10401  16.274  10.376   7.876 -0.1404 -0.1273 -0.0766
  677POPI   C4A10402  16.566  10.069   7.941 -0.2385  0.0124  0.1349
  677POPI   C1B10403  16.076  10.098   7.245 -0.2789  0.0982 -0.4028
  677POPI   C2B10404  15.950  10.002   7.688  0.0035 -0.1442  0.0666
  677POPI   C3B10405  15.645   9.927   8.036 -0.0678  0.2578  0.0744
  677POPI   C4B10406  15.676   9.798   8.395  0.2006 -0.2533 -0.3733
  678POPI    C110407   1.885   6.071   6.077  0.1204 -0.1614 -0.3408
  678POPI    C210408   1.737   6.441   6.036  0.2312 -0.0543  0.1609
  678POPI    C310409   1.495   6.138   6.136  0.1950 -0.0562  0.0675
  678POPI   PO410410   2.119   6.091   6.222  0.1050 -0.0488 -0.1734
  678POPI   GL110411   2.288   6.236   6.570 -0.1285  0.0775  0.1025
  678POPI   GL210412   2.765   6.257   6.491 -0.1592 -0.1382 -0.0554
  678POPI   C1A10413   2.362   6.386   7.066  0.3228  0.0065 -0.3397
  678POPI   D2A10414   2.505   6.398   7.578 -0.2064 -0.1419 -0.0530
  678POPI   C3A10415   2.262   6.504   7.939  0.0374 -0.2612 -0.0291
  678POPI   C4A10416   1.998   6.567   8.313 -0.3164  0.3826 -0.1432
  678POPI   C1B10417   2.710   5.946   6.801 -0.3216  0.0409  0.1718
  678POPI   C2B10418   2.729   6.060   7.195 -0.1993 -0.1189 -0.1681
  678POPI   C3B10419   2.765   5.969   7.571 -0.6307  0.2746 -0.1323
  678POPI   C4B10420   2.620   6.078   7.926  0.1619 -0.0274  0.1728
  679POPI    C110421   0.579   2.311   5.928  0.0217  0.1869  0.0173
  679POPI    C210422   0.628   2.119   5.581 -0.0189  0.2634 -0.0309
  679POPI    C310423   0.268   2.128   5.756  0.0575  0.0038  0.1445
  679POPI   PO410424   0.749   2.246   6.091  0.3530  0.1208  0.1796
  679POPI   GL110425   0.775   1.998   6.429 -0.2955 -0.1115 -0.0960
  679POPI   GL210426   0.545   2.262   6.521  0.1016 -0.1143 -0.0850
  679POPI   C1A10427   1.055   2.075   6.798  0.3619 -0.2755 -0.0658
  679POPI   D2A10428   1.068   1.889   7.171 -0.1921 -0.3090  0.1026
  679POPI   C3A10429   1.342   1.734   7.528  0.1877  0.0604  0.1741
  679POPI   C4A10430   1.607   1.391   7.607  0.0220  0.0987 -0.0038
  679POPI   C1B10431   0.408   2.493   6.938  0.0027  0.0498  0.2874
  679POPI   C2B10432   0.516   2.512   7.476  0.0190  0.0012  0.0811
  679POPI   C3B10433   0.582   2.340   7.893  0.0615 -0.1179 -0.4245
  679POPI   C4B10434   0.784   2.375   8.283  0.1216  0.0047  0.1839
  680POPI    C110435   8.343   1.967   5.758  0.1147 -0.0288  0.1078
  680POPI    C210436   8.090   1.693   5.904 -0.2715  0.2173 -0.0830
  680POPI    C310437   8.237   1.653   5.534  0.4418 -0.2297  0.2285
  680POPI   PO410438   8.455   2.050   6.079  0.2706 -0.0484 -0.2831
  680POPI   GL110439   8.737   2.200   6.307 -0.2526 -0.0512  0.0344
  680POPI   GL210440   8.452   2.343   6.535  0.2459 -0.0226 -0.1355
  680POPI   C1A10441   8.972   2.266   6.717  0.0806  0.2206 -0.1829
  680POPI   D2A10442   8.999   2.092   7.129  0.0275 -0.0249  0.3432
  680POPI   C3A10443   8.856   2.227   7.429  0.0953  0.1392 -0.0242
  680POPI   C4A10444   8.959   2.540   7.721  0.2919 -0.2538  0.2050
  680POPI   C1B10445   8.340   2.678   6.793  0.0043  0.2153  0.3293
  680POPI   C2B10446   8.494   2.789   7.302 -0.1906 -0.0054  0.3741
  680POPI   C3B10447   8.438   2.573   7.678  0.0791 -0.0957 -0.0666
  680POPI   C4B10448   8.254   2.723   7.963  0.0339  0.0733 -0.0507
  681POPI    C110449   5.475   4.292   5.846  0.0283  0.0386  0.2085
  681POPI    C210450   5.740   4.000   5.779 -0.1884 -0.1509  0.1658
  681POPI    C310451   5.742   4.328   5.551  0.0858 -0.0964  0.2433
  681POPI   PO410452   5.549   4.267   6.158 -0.1133  0.3541 -0.0032
  681POPI   GL110453   5.310   4.241   6.513 -0.0548 -0.4024  0.2538
  681POPI   GL210454   5.242   3.952   6.551  0.0696  0.0558  0.1134
  681POPI   C1A10455   5.219   4.275   6.995 -0.0440  0.0245 -0.3894
  681POPI   D2A10456   5.375   4.271   7.462  0.0383 -0.4531 -0.0214
  681POPI   C3A10457   5.752   4.302   7.695  0.2139  0.4296  0.3064
  681POPI   C4A10458   6.110   4.462   7.963 -0.1740 -0.0822 -0.0763
  681POPI   C1B10459   5.179   3.812   7.003 -0.2365 -0.1686  0.1560
  681POPI   C2B10460   5.382   3.879   7.219  0.0013 -0.2710 -0.3702
  681POPI   C3B10461   5.719   3.994   7.282  0.1774  0.2647  0.2934
  681POPI   C4B10462   6.080   4.081   7.336  0.0341  0.1888 -0.1334
  682POPS   CNO10463   8.142   5.030   5.906 -0.1340  0.2113 -0.0886
  682POPS   PO410464   8.125   5.234   6.277 -0.2369  0.2818 -0.3938
  682POPS   GL110465   8.274   5.218   6.646 -0.1493 -0.1441  0.0236
  682POPS   GL210466   8.185   5.020   6.825  0.1450  0.0680 -0.0086
  682POPS   C1A10467   8.384   5.417   7.094  0.1401  0.1598  0.2470
  682POPS   D2A10468   8.339   5.367   7.532  0.2373 -0.0453  0.5535
  682POPS   C3A10469   8.388   5.647   7.831  0.2103  0.0000 -0.1338
  682POPS   C4A10470   8.527   5.564   8.261 -0.0756  0.0338 -0.0235
  682POPS   C1B10471   8.252   4.936   7.242  0.0187  0.1926 -0.1039
  682POPS   C2B10472   8.111   4.935   7.670 -0.0551 -0.0767 -0.0868
  682POPS   C3B10473   8.076   4.915   8.034 -0.0752 -0.0911 -0.2038
  682POPS   C4B10474   8.152   4.654   8.371  0.0907  0.0957  0.0890
  683POPS   CNO10475  13.638   5.674   6.252  0.1509  0.1340  0.2994
  683POPS   PO410476  13.785   5.437   5.961  0.5040 -0.1821 -0.0591
  683POPS   GL110477  13.841   5.191   6.316  0.0859 -0.2643 -0.1398
  683POPS   GL210478  13.883   5.419   6.591 -0.1637 -0.1542 -0.1525
  683POPS   C1A10479  13.868   4.813   6.512  0.0027  0.0015 -0.0739
  683POPS   D2A10480  14.166   4.515   6.723  0.1297  0.0177 -0.0468
  683POPS   C3A10481  13.907   4.262   7.038  0.0051  0.0322  0.1553
  683POPS   C4A10482  13.818   4.245   7.506  0.4326 -0.1512 -0.0192
  683POPS   C1B10483  13.800   5.473   7.054 -0.1570 -0.0911 -0.4320
  683POPS   C2B10484  13.482   5.674   7.359  0.0849 -0.1470 -0.0413
  683POPS   C3B10485  13.136   5.814   7.554  0.0754  0.1924  0.1824
  683POPS   C4B10486  12.679   6.058   7.585 -0.0266  0.0981  0.1190
  684POPS   CNO10487  10.666   2.882   6.362  0.1941  0.0318  0.0238
  684POPS   PO410488  10.352   2.476   6.417 -0.1522  0.0605 -0.0711
  684POPS   GL110489  10.608   2.605   6.777 -0.1238 -0.0111  0.0059
  684POPS   GL210490  10.896   2.390   6.780  0.0091 -0.0217 -0.0672
  684POPS   C1A10491  10.479   2.581   7.162  0.0349  0.0365  0.0244
  684POPS   D2A10492  10.625   2.633   7.574 -0.0407  0.0105  0.1320
  684POPS   C3A10493  10.395   2.809   7.876  0.1296  0.1303  0.1096
  684POPS   C4A10494  10.354   2.987   8.242  0.2415 -0.2194 -0.1147
  684POPS   C1B10495  10.955   2.294   7.279 -0.1054  0.3351 -0.1442
  684POPS   C2B10496  10.720   2.140   7.637 -0.1022 -0.0375 -0.4003
  684POPS   C3B10497  10.658   1.869   7.954 -0.0987 -0.0806 -0.3615
  684POPS   C4B10498  10.419   1.488   8.178 -0.2173 -0.1486 -0.1528
  685POPS   CNO10499   9.304  15.992   5.967  0.2306  0.1983  0.2176
  685POPS   PO410500   9.514  15.744   6.254  0.0722  0.1587  0.0979
  685POPS   GL110501   9.686  15.464   6.630 -0.2556 -0.1100  0.1326
  685POPS   GL210502   9.485  15.348   6.769  0.2040 -0.0056 -0.0460
  685POPS   C1A10503   9.970  15.432   6.981  0.0808 -0.0590 -0.2795
  685POPS   D2A10504  10.322  15.610   7.166  0.2471  0.6214 -0.0282
  685POPS   C3A10505  10.603  15.383   7.231 -0.0549  0.0416 -0.0042
  685POPS   C4A10506  10.740  15.273   7.588 -0.2786 -0.0305 -0.0293
  685POPS   C1B10507   9.510  15.385   7.153  0.1243 -0.3628 -0.2660
  685POPS   C2B10508   9.267  15.281   7.473 -0.3116  0.0570  0.0704
  685POPS   C3B10509   9.120  15.158   7.807  0.1049  0.1270  0.1409
  685POPS   C4B10510   9.138  15.263   8.293 -0.0780  0.0515 -0.3548
  686POPS   CNO10511   7.396   8.652   5.974  0.1903 -0.1445  0.2017
  686POPS   PO410512   7.249   9.072   6.151  0.0870  0.0109 -0.1058
  686POPS   GL110513   6.929   9.136   6.457 -0.1664 -0.1618  0.0231
  686POPS   GL210514   6.667   8.949   6.446 -0.0495 -0.1724 -0.0455
  686POPS   C1A10515   6.886   9.273   6.751  0.0231 -0.3482 -0.3597
  686POPS   D2A10516   6.806   9.085   7.074  0.1136 -0.0492 -0.2236
  686POPS   C3A10517   6.832   8.951   7.521  0.0160 -0.1606 -0.2365
  686POPS   C4A10518   7.013   8.994   7.881  0.1768 -0.1732  0.0733
  686POPS   C1B10519   6.843   8.694   6.773  0.0511  0.2006 -0.0073
  686POPS   C2B10520   7.041   8.618   7.110 -0.0990 -0.1531 -0.0232
  686POPS   C3B10521   6.846   8.323   7.313 -0.1188  0.3851 -0.3140
  686POPS   C4B10522   6.487   8.018   7.303  0.0620 -0.2084  0.0622
  687POPS   CNO10523   3.491  12.703   5.721 -0.2395 -0.1058  0.2000
  687POPS   PO410524   3.180  12.448   5.866  0.3500  0.2137 -0.1930
  687POPS   GL110525   3.080  12.063   6.122 -0.0463  0.0203  0.1092
  687POPS   GL210526   2.858  11.818   6.181  0.2003  0.1225 -0.1126
  687POPS   C1A10527   3.025  12.112   6.625 -0.2595 -0.0138  0.0626
  687POPS   D2A10528   3.143  11.831   7.027  0.0019 -0.2328  0.1462
  687POPS   C3A10529   2.893  12.043   7.427  0.1322  0.2168  0.0949
  687POPS   C4A10530   2.683  12.301   7.743  0.0031  0.2337  0.0916
  687POPS   C1B10531   2.731  11.660   6.609  0.0992  0.1486 -0.0282
  687POPS   C2B10532   2.479  11.350   6.779  0.0156  0.2788  0.2256
  687POPS   C3B10533   2.332  11.281   7.211  0.2385  0.1640  0.0036
  687POPS   C4B10534   2.082  11.403   7.534 -0.1884 -0.0942 -0.1227
  688POPS   CNO10535   3.176  17.195   5.683 -0.0823  0.0959  0.1757
  688POPS   PO410536   3.007  17.132   5.993 -0.0135 -0.0202 -0.0719
  688POPS   GL110537   3.207  17.268   6.464  0.0731 -0.2059 -0.0040
  688POPS   GL210538   3.458  17.044   6.651 -0.2031  0.0234 -0.1547
  688POPS   C1A10539   2.990  17.344   6.773  0.3161 -0.1405  0.2286
  688POPS   D2A10540   2.889  17.514   7.110  0.2659 -0.0152  0.0494
  688POPS   C3A10541   3.128  17.677   7.473  0.2567  0.0066  0.0405
  688POPS   C4A10542   3.080  17.570   7.885  0.0778 -0.1017  0.0312
  688POPS   C1B10543   3.464  17.386   7.040 -0.0512  0.1644 -0.2524
  688POPS   C2B10544   3.486  17.834   7.162 -0.1096 -0.1636 -0.1864
  688POPS   C3B10545   3.258  18.132   7.439 -0.2061 -0.2952 -0.1873
  688POPS   C4B10546   3.195  18.420   7.787  0.0013 -0.4198 -0.0369
  689POPS   CNO10547   9.518  12.246   6.286  0.2109 -0.0924 -0.2897
  689POPS   PO410548   9.482  12.584   6.081 -0.2429  0.3731  0.0047
  689POPS   GL110549   9.557  12.838   6.445 -0.1288  0.2592  0.1101
  689POPS   GL210550   9.873  12.886   6.555 -0.4096 -0.0006 -0.3524
  689POPS   C1A10551   9.535  12.892   6.890  0.1838 -0.0597  0.2978
  689POPS   D2A10552   9.617  12.969   7.392 -0.0107 -0.0337  0.5968
  689POPS   C3A10553   9.530  12.738   7.769 -0.1686 -0.1749 -0.4447
  689POPS   C4A10554   9.630  12.479   8.166 -0.1926 -0.0744  0.2202
  689POPS   C1B10555  10.099  12.930   6.918 -0.1531  0.2005  0.0381
  689POPS   C2B10556  10.081  12.864   7.287 -0.0331  0.1539 -0.2223
  689POPS   C3B10557   9.966  12.973   7.693  0.2586  0.0963  0.0303
  689POPS   C4B10558   9.847  13.026   8.091 -0.0583 -0.0690  0.2990
  690POPS   CNO10559   7.096   0.277   6.107 -0.0184 -0.0644 -0.2286
  690POPS   PO410560   6.727  -0.055   5.981 -0.1512  0.1723  0.1039
  690POPS   GL110561   6.675  -0.156   6.439 -0.1400 -0.1435 -0.0682
  690POPS   GL210562   6.402  -0.297   6.418 -0.0535  0.0176 -0.0285
  690POPS   C1A10563   6.827   0.011   6.810 -0.0434 -0.1588 -0.3425
  690POPS   D2A10564   6.707  -0.036   7.219  0.2410  0.2040 -0.2155
  690POPS   C3A10565   6.642   0.043   7.629  0.2045  0.1788  0.0529
  690POPS   C4A10566   6.543  -0.020   8.034  0.1404 -0.0355  0.0797
  690POPS   C1B10567   6.364  -0.309   6.832 -0.1540  0.0748 -0.3101
  690POPS   C2B10568   6.343  -0.311   7.318 -0.0190  0.0556 -0.0454
  690POPS   C3B10569   6.406  -0.468   7.783  0.1142  0.1334 -0.0526
  690POPS   C4B10570   6.554  -0.547   8.222  0.1526  0.1656 -0.1724
  691POPS   CNO10571   5.037   7.226   6.243  0.0456 -0.0382 -0.2841
  691POPS   PO410572   5.330   7.475   6.267 -0.1230 -0.0992 -0.0697
  691POPS   GL110573   5.314   7.363   6.646 -0.3809 -0.1065  0.2344
  691POPS   GL210574   5.021   7.499   6.755  0.2184  0.0211 -0.4034
  691POPS   C1A10575   5.425   7.605   6.979 -0.2372 -0.4129 -0.2573
  691POPS   D2A10576   5.310   7.770   7.435 -0.2209 -0.0958  0.0281
  691POPS   C3A10577   5.254   7.412   7.709  0.0441  0.1306  0.1231
  691POPS   C4A10578   5.164   7.275   8.135  0.0947 -0.0240  0.3676
  691POPS   C1B10579   4.912   7.682   7.141  0.0319  0.2661  0.1439
  691POPS   C2B10580   4.759   7.695   7.587  0.1594 -0.1426 -0.0821
  691POPS   C3B10581   4.833   7.619   7.990  0.3512 -0.3509  0.0005
  691POPS   C4B10582   5.116   7.717   8.333  0.0310 -0.1201 -0.2610
  692POPS   CNO10583  11.815  15.349   6.423 -0.2038 -0.2310  0.0729
  692POPS   PO410584  11.929  15.655   6.722  0.1815 -0.0216 -0.2539
  692POPS   GL110585  11.620  15.564   6.943 -0.2856  0.0052 -0.2514
  692POPS   GL210586  11.312  15.490   6.813 -0.3055 -0.0044 -0.1246
  692POPS   C1A10587  11.556  15.635   7.346  0.1815 -0.0480  0.1257
  692POPS   D2A10588  11.617  15.471   7.753  0.0449 -0.0420 -0.2767
  692POPS   C3A10589  11.980  15.710   7.854 -0.2498  0.1884  0.0215
  692POPS   C4A10590  12.167  15.854   7.670  0.2010 -0.0273 -0.0887
  692POPS   C1B10591  11.070  15.418   7.213 -0.0728 -0.0664  0.1586
  692POPS   C2B10592  11.080  15.597   7.608 -0.4270 -0.1898 -0.1006
  692POPS   C3B10593  10.963  15.719   8.006  0.0237 -0.0303 -0.0583
  692POPS   C4B10594  11.027  15.841   8.351 -0.4321  0.0532 -0.4131
  693POPS   CNO10595  10.813  16.637   6.181  0.0148 -0.0775  0.0503
  693POPS   PO410596  10.840  17.099   5.932 -0.2869 -0.2200 -0.0334
  693POPS   GL110597  10.857  17.093   6.507  0.1096 -0.1879 -0.1808
  693POPS   GL210598  11.109  17.276   6.612 -0.1986 -0.2361 -0.2731
  693POPS   C1A10599  10.782  16.952   6.978 -0.0480 -0.0789  0.1069
  693POPS   D2A10600  11.062  16.899   7.269 -0.1730  0.0832  0.1390
  693POPS   C3A10601  10.756  16.858   7.595 -0.0429 -0.0996  0.2062
  693POPS   C4A10602  10.560  16.764   8.030  0.1541  0.0389  0.2286
  693POPS   C1B10603  10.829  17.432   7.016  0.0422  0.0507 -0.2024
  693POPS   C2B10604  10.856  17.282   7.482 -0.1855 -0.1102 -0.0013
  693POPS   C3B10605  10.821  17.235   7.875  0.0072 -0.0844 -0.2279
  693POPS   C4B10606  10.743  17.273   8.345  0.4595  0.0370 -0.2631
  694POPS   CNO10607   5.240  16.455   6.130 -0.1410  0.0991  0.0195
  694POPS   PO410608   5.201  16.746   6.412  0.2223 -0.0685 -0.2427
  694POPS   GL110609   5.118  16.835   6.800  0.0194 -0.0497  0.1739
  694POPS   GL210610   5.276  17.090   6.813 -0.2770  0.3810  0.0674
  694POPS   C1A10611   4.868  17.096   7.168  0.1646 -0.0333 -0.2256
  694POPS   D2A10612   4.663  17.323   7.473  0.2020  0.1405 -0.0456
  694POPS   C3A10613   4.319  17.470   7.260  0.1445  0.2436  0.1613
  694POPS   C4A10614   3.891  17.644   7.016  0.0424  0.1082 -0.1902
  694POPS   C1B10615   5.256  17.317   7.047  0.0986 -0.4244  0.2875
  694POPS   C2B10616   5.209  17.306   7.521  0.1703 -0.2271  0.1353
  694POPS   C3B10617   5.264  17.158   7.873  0.1682  0.1836  0.0203
  694POPS   C4B10618   5.460  16.877   7.970  0.2407 -0.0611  0.3052
  695POPS   CNO10619   3.996   1.616   6.003 -0.2100 -0.0111 -0.2671
  695POPS   PO410620   4.141   1.308   5.698 -0.0328  0.1471  0.2439
  695POPS   GL110621   3.911   1.043   6.032 -0.1963  0.1169 -0.2568
  695POPS   GL210622   4.290   1.057   6.171 -0.2122  0.0874  0.0290
  695POPS   C1A10623   3.558   0.828   6.322  0.1087 -0.2411  0.0741
  695POPS   D2A10624   3.376   0.873   6.711  0.2997  0.1493 -0.2620
  695POPS   C3A10625   3.405   1.156   7.033 -0.0922  0.0678  0.0930
  695POPS   C4A10626   3.216   1.211   7.423 -0.1230 -0.0622 -0.1156
  695POPS   C1B10627   4.285   1.134   6.719  0.1653 -0.0371 -0.1328
  695POPS   C2B10628   4.248   1.134   7.222 -0.1095 -0.0727 -0.3301
  695POPS   C3B10629   4.413   1.084   7.642  0.2984  0.0230 -0.0173
  695POPS   C4B10630   4.716   1.168   7.925  0.0683 -0.0706 -0.0600
  696POPS   CNO10631  13.870   6.711   6.174  0.0188 -0.2078  0.0098
  696POPS   PO410632  13.685   7.102   6.297  0.0580 -0.2094 -0.1001
  696POPS   GL110633  13.877   6.797   6.663  0.0069  0.1443  0.1437
  696POPS   GL210634  14.173   6.802   6.768  0.0631 -0.0293  0.0809
  696POPS   C1A10635  13.940   6.541   7.100 -0.1354 -0.0922 -0.2006
  696POPS   D2A10636  14.126   6.653   7.455  0.2743 -0.0021  0.1219
  696POPS   C3A10637  14.009   6.377   7.802 -0.2922 -0.1308  0.1705
  696POPS   C4A10638  13.861   6.162   8.177 -0.1680 -0.1825  0.1405
  696POPS   C1B10639  14.149   7.107   7.080  0.2398  0.0512  0.0129
  696POPS   C2B10640  14.189   7.319   7.401 -0.1933  0.0184 -0.1910
  696POPS   C3B10641  14.191   7.428   7.834  0.1422 -0.0727 -0.2436
  696POPS   C4B10642  14.043   7.410   8.173 -0.5807  0.0590 -0.1021
  697POPS   CNO10643   0.885   6.585   5.967 -0.3637  0.0276 -0.0044
  697POPS   PO410644   0.680   7.025   6.135 -0.0922  0.1005 -0.2616
  697POPS   GL110645   0.761   6.867   6.472 -0.0128  0.1652  0.0040
  697POPS   GL210646   0.902   7.176   6.650  0.1375 -0.0369 -0.4462
  697POPS   C1A10647   0.991   6.632   6.844  0.0946  0.3554 -0.0585
  697POPS   D2A10648   1.014   6.756   7.306  0.1247  0.3143 -0.1375
  697POPS   C3A10649   1.236   7.103   7.378  0.1244  0.1664 -0.1163
  697POPS   C4A10650   1.358   7.093   7.869 -0.1665 -0.3500 -0.0857
  697POPS   C1B10651   0.790   7.236   7.073  0.1309 -0.0807  0.0431
  697POPS   C2B10652   0.778   7.408   7.442  0.1312 -0.1158 -0.0635
  697POPS   C3B10653   0.507   7.624   7.751  0.2231  0.0739  0.4520
  697POPS   C4B10654   0.493   7.973   7.869 -0.2228  0.2326 -0.0336
  698POPS   CNO10655  15.384  10.457   6.561 -0.1121 -0.2435 -0.1221
  698POPS   PO410656  15.448  10.018   6.573  0.0150 -0.0118 -0.1024
  698POPS   GL110657  15.665   9.974   6.955  0.0915 -0.0293 -0.1871
  698POPS   GL210658  15.518  10.299   7.007  0.2692  0.4146  0.0206
  698POPS   C1A10659  15.778   9.710   7.287  0.2529 -0.3561 -0.0309
  698POPS   D2A10660  15.831   9.471   7.615  0.0449 -0.0417  0.1259
  698POPS   C3A10661  15.511   9.347   7.932  0.2141  0.4507 -0.0072
  698POPS   C4A10662  15.393   9.396   8.286 -0.2107  0.2127 -0.1257
  698POPS   C1B10663  15.522  10.154   7.419  0.1028  0.2327  0.1775
  698POPS   C2B10664  15.505  10.344   7.824 -0.0433  0.3185 -0.2278
  698POPS   C3B10665  15.772  10.331   8.211  0.0313 -0.1649  0.1205
  698POPS   C4B10666  16.155  10.498   8.344  0.0340 -0.0368 -0.1877
  699POPS   CNO10667   7.661  17.260   5.482 -0.0257  0.0367 -0.0704
  699POPS   PO410668   7.478  17.009   5.726  0.0917  0.2662 -0.0522
  699POPS   GL110669   7.395  17.261   6.120  0.0224  0.2131 -0.2300
  699POPS   GL210670   7.154  17.502   6.217  0.3692  0.0274  0.0920
  699POPS   C1A10671   7.392  17.212   6.526  0.0346 -0.1856 -0.0841
  699POPS   D2A10672   7.666  17.307   6.805 -0.2207  0.0031 -0.3775
  699POPS   C3A10673   7.717  17.409   7.282 -0.3753  0.1324 -0.1301
  699POPS   C4A10674   7.534  17.397   7.653 -0.2416  0.0894 -0.2608
  699POPS   C1B10675   7.280  17.684   6.649 -0.1319  0.0489 -0.0704
  699POPS   C2B10676   7.261  17.601   7.065 -0.2600 -0.2260  0.2792
  699POPS   C3B10677   7.137  17.581   7.436 -0.1279  0.1795 -0.2713
  699POPS   C4B10678   6.921  17.460   7.895 -0.2914  0.0160 -0.0538
  700POPS   CNO10679   5.442  12.545   5.255  0.3250 -0.2591  0.0287
  700POPS   PO410680   5.750  12.881   5.323 -0.0612  0.1311  0.1310
  700POPS   GL110681   5.438  12.876   5.648 -0.2138 -0.0554 -0.0503
  700POPS   GL210682   5.348  13.177   5.468 -0.0203 -0.1656  0.0446
  700POPS   C1A10683   5.284  12.703   6.037  0.2401  0.0435  0.0212
  700POPS   D2A10684   5.146  12.993   6.327 -0.2047  0.4087 -0.0107
  700POPS   C3A10685   5.138  12.985   6.733 -0.0674 -0.2188 -0.1833
  700POPS   C4A10686   5.299  13.149   7.136 -0.2614 -0.2380 -0.0469
  700POPS   C1B10687   5.248  13.305   5.850  0.1860  0.0589  0.0185
  700POPS   C2B10688   5.324  13.470   6.221  0.1778  0.0251  0.2326
  700POPS   C3B10689   5.095  13.902   6.361  0.1640 -0.2486  0.1236
  700POPS   C4B10690   5.256  14.108   6.729  0.2692 -0.0008 -0.4444
  701POPS   CNO10691   5.505   7.608   5.809 -0.0694 -0.0820 -0.1529
  701POPS   PO410692   5.668   7.829   6.200  0.1245  0.0361  0.0954
  701POPS   GL110693   5.461   7.909   6.545  0.0949 -0.1542  0.2050
  701POPS   GL210694   5.683   7.984   6.767  0.0347  0.1890  0.0450
  701POPS   C1A10695   5.181   7.984   6.815 -0.0848  0.1688  0.2088
  701POPS   D2A10696   4.776   8.024   6.833 -0.1713 -0.1359  0.1925
  701POPS   C3A10697   4.555   8.009   7.215 -0.1248 -0.1949 -0.0385
  701POPS   C4A10698   4.345   8.059   7.523  0.0317 -0.5744  0.2560
  701POPS   C1B10699   5.628   8.152   7.086 -0.0437  0.1326  0.0403
  701POPS   C2B10700   5.552   8.176   7.453  0.2512  0.1815 -0.2098
  701POPS   C3B10701   5.569   7.911   7.876  0.0373  0.0088 -0.1136
  701POPS   C4B10702   5.534   7.972   8.303 -0.0827  0.1256  0.2199
  702POPS   CNO10703  13.172  11.143   5.954  0.2432 -0.0669 -0.3707
  702POPS   PO410704  13.134  10.714   6.010 -0.1431  0.0912 -0.5160
  702POPS   GL110705  12.928  10.410   6.367  0.0775  0.0419  0.0707
  702POPS   GL210706  12.511  10.602   6.347 -0.3035 -0.1552  0.0736
  702POPS   C1A10707  12.735  10.213   6.591  0.0709  0.0100  0.0840
  702POPS   D2A10708  12.367  10.324   6.866  0.1165  0.0812  0.1912
  702POPS   C3A10709  12.412  10.562   7.191 -0.0552  0.0540 -0.1080
  702POPS   C4A10710  12.355  10.581   7.652  0.2816  0.1432 -0.0475
  702POPS   C1B10711  12.738  10.644   6.771 -0.1810 -0.0707  0.0561
  702POPS   C2B10712  12.772  10.885   7.143 -0.0871  0.2027  0.3057
  702POPS   C3B10713  12.799  10.803   7.584 -0.0988  0.0484 -0.1294
  702POPS   C4B10714  12.960  10.958   7.937  0.0357  0.3055 -0.3036
  703POPS   CNO10715  17.794  13.745   6.063 -0.0383 -0.0871  0.0072
  703POPS   PO410716  17.283  13.782   6.093 -0.0083  0.0224  0.0746
  703POPS   GL110717  17.534  13.724   6.475 -0.0096 -0.0090  0.1750
  703POPS   GL210718  17.920  13.636   6.496  0.1962  0.0899 -0.1086
  703POPS   C1A10719  17.492  13.644   6.926 -0.0733  0.1177  0.0596
  703POPS   D2A10720  17.486  13.672   7.437 -0.4136  0.1900  0.1410
  703POPS   C3A10721  17.196  13.658   7.776 -0.0801 -0.2893 -0.2295
  703POPS   C4A10722  17.253  13.615   8.188 -0.0758  0.0263 -0.2661
  703POPS   C1B10723  17.975  13.389   6.895  0.1170 -0.2799  0.0539
  703POPS   C2B10724  17.878  13.266   7.391  0.1859 -0.0465  0.1907
  703POPS   C3B10725  17.651  13.299   7.824  0.1312  0.5849  0.0793
  703POPS   C4B10726  17.316  13.145   8.119  0.0062 -0.1521  0.1601
  704POPS   CNO10727   9.712   9.843   6.478 -0.1028 -0.2024 -0.2909
  704POPS   PO410728   9.506  10.009   6.125  0.0565 -0.0840 -0.0702
  704POPS   GL110729   9.118  10.034   6.368  0.1093 -0.0106  0.2495
  704POPS   GL210730   8.930  10.320   6.214 -0.1174  0.0012 -0.1343
  704POPS   C1A10731   8.958  10.024   6.743  0.0787  0.3540 -0.0008
  704POPS   D2A10732   8.941  10.053   7.135  0.2384  0.1892  0.4823
  704POPS   C3A10733   9.258  10.266   7.350  0.1917  0.2108  0.3160
  704POPS   C4A10734   9.199  10.341   7.795  0.1637  0.2938 -0.1277
  704POPS   C1B10735   9.133  10.499   6.523 -0.1510 -0.1181 -0.1676
  704POPS   C2B10736   8.986  10.521   6.858  0.1630 -0.1511 -0.0744
  704POPS   C3B10737   8.805  10.559   7.223 -0.2577 -0.0984 -0.1273
  704POPS   C4B10738   8.746  10.545   7.595 -0.1657 -0.0627 -0.1559
  705POPS   CNO10739   7.324   0.277   5.629 -0.1776 -0.3099  0.1025
  705POPS   PO410740   7.516   0.491   6.009 -0.0263  0.0315  0.1766
  705POPS   GL110741   7.502   0.332   6.426 -0.0887  0.2099  0.1621
  705POPS   GL210742   7.733   0.482   6.688 -0.2864 -0.0044  0.1082
  705POPS   C1A10743   7.337   0.279   6.841 -0.0652  0.0077 -0.0396
  705POPS   D2A10744   7.160   0.222   7.207  0.0200 -0.1154 -0.0232
  705POPS   C3A10745   7.429   0.204   7.502 -0.2181 -0.2706  0.2602
  705POPS   C4A10746   7.480   0.093   7.982 -0.3406  0.0877  0.1065
  705POPS   C1B10747   7.647   0.495   7.126 -0.1870 -0.3431  0.0091
  705POPS   C2B10748   7.569   0.679   7.522 -0.2934  0.0506 -0.0037
  705POPS   C3B10749   7.227   0.499   7.868  0.2437  0.1298  0.2671
  705POPS   C4B10750   6.985   0.161   8.019 -0.0609  0.0959  0.1545
  706POPS   CNO10751   3.012  15.377   5.379 -0.1133  0.1328  0.1619
  706POPS   PO410752   3.162  15.643   5.672 -0.2888 -0.0373 -0.1475
  706POPS   GL110753   3.069  15.788   6.112  0.2376 -0.1449  0.2227
  706POPS   GL210754   2.826  15.550   6.267  0.0637  0.0272  0.0570
  706POPS   C1A10755   3.176  15.795   6.532  0.1744  0.1162  0.1913
  706POPS   D2A10756   3.131  15.487   6.882 -0.0105  0.2224  0.1810
  706POPS   C3A10757   3.320  15.606   7.259 -0.2918 -0.0210  0.2094
  706POPS   C4A10758   3.513  15.524   7.583 -0.0372 -0.1200  0.0179
  706POPS   C1B10759   2.717  15.322   6.587 -0.0269 -0.0563  0.1365
  706POPS   C2B10760   2.491  14.942   6.750  0.0371 -0.0195  0.1666
  706POPS   C3B10761   2.430  14.798   7.202  0.1442 -0.1788 -0.1034
  706POPS   C4B10762   2.649  14.603   7.534  0.0848 -0.2363 -0.1091
  707POPS   CNO10763   6.262  12.626   5.176  0.3228  0.0400  0.0633
  707POPS   PO410764   6.482  12.660   5.510 -0.1388 -0.4388  0.0203
  707POPS   GL110765   6.338  12.876   5.932 -0.1685 -0.0810 -0.1500
  707POPS   GL210766   6.510  12.973   6.269 -0.0543 -0.3749 -0.0127
  707POPS   C1A10767   6.021  12.614   6.101 -0.1756  0.3206 -0.3285
  707POPS   D2A10768   5.658  12.459   6.345  0.1714 -0.0517  0.1437
  707POPS   C3A10769   5.413  12.620   6.568  0.2961 -0.0844  0.1080
  707POPS   C4A10770   5.396  12.667   7.016  0.0183 -0.3280  0.0331
  707POPS   C1B10771   6.216  12.860   6.473 -0.0497 -0.0752 -0.0935
  707POPS   C2B10772   6.106  12.930   6.836  0.2299 -0.0593 -0.0454
  707POPS   C3B10773   5.870  12.872   7.189 -0.1085  0.0294  0.1521
  707POPS   C4B10774   5.523  12.905   7.467  0.1048 -0.2661  0.0808
  708POPS   CNO10775  14.727  11.523   6.454  0.0392  0.2696  0.1627
  708POPS   PO410776  14.898  11.126   6.359  0.1444 -0.1317  0.0257
  708POPS   GL110777  14.758  11.124   6.821 -0.0781  0.0776 -0.0526
  708POPS   GL210778  14.471  11.365   6.947 -0.0443  0.2038  0.2062
  708POPS   C1A10779  14.685  10.886   7.195 -0.1407  0.2039  0.2529
  708POPS   D2A10780  15.030  10.888   7.495 -0.1476 -0.3046 -0.0038
  708POPS   C3A10781  15.091  10.712   7.956 -0.1210 -0.2129 -0.0857
  708POPS   C4A10782  14.867  10.640   8.323 -0.0646 -0.0247  0.1041
  708POPS   C1B10783  14.760  11.394   7.329 -0.0528 -0.0793 -0.2112
  708POPS   C2B10784  14.827  11.364   7.758 -0.1949 -0.1339 -0.4003
  708POPS   C3B10785  15.010  11.244   8.056  0.2516  0.1558 -0.1046
  708POPS   C4B10786  15.019  11.099   8.506 -0.1123 -0.1124  0.0748
  709POPS   CNO10787   4.654   0.491   5.537  0.0304  0.1531 -0.1769
  709POPS   PO410788   4.702   0.668   5.987 -0.3356  0.2379 -0.1694
  709POPS   GL110789   4.866   0.377   6.347 -0.3559 -0.1872 -0.0606
  709POPS   GL210790   4.727   0.151   6.505  0.0856 -0.0002  0.1457
  709POPS   C1A10791   5.036   0.668   6.674 -0.1891  0.0062 -0.0970
  709POPS   D2A10792   5.378   0.529   7.003  0.1518 -0.0643 -0.1397
  709POPS   C3A10793   5.273   0.632   7.512  0.1137 -0.0589 -0.0954
  709POPS   C4A10794   5.518   0.673   7.824 -0.2819  0.4010 -0.0558
  709POPS   C1B10795   4.858   0.252   6.915 -0.0420 -0.2167  0.2043
  709POPS   C2B10796   4.870   0.365   7.328 -0.0760 -0.0378 -0.1889
  709POPS   C3B10797   4.818   0.557   7.777 -0.1401 -0.0709 -0.3004
  709POPS   C4B10798   5.052   0.809   8.023  0.2629  0.3451  0.1158
  710POPS   CNO10799  10.660   4.270   6.053 -0.2730 -0.4062  0.0174
  710POPS   PO410800  10.643   4.558   6.377 -0.0752 -0.4044 -0.1789
  710POPS   GL110801  10.416   4.548   6.806 -0.0102 -0.0946  0.0082
  710POPS   GL210802  10.144   4.576   6.884  0.0530 -0.0579 -0.1466
  710POPS   C1A10803  10.525   4.634   7.274 -0.2844 -0.0018  0.0784
  710POPS   D2A10804  10.434   4.576   7.681 -0.0324 -0.2364 -0.3901
  710POPS   C3A10805  10.625   4.715   8.011  0.1476 -0.2131 -0.0749
  710POPS   C4A10806  10.834   4.922   8.229  0.1373 -0.3500  0.0512
  710POPS   C1B10807  10.058   4.377   7.367  0.0366 -0.2453 -0.2487
  710POPS   C2B10808   9.720   4.328   7.692 -0.0170  0.1410 -0.1927
  710POPS   C3B10809   9.682   4.136   8.206  0.0432 -0.1093 -0.0631
  710POPS   C4B10810   9.794   3.922   8.621 -0.0075 -0.0249  0.1400
  711POPS   CNO10811  15.611  11.691   6.024  0.1215  0.3916 -0.4158
  711POPS   PO410812  15.651  11.912   6.298 -0.0780  0.1652 -0.1127
  711POPS   GL110813  15.612  11.795   6.727 -0.2401 -0.1174  0.2217
  711POPS   GL210814  15.542  11.541   6.820 -0.1524 -0.2502  0.1263
  711POPS   C1A10815  15.779  11.999   7.168 -0.0165  0.0257  0.1320
  711POPS   D2A10816  15.786  12.036   7.528  0.0400  0.0648 -0.0671
  711POPS   C3A10817  15.509  12.062   7.910  0.1104  0.3402  0.4179
  711POPS   C4A10818  15.598  12.322   8.227 -0.1551 -0.0635  0.0092
  711POPS   C1B10819  15.568  11.552   7.240 -0.0505  0.0418  0.0894
  711POPS   C2B10820  15.604  11.605   7.706  0.0112  0.2323  0.1010
  711POPS   C3B10821  15.515  11.588   8.179 -0.0361 -0.1399  0.3507
  711POPS   C4B10822  15.288  11.530   8.529  0.0929  0.0667  0.2581
  712POPS   CNO10823  16.467  13.783   6.074 -0.1019  0.2074 -0.1963
  712POPS   PO410824  16.445  14.205   6.133 -0.0969  0.0047  0.0869
  712POPS   GL110825  16.530  14.360   6.595 -0.2386  0.0947  0.1731
  712POPS   GL210826  16.820  14.376   6.690 -0.2512  0.3293 -0.1561
  712POPS   C1A10827  16.294  14.217   6.917 -0.0124 -0.0018  0.3398
  712POPS   D2A10828  16.236  14.065   7.253 -0.1753 -0.2097 -0.0639
  712POPS   C3A10829  16.237  14.093   7.754 -0.1933  0.1594  0.0538
  712POPS   C4A10830  15.991  14.187   8.131 -0.0661  0.0197 -0.3575
  712POPS   C1B10831  17.116  14.552   6.949  0.4943 -0.3414  0.3127
  712POPS   C2B10832  17.097  14.659   7.432 -0.0498 -0.0403 -0.1055
  712POPS   C3B10833  16.930  14.616   7.800 -0.0770  0.1764 -0.1813
  712POPS   C4B10834  17.001  14.576   8.262 -0.0339  0.0856 -0.1211
  713POPS   CNO10835   9.244   2.060   6.304  0.0728  0.0380 -0.3733
  713POPS   PO410836   8.841   1.686   6.345  0.2408  0.0878  0.3288
  713POPS   GL110837   8.683   1.829   6.726 -0.4163  0.0799 -0.1734
  713POPS   GL210838   8.613   1.561   6.804  0.0815  0.0395  0.0351
  713POPS   C1A10839   8.472   2.267   7.029  0.2093  0.0937 -0.1992
  713POPS   D2A10840   8.115   2.298   7.313 -0.2761 -0.5344  0.1773
  713POPS   C3A10841   8.153   2.157   7.832  0.0531  0.0246 -0.3968
  713POPS   C4A10842   8.264   1.864   8.146 -0.1073  0.2397  0.1850
  713POPS   C1B10843   8.720   1.214   7.162 -0.0327  0.1839 -0.1230
  713POPS   C2B10844   8.796   1.233   7.671  0.0642 -0.2118  0.2919
  713POPS   C3B10845   8.828   1.191   8.107 -0.0123  0.0147 -0.3373
  713POPS   C4B10846   9.069   0.988   8.460  0.0125  0.0502  0.0072
  714POPS   CNO10847  13.610   1.173   5.999 -0.2130  0.0592  0.2415
  714POPS   PO410848  13.536   0.723   6.100  0.0726  0.2582 -0.0807
  714POPS   GL110849  13.567   0.543   6.498  0.0037  0.0020 -0.0731
  714POPS   GL210850  13.713   0.216   6.573  0.1871  0.2192  0.1298
  714POPS   C1A10851  13.674   0.611   6.897  0.2366 -0.3783  0.0593
  714POPS   D2A10852  13.656   0.600   7.331 -0.2801 -0.2892  0.0572
  714POPS   C3A10853  13.710   0.359   7.619 -0.1606  0.0642  0.0163
  714POPS   C4A10854  13.762   0.385   8.063 -0.1432  0.0191  0.1461
  714POPS   C1B10855  13.861   0.102   6.979 -0.4146  0.0689  0.3363
  714POPS   C2B10856  13.928  -0.057   7.329  0.1759 -0.0372 -0.2278
  714POPS   C3B10857  14.035  -0.110   7.764  0.0077  0.0060  0.1498
  714POPS   C4B10858  14.282  -0.367   8.065  0.1126  0.1146  0.2299
  715POPS   CNO10859   8.797   8.101   5.981  0.1843  0.2083 -0.0929
  715POPS   PO410860   9.080   8.016   6.232  0.2188  0.0637  0.2290
  715POPS   GL110861   8.942   8.162   6.642 -0.0589  0.0965  0.0174
  715POPS   GL210862   8.970   8.106   6.880  0.0418  0.2678 -0.0778
  715POPS   C1A10863   8.735   8.577   6.837  0.1663  0.0159 -0.3157
  715POPS   D2A10864   8.693   9.057   6.654 -0.0806  0.1007  0.0391
  715POPS   C3A10865   8.788   9.335   6.920  0.0628  0.0178  0.3581
  715POPS   C4A10866   8.599   9.767   7.003 -0.1845  0.2414  0.3995
  715POPS   C1B10867   8.880   8.073   7.276  0.0029 -0.1373  0.1274
  715POPS   C2B10868   8.889   8.143   7.751  0.0276  0.1809 -0.2424
  715POPS   C3B10869   8.804   8.218   8.162  0.0964 -0.2380 -0.0598
  715POPS   C4B10870   8.627   8.122   8.522  0.0606 -0.1463 -0.0031
  716POPS   CNO10871  14.605   2.366   6.190  0.1439 -0.0548  0.1553
  716POPS   PO410872  14.807   1.989   6.262  0.2654 -0.0635  0.0476
  716POPS   GL110873  15.058   1.864   6.698  0.1542 -0.0935  0.0212
  716POPS   GL210874  14.748   1.741   6.709 -0.0105 -0.2337 -0.1726
  716POPS   C1A10875  15.209   1.829   6.978 -0.0310 -0.2207 -0.3201
  716POPS   D2A10876  15.126   1.807   7.379 -0.0371 -0.2622  0.0608
  716POPS   C3A10877  15.274   1.551   7.645 -0.2657  0.1301  0.1608
  716POPS   C4A10878  15.434   1.285   7.894  0.1306 -0.0414 -0.2182
  716POPS   C1B10879  14.632   1.803   7.180  0.2821 -0.0401 -0.0045
  716POPS   C2B10880  14.461   1.779   7.595 -0.1124 -0.5096  0.0218
  716POPS   C3B10881  14.297   1.796   7.967  0.1631 -0.3313 -0.1080
  716POPS   C4B10882  13.949   1.999   8.269 -0.1004  0.0129 -0.0029
  717POPS   CNO10883  11.529   4.907   6.238  0.0725  0.4563  0.7716
  717POPS   PO410884  11.123   4.733   6.276  0.0005  0.0959 -0.1002
  717POPS   GL110885  11.013   4.574   6.700 -0.2176 -0.1197  0.0722
  717POPS   GL210886  10.807   4.791   6.822 -0.0402  0.0541 -0.0186
  717POPS   C1A10887  11.207   4.379   7.037 -0.0816 -0.1898 -0.1116
  717POPS   D2A10888  11.424   4.366   7.437  0.0132  0.2629  0.0909
  717POPS   C3A10889  11.260   4.219   7.731  0.2789  0.0978  0.0991
  717POPS   C4A10890  11.118   4.039   8.214 -0.2032 -0.4078 -0.1673
  717POPS   C1B10891  10.985   4.782   7.208  0.0742 -0.4113  0.0213
  717POPS   C2B10892  11.109   4.698   7.658 -0.1409 -0.3081 -0.0542
  717POPS   C3B10893  11.157   4.579   8.145 -0.2534  0.2183  0.1379
  717POPS   C4B10894  11.336   4.376   8.496 -0.2107 -0.2835  0.3498
  718POPS   CNO10895  15.110  13.388   5.443  0.0497  0.3838  0.1301
  718POPS   PO410896  14.831  13.129   5.784  0.0114  0.5486 -0.2331
  718POPS   GL110897  14.846  13.195   6.308 -0.4370  0.0658 -0.0627
  718POPS   GL210898  14.506  13.158   6.544 -0.4828 -0.1476  0.2534
  718POPS   C1A10899  14.792  13.576   6.659  0.1813 -0.0084 -0.1364
  718POPS   D2A10900  14.868  13.957   6.745 -0.0236 -0.2711  0.1062
  718POPS   C3A10901  14.458  14.034   6.707  0.1583  0.0460 -0.0541
  718POPS   C4A10902  14.205  14.337   6.630 -0.3016  0.0450  0.1467
  718POPS   C1B10903  14.371  13.129   6.946 -0.2717  0.1391 -0.2498
  718POPS   C2B10904  14.363  13.262   7.366 -0.1592  0.2335  0.0016
  718POPS   C3B10905  14.470  13.623   7.508  0.0796 -0.0554  0.0334
  718POPS   C4B10906  14.747  13.934   7.714  0.2342  0.1808 -0.1776
  719POPS   CNO10907  14.710   4.545   6.011 -0.0879 -0.0875  0.1275
  719POPS   PO410908  14.394   4.747   5.960 -0.1075 -0.1719  0.0529
  719POPS   GL110909  14.267   4.956   6.283 -0.2860  0.1170 -0.0171
  719POPS   GL210910  14.485   5.178   6.299  0.0993  0.0896 -0.1020
  719POPS   C1A10911  14.259   5.083   6.680  0.2200  0.0812  0.3815
  719POPS   D2A10912  14.125   5.115   7.143 -0.0843  0.0400  0.2621
  719POPS   C3A10913  13.933   4.718   7.188 -0.1969  0.2245  0.0050
  719POPS   C4A10914  13.605   4.623   6.915  0.0768 -0.2334  0.0190
  719POPS   C1B10915  14.517   5.535   6.568 -0.0896 -0.4250  0.0505
  719POPS   C2B10916  14.303   5.628   6.906 -0.0146  0.2423  0.1258
  719POPS   C3B10917  14.258   5.574   7.298  0.1778  0.2751 -0.0846
  719POPS   C4B10918  13.989   5.445   7.574  0.2455 -0.0219  0.1953
  720POPS   CNO10919   2.285   1.830   6.263 -0.0624 -0.0775  0.1295
  720POPS   PO410920   2.548   1.961   6.550  0.0653 -0.1409  0.2134
  720POPS   GL110921   2.589   2.014   7.031 -0.0071 -0.1414  0.1474
  720POPS   GL210922   2.435   2.255   6.924 -0.0154  0.0621  0.3041
  720POPS   C1A10923   2.437   2.034   7.474 -0.2648 -0.0510  0.3151
  720POPS   D2A10924   2.290   1.948   7.920 -0.2009  0.0463 -0.3899
  720POPS   C3A10925   1.889   1.778   8.020  0.0871  0.2687 -0.2719
  720POPS   C4A10926   1.510   1.684   8.025 -0.0593 -0.0343 -0.1078
  720POPS   C1B10927   2.129   2.359   7.254 -0.1422 -0.1286 -0.0082
  720POPS   C2B10928   2.012   2.271   7.644  0.1292  0.0981  0.1156
  720POPS   C3B10929   2.037   2.402   8.040  0.0936  0.3485  0.1896
  720POPS   C4B10930   2.078   2.529   8.424  0.3461  0.1771  0.1053
  721POPS   CNO10931   2.492  10.878   5.441 -0.0968 -0.1363 -0.0174
  721POPS   PO410932   2.454  10.514   5.841  0.1860 -0.1168  0.2884
  721POPS   GL110933   2.546  10.361   6.218 -0.0271  0.1220 -0.0441
  721POPS   GL210934   2.421  10.142   6.467 -0.0647 -0.2399  0.2424
  721POPS   C1A10935   2.934  10.459   6.558 -0.0018 -0.2893 -0.1074
  721POPS   D2A10936   3.021  10.359   6.966 -0.1703  0.0361 -0.0673
  721POPS   C3A10937   2.755  10.344   7.247  0.0243 -0.0645 -0.1597
  721POPS   C4A10938   2.559  10.661   7.508  0.4035  0.3009  0.0365
  721POPS   C1B10939   2.477  10.285   6.844  0.0874 -0.0832  0.2106
  721POPS   C2B10940   2.265  10.375   7.225  0.2909  0.0229 -0.1365
  721POPS   C3B10941   2.101  10.390   7.660  0.1103 -0.0355 -0.0189
  721POPS   C4B10942   1.954  10.492   8.088 -0.1862 -0.0267 -0.0941
  722POPS   CNO10943   3.011   7.260   5.975  0.0730 -0.2192  0.1463
  722POPS   PO410944   3.111   7.587   6.130 -0.1843 -0.1885 -0.1003
  722POPS   GL110945   3.064   7.948   6.337 -0.4408 -0.4688 -0.0691
  722POPS   GL210946   3.064   8.260   6.192  0.0838  0.0616  0.1622
  722POPS   C1A10947   2.893   8.070   6.711  0.0259 -0.3376  0.1047
  722POPS   D2A10948   2.639   8.313   6.827 -0.0554 -0.1693 -0.3804
  722POPS   C3A10949   2.412   8.174   7.164 -0.1555 -0.0383  0.0316
  722POPS   C4A10950   2.456   8.457   7.597  0.0125 -0.0230 -0.0993
  722POPS   C1B10951   3.173   8.426   6.633  0.2046  0.1196  0.0104
  722POPS   C2B10952   3.364   8.643   6.901 -0.1502 -0.1052 -0.1899
  722POPS   C3B10953   3.567   9.016   7.012 -0.4040  0.1095 -0.2204
  722POPS   C4B10954   3.756   9.432   7.074  0.1662 -0.0381 -0.1020
  723POPS   CNO10955  10.497  17.460   5.756  0.0942  0.0752  0.2262
  723POPS   PO410956  10.632  17.880   5.965 -0.0237 -0.0679  0.2309
  723POPS   GL110957  10.753  18.000   6.365 -0.1937  0.0293 -0.1631
  723POPS   GL210958  10.658  17.739   6.533 -0.3332  0.0269 -0.0783
  723POPS   C1A10959  11.048  17.920   6.797  0.2331  0.3319 -0.1374
  723POPS   D2A10960  11.259  17.761   7.136  0.1029 -0.1363 -0.2647
  723POPS   C3A10961  11.140  17.738   7.624 -0.0642 -0.0724  0.0635
  723POPS   C4A10962  11.029  17.602   8.132  0.0180  0.1129 -0.0100
  723POPS   C1B10963  10.528  17.800   7.015  0.1847 -0.3145 -0.0106
  723POPS   C2B10964  10.575  17.747   7.352  0.0847  0.1297  0.1492
  723POPS   C3B10965  10.636  17.785   7.805  0.0480  0.1398  0.1722
  723POPS   C4B10966  10.569  17.746   8.240  0.1441 -0.1025  0.3880
  724POPS   CNO10967   8.894  13.501   6.277  0.3240 -0.3401  0.1096
  724POPS   PO410968   8.568  13.698   6.450 -0.0448  0.3467  0.0854
  724POPS   GL110969   8.391  13.750   6.802 -0.0668  0.0466 -0.2479
  724POPS   GL210970   8.567  14.025   6.907  0.1840 -0.1642  0.1559
  724POPS   C1A10971   8.365  13.852   7.296 -0.2799 -0.4828 -0.3835
  724POPS   D2A10972   8.758  13.915   7.431 -0.0071 -0.1816 -0.0966
  724POPS   C3A10973   8.673  14.159   7.839  0.2388 -0.2937  0.3636
  724POPS   C4A10974   8.923  14.130   8.211  0.0770 -0.0738  0.5056
  724POPS   C1B10975   8.484  14.298   7.219 -0.0259  0.1422  0.2150
  724POPS   C2B10976   8.233  14.205   7.619 -0.0163  0.2745  0.1075
  724POPS   C3B10977   7.921  14.164   7.994  0.0057  0.1660 -0.0920
  724POPS   C4B10978   7.773  14.110   8.330  0.3718 -0.0836 -0.1883
  725POPS   CNO10979   0.615  12.008   5.808  0.0738 -0.1224  0.0616
  725POPS   PO410980   0.714  12.017   6.272 -0.3671 -0.0846 -0.0687
  725POPS   GL110981   0.508  11.924   6.644  0.1974  0.0578 -0.0492
  725POPS   GL210982   0.345  12.161   6.772 -0.0769 -0.1650 -0.0898
  725POPS   C1A10983   0.525  11.678   7.011 -0.1094 -0.0321  0.2950
  725POPS   D2A10984   0.724  11.683   7.367  0.3420  0.0109  0.1546
  725POPS   C3A10985   0.433  11.921   7.459  0.0677 -0.2036 -0.0143
  725POPS   C4A10986   0.036  11.900   7.275  0.0506  0.0537 -0.2095
  725POPS   C1B10987   0.334  12.433   7.161  0.0046  0.0391 -0.0106
  725POPS   C2B10988   0.295  12.408   7.621 -0.0071 -0.0352 -0.1770
  725POPS   C3B10989   0.452  12.141   8.004 -0.0291 -0.2347 -0.1564
  725POPS   C4B10990   0.498  12.039   8.465 -0.1730  0.1329  0.3142
  726POPS   CNO10991   1.309   2.787   5.153  0.0457 -0.1972  0.2546
  726POPS   PO410992   1.044   2.981   5.560  0.2343  0.0106 -0.1152
  726POPS   GL110993   1.153   3.087   6.064 -0.4322 -0.1729  0.0423
  726POPS   GL210994   1.008   2.901   6.350  0.0371  0.2877 -0.2208
  726POPS   C1A10995   1.047   3.432   6.421  0.1071 -0.0767  0.1839
  726POPS   D2A10996   1.185   3.665   6.724 -0.2577 -0.1166 -0.0725
  726POPS   C3A10997   1.166   3.619   7.163  0.0363 -0.0211 -0.1539
  726POPS   C4A10998   1.063   3.556   7.503  0.4158 -0.2632 -0.2420
  726POPS   C1B10999   1.001   2.536   6.716  0.0805 -0.0729  0.2107
  726POPS   C2B11000   0.966   2.385   7.178 -0.1842  0.2273 -0.0012
  726POPS   C3B11001   1.013   2.256   7.535  0.0359  0.2621  0.1845
  726POPS   C4B11002   1.077   2.129   7.967  0.0426  0.0534 -0.0892
  727POPS   CNO11003   9.866  11.782   5.713  0.1123 -0.0167  0.1251
  727POPS   PO411004   9.957  11.845   6.166 -0.1195 -0.0431 -0.0903
  727POPS   GL111005  10.125  12.067   6.547 -0.1812  0.2000 -0.0214
  727POPS   GL211006  10.311  12.290   6.568  0.1189 -0.0740  0.0584
  727POPS   C1A11007  10.349  11.969   6.932 -0.0928  0.0693  0.2027
  727POPS   D2A11008  10.213  11.942   7.365  0.0840 -0.2242  0.1336
  727POPS   C3A11009  10.434  11.974   7.728 -0.1307 -0.0346  0.1163
  727POPS   C4A11010  10.592  11.912   8.174 -0.2691  0.0308 -0.4306
  727POPS   C1B11011  10.321  12.503   6.859  0.2447 -0.1499 -0.0804
  727POPS   C2B11012  10.397  12.415   7.333  0.0116  0.1570 -0.0963
  727POPS   C3B11013  10.336  12.497   7.726  0.0474  0.0377  0.1417
  727POPS   C4B11014  10.206  12.703   8.203  0.3391  0.2459  0.2602
  728POPS   CNO11015   4.426  11.065   5.825  0.0159  0.2340  0.1411
  728POPS   PO411016   4.576  11.511   5.826 -0.0787  0.0288  0.2854
  728POPS   GL111017   4.530  11.455   6.250 -0.0154  0.2066 -0.0085
  728POPS   GL211018   4.640  11.192   6.317  0.1235  0.1154  0.0340
  728POPS   C1A11019   4.326  11.643   6.643 -0.2943 -0.1121 -0.3165
  728POPS   D2A11020   4.170  11.617   7.075  0.1281  0.2698  0.3236
  728POPS   C3A11021   4.113  11.859   7.429  0.1218  0.1624  0.1648
  728POPS   C4A11022   3.891  12.125   7.645 -0.2287  0.0273 -0.1277
  728POPS   C1B11023   4.633  11.223   6.800 -0.0478  0.6004 -0.0982
  728POPS   C2B11024   4.527  11.359   7.255 -0.0858  0.1401 -0.1269
  728POPS   C3B11025   4.676  11.399   7.600  0.2567  0.0932 -0.0947
  728POPS   C4B11026   4.719  11.413   7.978 -0.2199  0.0356 -0.3339
  729POPS   CNO11027  10.816   1.063   5.613 -0.3131 -0.2833 -0.1013
  729POPS   PO411028  11.151   0.939   5.817  0.0684 -0.5672  0.0809
  729POPS   GL111029  11.056   1.104   6.371  0.0981  0.1398 -0.3077
  729POPS   GL211030  10.835   0.818   6.482 -0.0383 -0.2188  0.1072
  729POPS   C1A11031  11.011   1.274   6.814  0.1014 -0.0618 -0.1657
  729POPS   D2A11032  11.109   1.186   7.231 -0.1557  0.3301  0.1191
  729POPS   C3A11033  11.001   0.881   7.465  0.1695 -0.2149  0.0925
  729POPS   C4A11034  10.618   0.609   7.559  0.0446  0.1942  0.0828
  729POPS   C1B11035  10.814   0.859   6.874  0.2967 -0.1329  0.0276
  729POPS   C2B11036  10.424   0.736   7.111 -0.3003 -0.1067 -0.1599
  729POPS   C3B11037  10.129   0.749   7.510  0.2351  0.2310 -0.1022
  729POPS   C4B11038   9.859   0.618   7.797 -0.1001 -0.1086 -0.0371
  730POPS   CNO11039  17.124   4.564   5.429 -0.1237  0.1682  0.0591
  730POPS   PO411040  17.034   4.790   5.820 -0.1873  0.3028 -0.1667
  730POPS   GL111041  17.039   4.757   6.231 -0.2517 -0.1249 -0.1370
  730POPS   GL211042  17.240   4.681   6.365 -0.0268 -0.0505  0.0996
  730POPS   C1A11043  16.810   4.908   6.650 -0.0365  0.1405  0.1462
  730POPS   D2A11044  16.483   5.078   6.955  0.0285  0.2484 -0.1170
  730POPS   C3A11045  16.555   4.963   7.366 -0.2248 -0.2342 -0.1928
  730POPS   C4A11046  16.587   5.058   7.736 -0.2392 -0.0029 -0.2857
  730POPS   C1B11047  17.276   4.791   6.784 -0.0512  0.0842  0.2006
  730POPS   C2B11048  17.493   4.584   7.203 -0.0713  0.4027  0.0799
  730POPS   C3B11049  17.810   4.666   7.582 -0.0834  0.2565 -0.0206
  730POPS   C4B11050  18.024   4.429   7.843  0.0123  0.1480 -0.2192
  731POPS   CNO11051   4.927  16.829   6.020  0.3575 -0.2231 -0.0625
  731POPS   PO411052   4.846  17.172   6.438 -0.2963  0.0428 -0.2690
  731POPS   GL111053   4.561  17.208   6.736 -0.1779 -0.0727  0.1390
  731POPS   GL211054   4.255  17.191   6.747 -0.3421  0.1101 -0.2205
  731POPS   C1A11055   4.381  16.969   7.145 -0.1910  0.1427  0.1813
  731POPS   D2A11056   4.076  16.665   7.377  0.1046  0.0103 -0.1061
  731POPS   C3A11057   4.005  16.653   7.836 -0.0569  0.1158 -0.3425
  731POPS   C4A11058   4.073  16.593   8.277 -0.2690 -0.0340  0.0446
  731POPS   C1B11059   3.908  17.148   7.125 -0.3037  0.1649 -0.0872
  731POPS   C2B11060   4.072  17.123   7.598  0.1183 -0.0312 -0.0878
  731POPS   C3B11061   4.437  16.940   7.700  0.1943 -0.0255  0.1813
  731POPS   C4B11062   4.490  16.753   8.030 -0.1155  0.1033  0.0741
  732POPS   CNO11063  17.132  10.526   6.044  0.1019  0.0278  0.1366
  732POPS   PO411064  16.794  10.721   6.267 -0.0166 -0.1609 -0.1118
  732POPS   GL111065  16.803  10.778   6.696 -0.0072  0.0138 -0.0821
  732POPS   GL211066  17.004  10.579   6.911 -0.3151  0.1004  0.2006
  732POPS   C1A11067  16.592  10.726   7.154  0.0667 -0.1747 -0.1655
  732POPS   D2A11068  16.347  10.716   7.490  0.0232 -0.2341 -0.3427
  732POPS   C3A11069  16.427  10.982   7.903 -0.1289 -0.0833 -0.1449
  732POPS   C4A11070  16.546  11.028   8.399  0.0501  0.1971 -0.0308
  732POPS   C1B11071  17.031  10.453   7.337 -0.0536 -0.3792  0.0240
  732POPS   C2B11072  17.178  10.312   7.735  0.2276  0.0382  0.0416
  732POPS   C3B11073  17.259  10.625   8.076  0.1060 -0.2408 -0.1621
  732POPS   C4B11074  17.519  10.954   8.103 -0.0725 -0.2644 -0.2389
  733POPS   CNO11075   4.826  13.480   4.565 -0.0141  0.2425 -0.1365
  733POPS   PO411076   5.212  13.595   4.838 -0.0044  0.1053  0.0345
  733POPS   GL111077   5.106  13.612   5.274 -0.0403  0.4089 -0.0895
  733POPS   GL211078   5.069  13.850   5.302  0.0512 -0.2179 -0.0120
  733POPS   C1A11079   4.894  13.471   5.596 -0.0637 -0.2648 -0.3363
  733POPS   D2A11080   4.704  13.298   6.002 -0.1817  0.2382 -0.2187
  733POPS   C3A11081   4.801  13.424   6.479 -0.1322  0.0454  0.3133
  733POPS   C4A11082   5.246  13.542   6.706  0.0195 -0.0789 -0.0530
  733POPS   C1B11083   4.772  14.122   5.449  0.1457 -0.3574 -0.2823
  733POPS   C2B11084   4.646  14.491   5.509 -0.1670  0.1740  0.0911
  733POPS   C3B11085   4.475  14.710   5.809  0.4248  0.0370 -0.0263
  733POPS   C4B11086   4.211  15.073   5.988 -0.2039  0.0182 -0.1104
  734POPS   CNO11087   2.208   8.369   5.823  0.1598  0.0886 -0.1536
  734POPS   PO411088   1.875   8.183   6.129 -0.1171 -0.0717 -0.2378
  734POPS   GL111089   2.095   8.077   6.495  0.0011 -0.0674 -0.1969
  734POPS   GL211090   2.397   7.945   6.530 -0.1919 -0.0067  0.1940
  734POPS   C1A11091   1.930   8.169   6.942 -0.2006  0.0658 -0.0520
  734POPS   D2A11092   1.706   8.286   7.173  0.0409 -0.1189 -0.3701
  734POPS   C3A11093   1.623   8.555   7.565 -0.1304  0.0535 -0.1662
  734POPS   C4A11094   1.809   8.587   8.064  0.1468 -0.0707  0.0170
  734POPS   C1B11095   2.220   7.752   6.844 -0.1073 -0.2013 -0.0326
  734POPS   C2B11096   2.174   7.722   7.284  0.2504 -0.0846  0.1326
  734POPS   C3B11097   2.119   7.750   7.687  0.1315 -0.0087  0.0027
  734POPS   C4B11098   1.998   7.858   8.090 -0.2444  0.0178  0.2290
  735POPS   CNO11099   5.289   5.721   5.997  0.2336 -0.0844 -0.1432
  735POPS   PO411100   5.438   5.855   6.289  0.0777  0.0340 -0.4203
  735POPS   GL111101   5.484   5.532   6.541  0.0985  0.0252 -0.3332
  735POPS   GL211102   5.536   5.638   6.853  0.2554 -0.3338  0.3301
  735POPS   C1A11103   5.532   5.084   6.686 -0.0306 -0.0123  0.0345
  735POPS   D2A11104   5.421   4.740   6.928 -0.2321 -0.4091  0.0231
  735POPS   C3A11105   5.279   4.801   7.368 -0.4474 -0.1721 -0.1156
  735POPS   C4A11106   5.305   4.641   7.811  0.0297  0.0097 -0.3394
  735POPS   C1B11107   5.340   5.879   7.187 -0.1838 -0.0150  0.0679
  735POPS   C2B11108   5.278   6.182   7.503  0.1364 -0.0075  0.1009
  735POPS   C3B11109   5.027   6.250   7.915 -0.0396  0.1970  0.4387
  735POPS   C4B11110   4.866   5.853   8.038 -0.2024  0.1654 -0.2393
  736POPS   CNO11111  16.192   3.391   5.770  0.4522  0.3564 -0.1426
  736POPS   PO411112  15.950   2.963   5.915  0.2545 -0.1499  0.0335
  736POPS   GL111113  15.854   3.214   6.296  0.2638 -0.0025 -0.0297
  736POPS   GL211114  16.090   3.441   6.238  0.2578 -0.0670 -0.0897
  736POPS   C1A11115  15.567   3.211   6.608 -0.0347  0.0073  0.0686
  736POPS   D2A11116  15.534   2.892   6.988  0.1158 -0.3414  0.1302
  736POPS   C3A11117  15.644   3.027   7.431 -0.2803  0.2101  0.6786
  736POPS   C4A11118  15.653   3.292   7.792 -0.3758  0.1990 -0.2544
  736POPS   C1B11119  16.061   3.542   6.675  0.1326  0.1430  0.1663
  736POPS   C2B11120  16.040   3.699   7.083  0.2608 -0.0217 -0.1853
  736POPS   C3B11121  16.054   3.959   7.385  0.0358 -0.1132 -0.1253
  736POPS   C4B11122  16.221   4.173   7.723 -0.0366  0.0180 -0.1648
  737POPS   CNO11123  10.622   6.301   6.573  0.1263  0.1105  0.2892
  737POPS   PO411124  10.602   6.721   6.522  0.3536  0.0038  0.1816
  737POPS   GL111125  10.622   6.619   6.993  0.2735  0.1361  0.2911
  737POPS   GL211126  10.488   6.247   7.046 -0.0066  0.1875 -0.0354
  737POPS   C1A11127  10.741   6.654   7.417  0.0398 -0.2450  0.3985
  737POPS   D2A11128  10.845   6.741   7.832  0.0080 -0.1092 -0.3338
  737POPS   C3A11129  10.916   6.730   8.284 -0.0296  0.0161  0.1793
  737POPS   C4A11130  10.673   6.631   8.602 -0.1198 -0.1623  0.1653
  737POPS   C1B11131  10.588   6.135   7.359 -0.0493 -0.0699 -0.0902
  737POPS   C2B11132  10.731   6.234   7.690 -0.3159 -0.2950  0.0919
  737POPS   C3B11133  11.026   6.289   7.914  0.1339 -0.0372 -0.1321
  737POPS   C4B11134  11.366   6.135   8.159  0.4081  0.1324 -0.0756
  738POPS   CNO11135   8.411   8.997   5.991 -0.2134 -0.1672 -0.1193
  738POPS   PO411136   8.899   9.076   6.201  0.1280 -0.1156  0.0978
  738POPS   GL111137   9.157   9.029   6.498 -0.1749  0.0141 -0.0810
  738POPS   GL211138   9.625   9.241   6.377 -0.4203  0.1614 -0.1746
  738POPS   C1A11139   9.254   9.071   6.932 -0.2727  0.1997 -0.1548
  738POPS   D2A11140   9.166   9.171   7.248  0.0752  0.0179  0.1665
  738POPS   C3A11141   8.893   9.606   7.356 -0.1166 -0.1576  0.2507
  738POPS   C4A11142   8.895   9.994   7.606  0.0462  0.3082 -0.0245
  738POPS   C1B11143   9.741   9.375   6.795 -0.1477 -0.1047 -0.1566
  738POPS   C2B11144   9.982   9.550   7.037  0.1587 -0.1941 -0.1893
  738POPS   C3B11145   9.961   9.584   7.422 -0.2092 -0.0172 -0.0862
  738POPS   C4B11146   9.852   9.597   7.852  0.0490  0.1961 -0.0629
  739POPS   CNO11147  12.125  14.702   6.051 -0.1536 -0.2048  0.2448
  739POPS   PO411148  12.038  14.885   6.429 -0.0434  0.3609  0.1284
  739POPS   GL111149  12.217  14.937   6.733  0.1844 -0.0559 -0.0495
  739POPS   GL211150  12.308  15.250   6.786  0.1234  0.0103 -0.3249
  739POPS   C1A11151  12.461  14.682   7.155  0.0139  0.0718 -0.2177
  739POPS   D2A11152  12.398  14.628   7.580 -0.1734 -0.0051  0.0663
  739POPS   C3A11153  12.583  14.498   8.060 -0.0827 -0.0514 -0.2651
  739POPS   C4A11154  12.840  14.251   8.339  0.0320  0.3137 -0.1356
  739POPS   C1B11155  12.438  15.169   7.116 -0.0077 -0.0564 -0.1500
  739POPS   C2B11156  12.666  15.044   7.503  0.0172 -0.1124 -0.0447
  739POPS   C3B11157  12.899  14.862   7.895 -0.0526 -0.2285 -0.0554
  739POPS   C4B11158  12.888  14.774   8.272 -0.3079  0.2435  0.2310
  740POPS   CNO11159   6.165   0.018   6.089 -0.1515 -0.2316 -0.0144
  740POPS   PO411160   6.031   0.451   6.107  0.3482 -0.1032  0.0580
  740POPS   GL111161   6.070   0.397   6.544 -0.0161  0.1134  0.0685
  740POPS   GL211162   6.291   0.164   6.625 -0.1623  0.1429  0.3336
  740POPS   C1A11163   6.336   0.621   6.840  0.2841  0.1874 -0.0418
  740POPS   D2A11164   6.258   0.658   7.265 -0.1493 -0.0649 -0.0124
  740POPS   C3A11165   6.051   0.584   7.660 -0.0149  0.2928  0.0186
  740POPS   C4A11166   5.837   0.359   8.037 -0.0598 -0.0219  0.3681
  740POPS   C1B11167   6.362   0.215   6.996  0.1468 -0.1021  0.1618
  740POPS   C2B11168   6.221   0.189   7.369  0.3362  0.1236 -0.0352
  740POPS   C3B11169   6.112   0.141   7.750 -0.0834  0.2111  0.1007
  740POPS   C4B11170   6.053  -0.234   8.061  0.0859  0.2747  0.2963
  741POPS   CNO11171   0.244   7.345   5.993 -0.3695 -0.1912  0.1702
  741POPS   PO411172   0.188   7.704   6.177 -0.1933  0.0971 -0.2846
  741POPS   GL111173   0.070   7.873   6.490 -0.1292 -0.1412 -0.0281
  741POPS   GL211174  -0.137   8.118   6.477  0.1578 -0.0240  0.2091
  741POPS   C1A11175  -0.139   7.722   6.837  0.1934  0.0105  0.1243
  741POPS   D2A11176  -0.445   7.475   6.729  0.2755 -0.1612 -0.2242
  741POPS   C3A11177  -0.616   7.159   7.099 -0.2264  0.3691  0.1532
  741POPS   C4A11178  -0.316   7.183   7.522 -0.0051  0.2101 -0.1008
  741POPS   C1B11179   0.065   8.192   6.947  0.2101 -0.2884  0.0151
  741POPS   C2B11180  -0.109   8.019   7.378  0.0570 -0.3606  0.0877
  741POPS   C3B11181  -0.007   7.918   7.705  0.0220  0.1398  0.0052
  741POPS   C4B11182  -0.361   7.863   8.010 -0.0835  0.2223  0.0896
  742POPS   CNO11183   2.239   7.061   6.397  0.3185  0.2810 -0.0866
  742POPS   PO411184   2.205   6.677   6.311  0.0403  0.2452  0.2501
  742POPS   GL111185   2.043   6.673   6.729 -0.2012  0.1323  0.1930
  742POPS   GL211186   2.234   6.910   6.925  0.2249  0.2483 -0.2848
  742POPS   C1A11187   1.964   6.673   7.206 -0.0576  0.0897 -0.2874
  742POPS   D2A11188   2.037   6.695   7.554 -0.0562 -0.0753  0.1531
  742POPS   C3A11189   1.847   6.827   7.885 -0.0578 -0.0016  0.0654
  742POPS   C4A11190   1.510   6.640   8.098 -0.0246  0.1796  0.0507
  742POPS   C1B11191   2.440   6.814   7.287 -0.0056  0.2041 -0.2959
  742POPS   C2B11192   2.650   6.843   7.647 -0.0110  0.2547 -0.2860
  742POPS   C3B11193   2.665   6.754   8.219  0.0107  0.0831  0.0540
  742POPS   C4B11194   2.476   6.809   8.632 -0.0856  0.2867  0.0637
  743POPS   CNO11195  11.483   0.834   6.231  0.0204 -0.0533  0.1461
  743POPS   PO411196  11.451   1.338   6.200  0.1751 -0.0998 -0.4335
  743POPS   GL111197  11.430   1.383   6.570  0.0235  0.1384  0.3233
  743POPS   GL211198  11.453   1.089   6.666 -0.1720  0.1418 -0.1631
  743POPS   C1A11199  11.537   1.584   6.951  0.2307 -0.1611  0.0991
  743POPS   D2A11200  11.473   1.614   7.425 -0.0140 -0.3403 -0.0643
  743POPS   C3A11201  11.274   1.919   7.610 -0.2973  0.0520  0.2541
  743POPS   C4A11202  11.126   2.149   8.003  0.0291 -0.0654  0.0429
  743POPS   C1B11203  11.613   1.148   7.221  0.1540  0.1048 -0.2297
  743POPS   C2B11204  11.395   1.134   7.653  0.0579 -0.2841 -0.1539
  743POPS   C3B11205  11.315   1.213   8.128  0.2236 -0.0190 -0.0402
  743POPS   C4B11206  11.232   0.859   8.464  0.0895  0.0053 -0.0931
  744POPS   CNO11207  13.208   8.197   6.512  0.0516 -0.1729 -0.1772
  744POPS   PO411208  13.340   7.867   6.567 -0.2057 -0.5179 -0.0100
  744POPS   GL111209  13.569   7.658   6.875  0.0466 -0.0972 -0.0494
  744POPS   GL211210  13.762   7.275   6.805  0.1727 -0.2873 -0.1396
  744POPS   C1A11211  13.531   7.585   7.361 -0.0886  0.0467  0.0678
  744POPS   D2A11212  13.678   7.517   7.829 -0.3195 -0.0010  0.1479
  744POPS   C3A11213  13.514   7.425   8.231 -0.2926 -0.1640 -0.1860
  744POPS   C4A11214  13.401   7.522   8.558  0.4328 -0.1049  0.2360
  744POPS   C1B11215  13.655   7.165   7.124  0.1478  0.1661  0.1950
  744POPS   C2B11216  13.788   7.110   7.546 -0.0979  0.2019  0.0265
  744POPS   C3B11217  13.714   7.018   8.017 -0.0166  0.0917  0.1094
  744POPS   C4B11218  13.796   6.648   8.229 -0.2005 -0.2527 -0.2823
  745POPS   CNO11219   6.189   7.687   6.294  0.3714 -0.1190  0.0730
  745POPS   PO411220   6.507   8.024   6.567 -0.1205 -0.0242 -0.2473
  745POPS   GL111221   6.204   7.894   6.771  0.0755 -0.1728  0.2736
  745POPS   GL211222   6.424   7.561   6.756  0.2583 -0.2021  0.0159
  745POPS   C1A11223   6.114   7.731   7.123  0.0722 -0.0317  0.1121
  745POPS   D2A11224   5.863   7.693   7.496 -0.2605  0.2185 -0.0273
  745POPS   C3A11225   6.116   7.633   7.781 -0.2336 -0.0962  0.0424
  745POPS   C4A11226   6.450   7.518   8.078 -0.2163 -0.2926  0.1373
  745POPS   C1B11227   6.539   7.551   7.167  0.0043 -0.0430 -0.1544
  745POPS   C2B11228   6.626   7.588   7.564 -0.0046 -0.3790  0.0587
  745POPS   C3B11229   6.919   7.487   7.742 -0.2416  0.2175 -0.2929
  745POPS   C4B11230   7.159   7.162   7.939  0.0727  0.3097 -0.2262
  746POPS   CNO11231  13.375  17.225   5.846 -0.0877  0.1948  0.1676
  746POPS   PO411232  13.652  16.911   6.131  0.1588  0.1278  0.1564
  746POPS   GL111233  13.536  16.893   6.572 -0.3214 -0.1922  0.3550
  746POPS   GL211234  13.457  16.636   6.715  0.0104 -0.0640  0.0763
  746POPS   C1A11235  13.403  17.215   6.867 -0.2625  0.0713  0.1403
  746POPS   D2A11236  13.481  17.338   7.246 -0.0746 -0.0870  0.0553
  746POPS   C3A11237  13.567  17.247   7.707  0.1659 -0.1575 -0.1930
  746POPS   C4A11238  13.600  17.142   8.013 -0.4344 -0.0430 -0.1651
  746POPS   C1B11239  13.689  16.822   7.087 -0.3484  0.0619 -0.5552
  746POPS   C2B11240  13.730  16.830   7.483  0.1648  0.1969 -0.2700
  746POPS   C3B11241  13.825  16.708   7.969  0.0061 -0.0549 -0.1200
  746POPS   C4B11242  13.696  16.788   8.390 -0.4246 -0.0230 -0.1253
  747POPS   CNO11243   0.092   1.508   5.329 -0.0224  0.1567 -0.0542
  747POPS   PO411244  -0.002   1.240   5.712 -0.2478 -0.1249 -0.0283
  747POPS   GL111245  -0.098   1.169   6.129  0.1408 -0.1510 -0.0719
  747POPS   GL211246   0.110   0.983   6.358  0.2342 -0.3053  0.4372
  747POPS   C1A11247  -0.448   0.968   6.454 -0.0786 -0.0615  0.0913
  747POPS   D2A11248  -0.553   0.861   6.897  0.2884  0.1278 -0.4108
  747POPS   C3A11249  -0.218   0.663   7.296 -0.0711  0.0607  0.0742
  747POPS   C4A11250   0.020   0.324   7.426  0.2759  0.4186  0.2053
  747POPS   C1B11251  -0.082   0.960   6.794  0.0252 -0.3496 -0.0696
  747POPS   C2B11252  -0.192   1.149   7.201 -0.0123  0.1491  0.1100
  747POPS   C3B11253  -0.274   1.161   7.650  0.1154  0.0766  0.0402
  747POPS   C4B11254  -0.360   1.023   8.061  0.1306  0.0906  0.3025
  748POPS   CNO11255   9.742  14.141   6.063 -0.0441  0.1759  0.1217
  748POPS   PO411256  10.028  14.335   6.051 -0.0989 -0.0458  0.0757
  748POPS   GL111257  10.118  14.285   6.466  0.0274  0.0142 -0.4756
  748POPS   GL211258   9.935  14.386   6.592 -0.2532 -0.0791  0.0955
  748POPS   C1A11259  10.386  14.176   6.736 -0.0974  0.1644 -0.0270
  748POPS   D2A11260  10.467  13.987   7.141  0.1418  0.0865 -0.1995
  748POPS   C3A11261  10.371  13.939   7.636 -0.0207  0.2077  0.2538
  748POPS   C4A11262  10.465  14.029   7.964  0.2958 -0.2144 -0.3832
  748POPS   C1B11263  10.103  14.470   6.986 -0.2036 -0.2126 -0.1806
  748POPS   C2B11264  10.171  14.465   7.441  0.1272 -0.1272  0.4102
  748POPS   C3B11265  10.220  14.513   7.876 -0.0308  0.1372  0.1545
  748POPS   C4B11266   9.883  14.673   8.146  0.1168 -0.0666  0.1676
  749POPS   CNO11267   4.062   3.930   5.654 -0.1205 -0.0474 -0.3403
  749POPS   PO411268   3.812   4.190   6.081 -0.0320 -0.0656  0.1288
  749POPS   GL111269   3.804   4.155   6.467  0.0123  0.3342  0.0893
  749POPS   GL211270   3.658   3.852   6.592 -0.1412  0.3605  0.1663
  749POPS   C1A11271   3.840   4.364   6.830 -0.1274 -0.1957 -0.0759
  749POPS   D2A11272   3.878   4.459   7.178  0.1241  0.1206 -0.3859
  749POPS   C3A11273   3.817   4.296   7.578  0.0834  0.1032  0.2534
  749POPS   C4A11274   3.796   4.311   8.036 -0.0068  0.3205  0.1535
  749POPS   C1B11275   3.775   3.890   7.082 -0.0462 -0.0812  0.0205
  749POPS   C2B11276   3.721   3.811   7.608  0.0407  0.0836  0.0746
  749POPS   C3B11277   3.595   3.805   8.028  0.3027 -0.0492 -0.0649
  749POPS   C4B11278   3.404   3.684   8.409  0.0438 -0.1396 -0.1015
  750POPS   CNO11279   0.765  17.217   6.006  0.1524  0.1127  0.2541
  750POPS   PO411280   0.435  17.255   6.167  0.2299 -0.0021  0.1766
  750POPS   GL111281   0.665  17.398   6.476 -0.1750  0.3252  0.1163
  750POPS   GL211282   0.566  17.713   6.452  0.1014 -0.0010  0.0874
  750POPS   C1A11283   0.846  17.316   6.828 -0.2136  0.0740 -0.0729
  750POPS   D2A11284   0.756  17.380   7.248  0.1652 -0.0534  0.1749
  750POPS   C3A11285   0.784  17.610   7.657 -0.2419  0.1655 -0.1106
  750POPS   C4A11286   0.815  17.170   8.011 -0.2248 -0.0659  0.0536
  750POPS   C1B11287   0.647  17.773   6.874 -0.1848  0.1439 -0.2566
  750POPS   C2B11288   0.828  17.898   7.228  0.1172 -0.0019  0.1429
  750POPS   C3B11289   0.897  18.035   7.729  0.0390  0.3356  0.0329
  750POPS   C4B11290   0.793  18.246   8.147  0.0131  0.0349 -0.0990
  751POPS   CNO11291  16.819   1.688   5.139 -0.0693  0.0299  0.0165
  751POPS   PO411292  16.733   1.756   5.574 -0.2258 -0.1463 -0.1301
  751POPS   GL111293  16.970   1.628   5.919 -0.2323 -0.2823 -0.1321
  751POPS   GL211294  16.975   1.351   5.985  0.2753  0.2672 -0.1033
  751POPS   C1A11295  17.001   1.919   6.255  0.0945 -0.3652 -0.0656
  751POPS   D2A11296  16.971   1.847   6.749  0.2258 -0.0765 -0.1126
  751POPS   C3A11297  16.639   1.502   6.765  0.2466  0.0226 -0.3847
  751POPS   C4A11298  16.353   1.144   6.739  0.3956  0.0306 -0.0385
  751POPS   C1B11299  16.908   1.085   6.316  0.0826 -0.4818  0.1175
  751POPS   C2B11300  16.835   0.928   6.659  0.0507 -0.4367 -0.2088
  751POPS   C3B11301  16.704   1.031   7.193  0.0405  0.3057 -0.0362
  751POPS   C4B11302  16.875   0.983   7.654 -0.1203 -0.2171 -0.3511
  752YOPS   CNO11303  15.844   9.443   6.173 -0.2279  0.3172 -0.1228
  752YOPS   PO411304  15.781   9.678   6.457  0.1295  0.3279 -0.0273
  752YOPS   GL111305  15.800   9.427   6.857 -0.2165  0.2939  0.0283
  752YOPS   GL211306  16.019   9.250   6.896 -0.0566 -0.0111  0.1144
  752YOPS   C1A11307  15.513   9.303   7.169 -0.0087  0.1961 -0.0653
  752YOPS   D2A11308  15.292   9.108   7.450 -0.0084  0.0473  0.0936
  752YOPS   C3A11309  14.868   8.950   7.477  0.0704  0.2259  0.1794
  752YOPS   C4A11310  14.714   8.782   7.882 -0.3592  0.1962  0.1228
  752YOPS   C1B11311  15.958   9.102   7.316 -0.1098 -0.0274  0.2371
  752YOPS   C2B11312  15.762   8.983   7.682 -0.2248 -0.0437 -0.0155
  752YOPS   D3B11313  16.022   9.099   8.053  0.0811 -0.1538  0.2097
  752YOPS   C4B11314  16.334   8.755   8.300 -0.0013 -0.1527  0.2599
  753YOPS   CNO11315  13.176   0.343   6.193  0.2717  0.2219 -0.0361
  753YOPS   PO411316  12.902   0.131   6.267  0.0111 -0.1017 -0.0466
  753YOPS   GL111317  12.784   0.027   6.728 -0.0341 -0.2779 -0.0668
  753YOPS   GL211318  12.564   0.282   6.950 -0.2673  0.0843 -0.0064
  753YOPS   C1A11319  12.874   0.015   7.219 -0.3144  0.0365 -0.0028
  753YOPS   D2A11320  12.973   0.055   7.616  0.2031  0.3456  0.0200
  753YOPS   C3A11321  13.256   0.185   7.937 -0.0049 -0.0936 -0.2300
  753YOPS   C4A11322  13.326   0.202   8.313 -0.0245  0.1585 -0.1463
  753YOPS   C1B11323  12.542   0.312   7.401 -0.1968 -0.0326 -0.0392
  753YOPS   C2B11324  12.500   0.351   7.787 -0.0039  0.0143  0.1984
  753YOPS   D3B11325  12.749   0.067   8.126  0.2381 -0.0443  0.2263
  753YOPS   C4B11326  12.720   0.148   8.546  0.5563  0.0280 -0.0086
  754YOPS   CNO11327   1.523  11.475   5.884  0.0924  0.1617 -0.3095
  754YOPS   PO411328   1.406  11.974   5.944  0.1294  0.2513  0.4052
  754YOPS   GL111329   1.439  11.833   6.295  0.2441  0.0443 -0.1941
  754YOPS   GL211330   1.715  11.512   6.364  0.1468  0.2337 -0.0699
  754YOPS   C1A11331   1.481  11.604   6.760  0.0379  0.2201  0.1997
  754YOPS   D2A11332   1.521  11.719   7.175 -0.1795 -0.3537  0.0628
  754YOPS   C3A11333   1.625  11.675   7.590  0.2258  0.1477  0.1140
  754YOPS   C4A11334   1.413  11.762   7.910  0.1230  0.2072  0.1623
  754YOPS   C1B11335   1.943  11.450   6.696 -0.0145 -0.2172 -0.1716
  754YOPS   C2B11336   1.833  11.258   7.111 -0.0592  0.2373  0.0318
  754YOPS   D3B11337   1.632  11.142   7.519 -0.0152 -0.0427 -0.1070
  754YOPS   C4B11338   1.693  11.341   7.959  0.0381 -0.0911 -0.0290
  755YOPS   CNO11339  10.108  16.389   6.018  0.5018 -0.0964 -0.4345
  755YOPS   PO411340  10.419  16.380   6.319 -0.2012 -0.1261  0.1098
  755YOPS   GL111341  10.223  16.273   6.682  0.2881 -0.1063 -0.0165
  755YOPS   GL211342   9.889  16.409   6.683  0.1322  0.0511 -0.0675
  755YOPS   C1A11343  10.122  15.936   6.872 -0.0089 -0.0176 -0.2619
  755YOPS   D2A11344   9.815  15.770   7.271  0.0975 -0.0655  0.1244
  755YOPS   C3A11345   9.788  15.560   7.587 -0.2424  0.1831  0.2176
  755YOPS   C4A11346  10.171  15.391   7.612  0.0067 -0.1807 -0.0839
  755YOPS   C1B11347   9.829  16.312   7.156 -0.1166 -0.1686  0.1326
  755YOPS   C2B11348   9.920  16.380   7.591  0.0934  0.2348  0.2741
  755YOPS   D3B11349   9.735  16.388   8.017  0.0887 -0.0224  0.1607
  755YOPS   C4B11350   9.440  16.521   8.101 -0.1164 -0.0563  0.0591
  756YOPS   CNO11351   4.100   5.185   6.466 -0.3546 -0.1191  0.1047
  756YOPS   PO411352   3.688   5.062   6.215 -0.1319 -0.1242  0.1531
  756YOPS   GL111353   3.539   5.155   6.602 -0.0306  0.2918 -0.2167
  756YOPS   GL211354   3.236   5.120   6.675 -0.0973 -0.1420 -0.0119
  756YOPS   C1A11355   3.669   5.285   6.970  0.2161 -0.0195  0.0315
  756YOPS   D2A11356   3.727   5.429   7.442 -0.0121  0.0514 -0.0689
  756YOPS   C3A11357   3.789   5.144   7.789 -0.0838 -0.1402  0.0085
  756YOPS   C4A11358   3.952   4.739   7.852 -0.4022  0.3155  0.1311
  756YOPS   C1B11359   3.239   5.087   7.120  0.1991 -0.0955 -0.0087
  756YOPS   C2B11360   3.246   5.113   7.687  0.3032 -0.0751 -0.0728
  756YOPS   D3B11361   3.240   5.129   8.114 -0.1001 -0.1923  0.3165
  756YOPS   C4B11362   2.940   5.031   8.374 -0.1117 -0.2910  0.0672
  757YOPS   CNO11363  15.541  14.368   6.057 -0.0618  0.0944  0.2345
  757YOPS   PO411364  15.525  14.036   6.112  0.4030  0.0565 -0.2679
  757YOPS   GL111365  15.898  14.165   6.383  0.0922  0.1641  0.2021
  757YOPS   GL211366  16.194  13.927   6.461  0.0836  0.1136 -0.3093
  757YOPS   C1A11367  16.109  14.562   6.548  0.0126 -0.0366  0.2560
  757YOPS   D2A11368  16.016  14.841   6.865  0.2213 -0.0181  0.0941
  757YOPS   C3A11369  15.809  14.927   7.152 -0.2959  0.2609 -0.0640
  757YOPS   C4A11370  15.729  14.904   7.605 -0.0881 -0.0771  0.0361
  757YOPS   C1B11371  16.224  13.723   6.864 -0.1486 -0.2503  0.2026
  757YOPS   C2B11372  16.432  13.601   7.243  0.0117  0.0162  0.1860
  757YOPS   D3B11373  16.711  13.549   7.576 -0.2193  0.0046 -0.0037
  757YOPS   C4B11374  16.709  13.655   8.004  0.0414 -0.0638 -0.0700
  758YOPS   CNO11375   6.780  16.326   5.747  0.1083 -0.2740  0.1522
  758YOPS   PO411376   6.462  16.155   5.862  0.1261 -0.2383  0.0271
  758YOPS   GL111377   6.660  16.049   6.143 -0.2279 -0.0969  0.2257
  758YOPS   GL211378   6.322  16.114   6.353 -0.0941 -0.2458 -0.1779
  758YOPS   C1A11379   6.819  16.098   6.543  0.0743 -0.1388 -0.2269
  758YOPS   D2A11380   6.911  16.308   6.978  0.1160 -0.0238  0.2543
  758YOPS   C3A11381   6.751  16.197   7.365  0.2868  0.0970 -0.1483
  758YOPS   C4A11382   6.455  16.463   7.613  0.0960  0.0218 -0.1208
  758YOPS   C1B11383   5.965  16.106   6.730  0.0490  0.0909  0.0031
  758YOPS   C2B11384   5.735  16.199   7.097 -0.1026  0.0787  0.0004
  758YOPS   D3B11385   5.473  16.163   7.515  0.1895 -0.2011 -0.1685
  758YOPS   C4B11386   5.613  16.376   7.938 -0.3163  0.1613 -0.0185
  759YOPS   CNO11387   6.843  10.615   5.699 -0.0308 -0.0176 -0.0090
  759YOPS   PO411388   6.939  10.703   6.121  0.1071  0.1614 -0.1166
  759YOPS   GL111389   6.876  10.630   6.532  0.0512  0.0472 -0.1899
  759YOPS   GL211390   6.884  10.329   6.712 -0.0988 -0.1669 -0.2985
  759YOPS   C1A11391   6.669  10.773   6.876  0.0621  0.0357 -0.3523
  759YOPS   D2A11392   6.636  10.761   7.348 -0.0353  0.0593 -0.1654
  759YOPS   C3A11393   6.539  10.798   7.736 -0.0130 -0.0887  0.1194
  759YOPS   C4A11394   6.259  10.513   8.029 -0.2723 -0.1441  0.0325
  759YOPS   C1B11395   6.692  10.298   7.117  0.0913  0.0500 -0.2092
  759YOPS   C2B11396   6.758  10.185   7.509  0.0708  0.3476  0.1177
  759YOPS   D3B11397   6.897   9.961   7.847 -0.0228 -0.0920 -0.1185
  759YOPS   C4B11398   6.715   9.998   8.263 -0.0788 -0.0419 -0.2063
  760YOPS   CNO11399  12.099  16.597   6.480 -0.0776 -0.1169 -0.0853
  760YOPS   PO411400  11.675  16.416   6.442  0.0109 -0.2968 -0.1052
  760YOPS   GL111401  11.662  16.448   6.917 -0.0836  0.0026  0.0094
  760YOPS   GL211402  11.742  16.259   7.070 -0.3683  0.1297  0.0140
  760YOPS   C1A11403  11.466  16.551   7.331  0.1165  0.3593 -0.0167
  760YOPS   D2A11404  11.471  16.620   7.660 -0.1407  0.0182  0.0882
  760YOPS   C3A11405  11.588  16.584   8.061  0.2395  0.0223 -0.1750
  760YOPS   C4A11406  11.966  16.736   8.010  0.2967 -0.2785  0.1643
  760YOPS   C1B11407  11.834  16.177   7.488  0.0539  0.2121 -0.0599
  760YOPS   C2B11408  11.888  16.231   7.939  0.0459  0.2847 -0.0767
  760YOPS   D3B11409  11.673  16.250   8.408 -0.0006  0.1667 -0.2635
  760YOPS   C4B11410  11.353  16.023   8.721  0.0860  0.2138  0.0831
  761YOPS   CNO11411  15.816  16.819   5.516  0.2378  0.0439 -0.1035
  761YOPS   PO411412  15.655  16.552   5.908  0.1746  0.3555 -0.0636
  761YOPS   GL111413  15.745  16.592   6.325  0.1084 -0.2974 -0.1085
  761YOPS   GL211414  15.574  16.329   6.421 -0.2758  0.2430  0.2024
  761YOPS   C1A11415  15.649  16.802   6.683 -0.0339 -0.3056 -0.0615
  761YOPS   D2A11416  15.471  16.926   7.092  0.1576  0.2996 -0.0895
  761YOPS   C3A11417  15.315  17.003   7.488 -0.3320 -0.2642 -0.0533
  761YOPS   C4A11418  15.325  16.707   7.832  0.0194 -0.1478 -0.0763
  761YOPS   C1B11419  15.646  16.315   6.874 -0.0311 -0.0951 -0.1393
  761YOPS   C2B11420  15.836  16.535   7.211 -0.2191 -0.2276 -0.1139
  761YOPS   D3B11421  15.710  16.710   7.520 -0.1472  0.0682  0.0681
  761YOPS   C4B11422  15.802  16.585   7.925  0.0229  0.0476 -0.2755
  762YOPS   CNO11423  13.227   9.332   5.763 -0.0702 -0.0169 -0.1230
  762YOPS   PO411424  13.478   9.591   5.995 -0.0754 -0.0930  0.0942
  762YOPS   GL111425  13.534   9.608   6.462 -0.2349 -0.0051  0.0662
  762YOPS   GL211426  13.155   9.544   6.551 -0.2107 -0.0629 -0.0263
  762YOPS   C1A11427  13.482   9.669   6.914  0.0775  0.1530  0.0470
  762YOPS   D2A11428  13.329   9.795   7.201  0.1884 -0.1747 -0.0114
  762YOPS   C3A11429  13.195  10.000   7.482  0.4093 -0.3162 -0.0501
  762YOPS   C4A11430  13.100   9.832   7.829 -0.3508 -0.0942 -0.2131
  762YOPS   C1B11431  13.029   9.832   6.829 -0.0806 -0.0133 -0.2081
  762YOPS   C2B11432  12.796  10.065   7.083  0.2021  0.2788 -0.0031
  762YOPS   D3B11433  12.750  10.255   7.495  0.1262  0.0864 -0.1168
  762YOPS   C4B11434  12.711  10.387   7.949 -0.2553  0.2338  0.0331
  763YOPS   CNO11435   4.685   4.901   5.756  0.2311  0.1278  0.1468
  763YOPS   PO411436   4.594   4.606   6.094 -0.1465  0.0809  0.3064
  763YOPS   GL111437   4.423   4.702   6.505 -0.1755  0.1220 -0.2854
  763YOPS   GL211438   4.302   4.401   6.647 -0.1509 -0.0245  0.2036
  763YOPS   C1A11439   4.160   4.904   6.879 -0.2748 -0.1378  0.0758
  763YOPS   D2A11440   3.955   4.899   7.312  0.0374  0.0828 -0.3890
  763YOPS   C3A11441   3.546   4.847   7.413 -0.1942 -0.2526 -0.1039
  763YOPS   C4A11442   3.474   4.633   7.731  0.1403  0.1013 -0.3000
  763YOPS   C1B11443   4.368   4.443   7.060  0.2057  0.2694  0.1317
  763YOPS   C2B11444   4.290   4.515   7.564 -0.0604  0.0714 -0.0510
  763YOPS   D3B11445   4.285   4.446   7.943  0.2416 -0.1139  0.1845
  763YOPS   C4B11446   4.405   4.824   8.237 -0.1204 -0.1315 -0.0014
  764YOPS   CNO11447  10.377   6.248   6.124  0.0550 -0.1247 -0.0180
  764YOPS   PO411448  10.134   6.552   6.275 -0.1061 -0.2086 -0.0853
  764YOPS   GL111449  10.095   6.491   6.703  0.1898  0.1177  0.0928
  764YOPS   GL211450   9.816   6.697   6.729 -0.0329 -0.0998  0.0955
  764YOPS   C1A11451  10.164   6.580   7.189  0.2380  0.1539 -0.0471
  764YOPS   D2A11452  10.278   6.585   7.594 -0.2990 -0.0527  0.2517
  764YOPS   C3A11453  10.362   6.711   7.962  0.0168  0.0102 -0.1536
  764YOPS   C4A11454  10.527   6.296   8.152 -0.2888  0.0236 -0.0206
  764YOPS   C1B11455   9.654   6.548   7.185 -0.0545  0.0926 -0.1939
  764YOPS   C2B11456   9.542   6.546   7.578  0.0693  0.2269 -0.2013
  764YOPS   D3B11457   9.638   6.294   7.844 -0.0892  0.1139 -0.0459
  764YOPS   C4B11458   9.522   6.170   8.278  0.1209  0.0073 -0.1753
  765YOPS   CNO11459   6.925   3.237   6.123 -0.1357  0.1268 -0.1179
  765YOPS   PO411460   7.276   3.486   6.184 -0.0874  0.0742  0.3312
  765YOPS   GL111461   7.266   3.642   6.628  0.0019  0.1119  0.1715
  765YOPS   GL211462   7.467   3.770   6.810  0.1665  0.0404 -0.1364
  765YOPS   C1A11463   7.068   3.464   7.031  0.1816  0.0999 -0.5051
  765YOPS   D2A11464   7.145   3.435   7.405 -0.0187 -0.1155  0.1283
  765YOPS   C3A11465   7.181   3.324   7.763  0.0120 -0.1953 -0.2402
  765YOPS   C4A11466   6.935   3.043   7.875  0.0939  0.0117 -0.2750
  765YOPS   C1B11467   7.450   3.763   7.223  0.1173 -0.3246  0.2364
  765YOPS   C2B11468   7.576   3.684   7.581 -0.0734 -0.0232 -0.0009
  765YOPS   D3B11469   7.769   3.997   7.832  0.0141  0.3319 -0.4058
  765YOPS   C4B11470   7.790   4.069   8.212  0.2621  0.0808  0.2980
  766YOPS   CNO11471   1.840  13.505   5.670 -0.3138  0.1447  0.0258
  766YOPS   PO411472   1.575  13.594   5.950 -0.0555  0.0065  0.0699
  766YOPS   GL111473   1.445  13.812   6.388  0.0932 -0.0192 -0.0137
  766YOPS   GL211474   1.549  14.114   6.455  0.2307  0.0191  0.0940
  766YOPS   C1A11475   1.491  13.766   6.808 -0.0905 -0.3328 -0.1433
  766YOPS   D2A11476   1.419  13.440   7.180 -0.1369  0.1621 -0.1380
  766YOPS   C3A11477   1.531  13.194   7.488 -0.2058  0.0916 -0.0322
  766YOPS   C4A11478   1.826  13.277   7.652 -0.1603  0.0271  0.1542
  766YOPS   C1B11479   1.697  14.204   6.935 -0.4048 -0.0841  0.3264
  766YOPS   C2B11480   1.587  13.933   7.265  0.1117 -0.0230  0.0795
  766YOPS   D3B11481   1.508  13.685   7.617 -0.0707  0.4590  0.1418
  766YOPS   C4B11482   1.655  13.612   7.991  0.0251 -0.0388 -0.2108
  767YOPS   CNO11483  10.102   1.720   5.894 -0.0471 -0.1142  0.0999
  767YOPS   PO411484  10.470   1.895   6.045 -0.0480  0.1265  0.2969
  767YOPS   GL111485  10.274   1.871   6.427 -0.1255 -0.5058 -0.0560
  767YOPS   GL211486  10.470   2.086   6.746 -0.0082  0.0238  0.1340
  767YOPS   C1A11487  10.217   1.665   6.735 -0.0848  0.1487 -0.2052
  767YOPS   D2A11488  10.142   1.548   7.098 -0.1902  0.3013 -0.1319
  767YOPS   C3A11489  10.101   1.095   7.098  0.1547 -0.0957 -0.0185
  767YOPS   C4A11490   9.698   0.843   7.293  0.2626  0.3307  0.0395
  767YOPS   C1B11491  10.445   1.956   7.105  0.0125  0.1259  0.0410
  767YOPS   C2B11492  10.422   1.752   7.506  0.0878  0.2064 -0.2664
  767YOPS   D3B11493  10.159   1.774   7.818  0.0409  0.0668  0.0101
  767YOPS   C4B11494   9.726   1.550   7.908 -0.3768 -0.1426  0.0553
  768YOPS   CNO11495  14.423  11.971   6.483  0.2753  0.2397  0.0707
  768YOPS   PO411496  14.234  12.387   6.328 -0.0507 -0.0820 -0.0658
  768YOPS   GL111497  14.384  12.537   6.594 -0.3622  0.0423 -0.1892
  768YOPS   GL211498  14.272  12.702   6.815  0.1072 -0.1019  0.1113
  768YOPS   C1A11499  14.742  12.797   6.870  0.2250 -0.2439 -0.0445
  768YOPS   D2A11500  14.851  12.946   7.235 -0.1447 -0.1024  0.2867
  768YOPS   C3A11501  14.770  13.151   7.617  0.2700 -0.0143 -0.2912
  768YOPS   C4A11502  15.010  13.569   7.545 -0.0628  0.3417 -0.1871
  768YOPS   C1B11503  14.418  12.748   7.255 -0.0400 -0.0178 -0.1995
  768YOPS   C2B11504  14.374  12.924   7.742  0.1524  0.0510 -0.1784
  768YOPS   D3B11505  14.344  12.796   8.148 -0.1084 -0.1223 -0.0828
  768YOPS   C4B11506  14.279  13.112   8.338  0.1229 -0.1156 -0.0478
  769YOPS   CNO11507   4.882   2.886   5.884  0.0467 -0.0360  0.0932
  769YOPS   PO411508   4.536   2.886   6.042 -0.0624 -0.1253 -0.1948
  769YOPS   GL111509   4.620   2.904   6.436  0.0725  0.3205 -0.3571
  769YOPS   GL211510   4.507   3.242   6.516 -0.0928 -0.2855 -0.0037
  769YOPS   C1A11511   4.629   2.726   6.837 -0.1544  0.2129 -0.1144
  769YOPS   D2A11512   4.688   2.691   7.229  0.0535  0.0086  0.1583
  769YOPS   C3A11513   4.990   2.461   7.564 -0.0909  0.0879 -0.2573
  769YOPS   C4A11514   5.225   2.011   7.655  0.2945 -0.5222 -0.1638
  769YOPS   C1B11515   4.515   3.183   6.953  0.0055  0.0267  0.2731
  769YOPS   C2B11516   4.591   3.175   7.390 -0.0759 -0.0411  0.0652
  769YOPS   D3B11517   4.766   3.256   7.871 -0.0472  0.2355 -0.0223
  769YOPS   C4B11518   4.757   2.980   8.216  0.0955  0.0829 -0.3618
  770YOPS   CNO11519   2.662  13.666   5.698  0.0865  0.0712 -0.1172
  770YOPS   PO411520   2.705  13.293   5.830  0.0460 -0.2244 -0.1260
  770YOPS   GL111521   2.742  12.986   6.245  0.0540  0.0106  0.1381
  770YOPS   GL211522   3.031  13.135   6.351  0.0608 -0.0360 -0.0522
  770YOPS   C1A11523   2.708  12.882   6.685 -0.0902 -0.1199  0.0961
  770YOPS   D2A11524   2.713  12.444   6.811 -0.0006  0.0534 -0.1127
  770YOPS   C3A11525   2.681  12.129   6.988 -0.0233  0.2561 -0.1365
  770YOPS   C4A11526   2.592  11.689   7.146  0.1930  0.2565 -0.1474
  770YOPS   C1B11527   2.886  13.338   6.740 -0.1979  0.1169 -0.2034
  770YOPS   C2B11528   2.851  13.465   7.135 -0.2856 -0.0147  0.0255
  770YOPS   D3B11529   2.899  13.603   7.586  0.1012 -0.2709  0.1181
  770YOPS   C4B11530   2.659  13.721   7.852  0.2804 -0.4789 -0.0782
  771YOPS   CNO11531  15.669   7.944   5.683  0.0346  0.1188 -0.3151
  771YOPS   PO411532  15.672   7.468   5.805 -0.1333 -0.0533 -0.1480
  771YOPS   GL111533  15.600   7.298   6.201 -0.2864 -0.2784 -0.5136
  771YOPS   GL211534  15.449   7.497   6.411  0.3513  0.1437  0.2074
  771YOPS   C1A11535  15.444   7.078   6.687 -0.0506  0.0359 -0.1492
  771YOPS   D2A11536  15.117   7.036   7.081  0.0867 -0.2036 -0.1081
  771YOPS   C3A11537  14.930   6.796   7.343  0.2796 -0.1299  0.0675
  771YOPS   C4A11538  14.653   6.784   7.091 -0.3010 -0.0278 -0.0625
  771YOPS   C1B11539  15.183   7.469   6.817  0.2308 -0.3340  0.1729
  771YOPS   C2B11540  15.017   7.595   7.261 -0.2557  0.1521  0.1652
  771YOPS   D3B11541  15.032   7.672   7.709  0.1042  0.1920 -0.0155
  771YOPS   C4B11542  14.696   7.378   7.893  0.1024  0.0873  0.1820
  772YOPS   CNO11543   9.352  11.267   5.732  0.1378 -0.2566  0.2411
  772YOPS   PO411544   9.420  11.081   6.094  0.3158 -0.2128  0.0778
  772YOPS   GL111545   9.451  10.905   6.519 -0.3700  0.0332  0.0328
  772YOPS   GL211546   9.276  11.093   6.628 -0.1786  0.3134 -0.2364
  772YOPS   C1A11547   9.721  10.997   6.836 -0.0696 -0.0232 -0.0620
  772YOPS   D2A11548   9.919  10.967   7.163  0.2138 -0.1152  0.3336
  772YOPS   C3A11549   9.965  10.985   7.523  0.3112  0.0382  0.0694
  772YOPS   C4A11550  10.315  11.012   7.858 -0.1874 -0.0205 -0.0588
  772YOPS   C1B11551   9.282  10.898   7.060  0.1510 -0.1650 -0.0811
  772YOPS   C2B11552   9.190  10.767   7.526 -0.1165 -0.1615 -0.0587
  772YOPS   D3B11553   9.060  10.726   8.018 -0.1522  0.0562 -0.2184
  772YOPS   C4B11554   8.778  10.313   8.066  0.1257  0.1194  0.1168
  773YOPS   CNO11555   3.956   8.151   5.657  0.1745 -0.2343 -0.0415
  773YOPS   PO411556   3.687   7.950   5.813 -0.0889  0.0715 -0.1605
  773YOPS   GL111557   3.537   7.800   6.158  0.1940  0.0891 -0.1455
  773YOPS   GL211558   3.733   7.569   6.313 -0.1335  0.1169  0.0716
  773YOPS   C1A11559   3.515   8.029   6.599  0.2589  0.0842 -0.1449
  773YOPS   D2A11560   3.349   8.127   7.015  0.2331 -0.3696  0.0909
  773YOPS   C3A11561   3.043   8.066   7.379 -0.3428  0.0033 -0.1159
  773YOPS   C4A11562   3.015   7.945   7.800 -0.3671  0.1559  0.2533
  773YOPS   C1B11563   3.528   7.528   6.698 -0.0727 -0.0266  0.1291
  773YOPS   C2B11564   3.257   7.570   6.885  0.0023  0.1019 -0.0860
  773YOPS   D3B11565   3.128   7.600   7.311 -0.0744 -0.0064  0.0774
  773YOPS   C4B11566   3.307   7.481   7.718  0.2302  0.2352 -0.0104
  774YOPS   CNO11567   6.897   5.082   6.487  0.1254  0.1089  0.0204
  774YOPS   PO411568   6.772   4.549   6.332  0.1326 -0.3012  0.1618
  774YOPS   GL111569   6.907   4.608   6.753 -0.0140 -0.2382  0.1484
  774YOPS   GL211570   7.183   4.815   6.928 -0.1284 -0.1716 -0.0678
  774YOPS   C1A11571   6.824   4.326   7.157 -0.0496 -0.0698 -0.1978
  774YOPS   D2A11572   6.907   3.956   7.448 -0.3323 -0.0840 -0.2361
  774YOPS   C3A11573   7.047   3.772   7.795 -0.0743  0.1239  0.0114
  774YOPS   C4A11574   6.863   3.720   8.208 -0.1703  0.0879  0.0969
  774YOPS   C1B11575   7.158   4.697   7.304 -0.2969 -0.3395 -0.0713
  774YOPS   C2B11576   6.982   4.526   7.665 -0.0769 -0.0834  0.1139
  774YOPS   D3B11577   6.829   4.220   8.096 -0.2459  0.1904 -0.2121
  774YOPS   C4B11578   6.491   4.099   8.243  0.0180  0.4130 -0.0546
  775YOPS   CNO11579  12.548  14.817   5.787 -0.1671 -0.2203  0.0287
  775YOPS   PO411580  12.643  14.425   6.068  0.0894  0.0350 -0.0020
  775YOPS   GL111581  12.729  14.347   6.426  0.1132 -0.0060 -0.1324
  775YOPS   GL211582  12.794  14.033   6.581  0.3642 -0.1403  0.0328
  775YOPS   C1A11583  12.851  14.397   6.867  0.1852 -0.2854  0.2003
  775YOPS   D2A11584  12.879  14.429   7.264  0.0957 -0.0580 -0.1647
  775YOPS   C3A11585  12.946  14.405   7.618 -0.0101 -0.1496 -0.0230
  775YOPS   C4A11586  12.980  13.985   7.779 -0.0611  0.2608  0.5092
  775YOPS   C1B11587  12.595  14.029   7.088  0.0886  0.5395  0.0762
  775YOPS   C2B11588  12.486  14.149   7.501  0.0377  0.1806  0.1570
  775YOPS   D3B11589  12.555  13.949   7.931 -0.3961  0.0026 -0.0405
  775YOPS   C4B11590  12.338  14.092   8.315  0.3423 -0.0587  0.1076
  776YOPS   CNO11591   3.396  16.793   5.891 -0.2828 -0.1030 -0.1499
  776YOPS   PO411592   3.206  16.336   6.035  0.1558 -0.2100 -0.1200
  776YOPS   GL111593   3.306  16.243   6.401  0.1112 -0.0572  0.1073
  776YOPS   GL211594   3.019  16.303   6.519  0.3117  0.3489  0.1874
  776YOPS   C1A11595   3.440  16.302   6.845  0.0773  0.0264 -0.1897
  776YOPS   D2A11596   3.399  16.199   7.248 -0.0178 -0.2796 -0.0905
  776YOPS   C3A11597   3.206  15.942   7.581  0.0676  0.1076 -0.0480
  776YOPS   C4A11598   3.273  16.046   8.060  0.0882  0.1296  0.0499
  776YOPS   C1B11599   3.006  16.058   6.981 -0.3310  0.1472  0.0131
  776YOPS   C2B11600   2.816  16.087   7.313 -0.1151 -0.1325 -0.2219
  776YOPS   D3B11601   2.804  16.225   7.753  0.0022 -0.0010 -0.1301
  776YOPS   C4B11602   2.760  15.970   7.993 -0.0338  0.0515 -0.3221
  777YOPS   CNO11603  14.073   1.118   5.760 -0.2809 -0.1392 -0.0349
  777YOPS   PO411604  14.032   1.460   6.002 -0.1676  0.0155  0.0272
  777YOPS   GL111605  13.944   1.354   6.433 -0.3326  0.0777  0.1535
  777YOPS   GL211606  13.629   1.148   6.541  0.1648  0.0389 -0.1348
  777YOPS   C1A11607  14.016   1.088   6.856  0.0408  0.0645  0.1460
  777YOPS   D2A11608  13.996   0.969   7.261 -0.0801  0.0446 -0.1266
  777YOPS   C3A11609  13.941   0.862   7.712 -0.0757  0.1575  0.0699
  777YOPS   C4A11610  13.511   0.752   7.807  0.0911 -0.0330  0.2157
  777YOPS   C1B11611  13.534   1.068   7.007  0.0634 -0.3092  0.1343
  777YOPS   C2B11612  13.558   1.147   7.412  0.0485 -0.0174 -0.1142
  777YOPS   D3B11613  13.568   1.264   7.873 -0.1647 -0.0018  0.1209
  777YOPS   C4B11614  13.754   1.656   7.957 -0.1616  0.0917  0.0646
  778YOPS   CNO11615   5.805   3.706   6.166 -0.0569 -0.1662  0.1284
  778YOPS   PO411616   5.967   3.334   6.246 -0.1852 -0.0833  0.0710
  778YOPS   GL111617   6.130   3.456   6.649  0.0115 -0.0754  0.0032
  778YOPS   GL211618   6.342   3.349   6.723 -0.0041 -0.0259 -0.0532
  778YOPS   C1A11619   6.092   3.102   7.024  0.1018  0.0195  0.0178
  778YOPS   D2A11620   6.138   3.083   7.433 -0.0036 -0.0037 -0.2103
  778YOPS   C3A11621   5.930   3.128   7.791 -0.0003 -0.0169 -0.1256
  778YOPS   C4A11622   5.810   3.502   8.050  0.3062  0.0083  0.1262
  778YOPS   C1B11623   6.265   3.545   7.136 -0.1320  0.0461  0.4129
  778YOPS   C2B11624   6.086   3.583   7.530  0.1154 -0.2001 -0.2535
  778YOPS   D3B11625   6.074   3.856   7.814  0.0374 -0.0922  0.3187
  778YOPS   C4B11626   5.936   4.022   8.169 -0.2191 -0.0090 -0.0042
  779YOPS   CNO11627  10.841  15.522   6.255  0.3924  0.1396  0.2552
  779YOPS   PO411628  11.102  15.256   6.425  0.0067  0.2929 -0.0255
  779YOPS   GL111629  11.120  15.034   6.810  0.3958 -0.0528  0.1619
  779YOPS   GL211630  10.836  15.012   6.905  0.2338  0.2671  0.1811
  779YOPS   C1A11631  11.198  14.600   7.029  0.2833 -0.0216 -0.2112
  779YOPS   D2A11632  11.110  14.458   7.446 -0.0968  0.0630  0.1792
  779YOPS   C3A11633  11.281  14.571   7.943  0.0929  0.4350 -0.0859
  779YOPS   C4A11634  11.182  14.791   8.351 -0.2164  0.0186  0.0544
  779YOPS   C1B11635  10.904  14.935   7.265  0.1363  0.3511 -0.1274
  779YOPS   C2B11636  10.879  14.816   7.727 -0.2756  0.0187  0.0606
  779YOPS   D3B11637  10.800  14.942   8.050 -0.1096  0.1568  0.0317
  779YOPS   C4B11638  10.641  15.345   8.139  0.3085 -0.1203  0.0308
  780YOPS   CNO11639   0.695  13.278   6.153 -0.0918  0.0164  0.1559
  780YOPS   PO411640   0.294  13.050   6.411  0.1943  0.0516  0.0050
  780YOPS   GL111641   0.556  12.876   6.717 -0.0485  0.1939  0.4167
  780YOPS   GL211642   0.838  13.044   6.680 -0.1398 -0.2864 -0.0860
  780YOPS   C1A11643   0.558  12.870   7.182 -0.1066  0.2318 -0.3030
  780YOPS   D2A11644   0.446  12.885   7.653  0.0972 -0.0062 -0.0564
  780YOPS   C3A11645   0.355  12.593   8.060  0.1108  0.1911  0.0877
  780YOPS   C4A11646   0.582  12.594   8.417 -0.1951  0.0960 -0.0236
  780YOPS   C1B11647   0.980  13.177   7.132  0.0948  0.0811 -0.3514
  780YOPS   C2B11648   0.898  13.098   7.592 -0.0899 -0.1179 -0.2199
  780YOPS   D3B11649   0.763  13.049   8.016 -0.1564 -0.1567  0.1990
  780YOPS   C4B11650   0.460  13.108   8.232  0.1769  0.1736 -0.0062
  781YOPS   CNO11651   5.015  17.387   5.867  0.0006  0.1585  0.2131
  781YOPS   PO411652   5.194  17.739   6.154 -0.1129 -0.2017 -0.0403
  781YOPS   GL111653   5.179  17.706   6.624  0.0539 -0.1197 -0.1507
  781YOPS   GL211654   4.912  17.584   6.724 -0.2837  0.0584  0.0003
  781YOPS   C1A11655   5.256  17.900   7.060 -0.1234 -0.1366 -0.2172
  781YOPS   D2A11656   5.276  17.931   7.440 -0.1856 -0.0227 -0.1279
  781YOPS   C3A11657   5.141  18.113   7.757  0.0841 -0.2696 -0.1978
  781YOPS   C4A11658   5.332  18.057   8.169  0.0957  0.3238 -0.2357
  781YOPS   C1B11659   4.842  17.627   7.084  0.1311 -0.1868  0.0913
  781YOPS   C2B11660   4.835  17.770   7.548  0.0913 -0.2365  0.1336
  781YOPS   D3B11661   5.018  17.564   7.910  0.0680  0.2548 -0.0638
  781YOPS   C4B11662   4.777  17.267   7.969  0.1132  0.1702 -0.0830
  782POPE   NH311663   5.875   6.083   6.237 -0.1955  0.1910 -0.2920
  782POPE   PO411664   5.721   6.462   6.426 -0.1231  0.1950  0.1827
  782POPE   GL111665   5.787   6.235   6.688 -0.0094 -0.0869  0.0401
  782POPE   GL211666   6.026   6.004   6.881 -0.1206 -0.3622 -0.0469
  782POPE   C1A11667   5.663   6.262   7.124 -0.3508  0.3745  0.0050
  782POPE   D2A11668   5.542   6.646   7.341 -0.0209  0.0705 -0.1508
  782POPE   C3A11669   5.560   6.552   7.773 -0.2575  0.1592 -0.1853
  782POPE   C4A11670   5.709   6.611   8.102 -0.0496 -0.1155 -0.0681
  782POPE   C1B11671   6.124   6.200   7.379  0.2021 -0.0356 -0.0997
  782POPE   C2B11672   5.997   6.205   7.723  0.0258 -0.1490  0.2121
  782POPE   C3B11673   5.945   6.095   8.176  0.1842 -0.2374  0.0989
  782POPE   C4B11674   5.682   6.190   8.439 -0.3837 -0.1004 -0.0801
  783POPE   NH311675  10.211   7.024   6.680  0.0356 -0.2245 -0.0283
  783POPE   PO411676  10.162   7.494   6.464  0.1179 -0.1274  0.0452
  783POPE   GL111677  10.138   7.487   6.873  0.1394  0.3835 -0.0110
  783POPE   GL211678  10.273   7.287   7.150 -0.0044 -0.0110  0.1242
  783POPE   C1A11679  10.275   7.794   7.201 -0.2710  0.3742  0.0954
  783POPE   D2A11680  10.260   7.974   7.552  0.0901  0.2171  0.0889
  783POPE   C3A11681  10.260   8.009   7.951  0.3436  0.1935 -0.1180
  783POPE   C4A11682  10.548   8.288   8.219  0.0402  0.0115  0.1886
  783POPE   C1B11683  10.487   7.195   7.590 -0.0508  0.2518  0.0967
  783POPE   C2B11684  10.482   7.180   7.931 -0.1219 -0.0229  0.2289
  783POPE   C3B11685  10.696   7.175   8.283  0.1387 -0.0968  0.0482
  783POPE   C4B11686  10.808   7.121   8.604 -0.2246  0.2303 -0.1026
  784POPE   NH311687  12.631  16.762   6.417  0.0302  0.3736  0.1124
  784POPE   PO411688  12.516  16.349   6.486  0.0962 -0.1549  0.2457
  784POPE   GL111689  12.413  16.321   6.869 -0.1314  0.0455  0.3671
  784POPE   GL211690  12.523  16.633   6.924  0.0951  0.0353 -0.1137
  784POPE   C1A11691  12.263  16.106   7.203  0.0494 -0.1123  0.0566
  784POPE   D2A11692  12.000  15.789   7.169 -0.1956 -0.1655 -0.2548
  784POPE   C3A11693  11.975  15.369   7.282  0.1626  0.1058  0.0813
  784POPE   C4A11694  12.076  14.931   7.352  0.3856  0.1510 -0.2755
  784POPE   C1B11695  12.661  16.604   7.363  0.2293  0.0540 -0.1497
  784POPE   C2B11696  12.806  16.631   7.769 -0.0133 -0.0305 -0.1435
  784POPE   C3B11697  12.837  16.532   8.238  0.0837  0.0190 -0.0360
  784POPE   C4B11698  12.770  16.701   8.694 -0.0112  0.1203 -0.2768
  785POPE   NH311699   7.066   8.051   6.387  0.3723 -0.0162 -0.1856
  785POPE   PO411700   7.085   8.266   6.050 -0.0896 -0.3142  0.0071
  785POPE   GL111701   7.121   8.647   6.390  0.2133  0.1957 -0.1697
  785POPE   GL211702   7.225   8.457   6.537  0.2202 -0.2468  0.0896
  785POPE   C1A11703   7.280   8.900   6.723 -0.2476 -0.1774 -0.3419
  785POPE   D2A11704   7.292   9.101   7.108 -0.1244  0.0846 -0.2376
  785POPE   C3A11705   7.301   9.535   6.948 -0.0307  0.2940 -0.1393
  785POPE   C4A11706   7.632   9.792   6.654 -0.2321  0.0436 -0.0925
  785POPE   C1B11707   7.415   8.404   6.865 -0.1532  0.0877  0.1571
  785POPE   C2B11708   7.286   8.201   7.249 -0.0328  0.1940  0.1349
  785POPE   C3B11709   7.508   8.226   7.626 -0.0301 -0.0252 -0.2782
  785POPE   C4B11710   7.458   8.100   8.065 -0.1673  0.1401 -0.1763
  786POPE   NH311711  12.613  17.615   6.340 -0.1136 -0.0128  0.1109
  786POPE   PO411712  12.179  17.868   6.397 -0.0810  0.0628 -0.1444
  786POPE   GL111713  12.089  18.110   6.743  0.2000  0.1321 -0.1658
  786POPE   GL211714  11.711  18.113   6.542  0.1006  0.1083 -0.0101
  786POPE   C1A11715  12.035  18.089   7.209 -0.1259 -0.0500  0.2237
  786POPE   D2A11716  12.045  18.184   7.638  0.0238 -0.0308 -0.1020
  786POPE   C3A11717  12.032  17.883   7.903  0.0479  0.1539  0.1887
  786POPE   C4A11718  11.980  17.826   8.299 -0.3545 -0.0010 -0.1558
  786POPE   C1B11719  11.633  18.025   6.942  0.0057  0.0371  0.2410
  786POPE   C2B11720  11.524  18.047   7.377  0.0335 -0.2585 -0.0106
  786POPE   C3B11721  11.545  18.202   7.828 -0.2603  0.0108 -0.1054
  786POPE   C4B11722  11.286  18.584   7.951  0.1252  0.0029  0.1494
  787POPE   NH311723   6.774  11.154   5.968 -0.0022  0.2458 -0.0891
  787POPE   PO411724   6.867  11.523   6.173 -0.1136 -0.1040  0.0680
  787POPE   GL111725   6.797  11.604   6.571  0.1123  0.1011 -0.3024
  787POPE   GL211726   7.028  11.390   6.663 -0.0585  0.2664  0.1487
  787POPE   C1A11727   6.786  11.692   7.028  0.0051 -0.0450 -0.0431
  787POPE   D2A11728   6.582  11.483   7.323  0.2150 -0.0682  0.1869
  787POPE   C3A11729   6.533  11.322   7.743  0.2151  0.2928  0.1445
  787POPE   C4A11730   6.685  11.211   8.140 -0.1123 -0.2393 -0.0165
  787POPE   C1B11731   6.865  11.215   6.958  0.1147 -0.2079  0.1647
  787POPE   C2B11732   6.953  11.126   7.362  0.2019  0.1266  0.0414
  787POPE   C3B11733   7.036  11.109   7.797  0.1727  0.1472  0.1918
  787POPE   C4B11734   7.047  10.911   8.234  0.0669  0.0913 -0.0133
  788POPE   NH311735   2.195  14.211   6.125 -0.1823  0.0037 -0.2312
  788POPE   PO411736   1.874  13.933   6.123 -0.2928 -0.4354  0.0334
  788POPE   GL111737   2.005  13.906   6.546 -0.2300 -0.0277  0.2259
  788POPE   GL211738   2.291  13.756   6.473 -0.0756  0.2513 -0.0830
  788POPE   C1A11739   2.166  14.028   6.999 -0.0841  0.1168 -0.0109
  788POPE   D2A11740   2.019  14.230   7.303 -0.1023 -0.1122 -0.2954
  788POPE   C3A11741   2.071  14.596   7.520 -0.1275  0.3679 -0.1243
  788POPE   C4A11742   2.258  14.959   7.676  0.1686 -0.1059 -0.0737
  788POPE   C1B11743   2.469  13.707   6.809 -0.1187  0.0814  0.3164
  788POPE   C2B11744   2.529  13.785   7.295  0.0823  0.1863 -0.0496
  788POPE   C3B11745   2.376  14.085   7.618  0.3631  0.0224  0.0834
  788POPE   C4B11746   2.348  14.359   7.926 -0.3517  0.0392 -0.0061
  789POPE   NH311747  10.859   8.236   6.581 -0.0398 -0.0856 -0.0083
  789POPE   PO411748  10.928   8.621   6.750  0.1491  0.0567 -0.2188
  789POPE   GL111749  10.719   8.488   7.139  0.0223  0.1304  0.0062
  789POPE   GL211750  10.430   8.269   7.101 -0.0577 -0.0788  0.2057
  789POPE   C1A11751  10.618   8.349   7.659  0.1833  0.1086  0.1972
  789POPE   D2A11752  10.812   8.002   7.899 -0.0321 -0.0828 -0.0163
  789POPE   C3A11753  11.071   8.293   8.083  0.0992  0.1540 -0.0523
  789POPE   C4A11754  11.171   8.481   8.532  0.0395 -0.0818  0.2440
  789POPE   C1B11755  10.228   8.554   7.398 -0.4852 -0.1102 -0.1616
  789POPE   C2B11756  10.085   8.437   7.733 -0.0823  0.1058  0.0663
  789POPE   C3B11757  10.017   8.358   8.140  0.4259  0.0708 -0.3347
  789POPE   C4B11758   9.803   8.515   8.482 -0.2481 -0.1194  0.0387
  790POPE   NH311759  17.727  14.235   6.334 -0.0898 -0.0556  0.2310
  790POPE   PO411760  17.629  14.686   6.149  0.1860  0.0086 -0.0360
  790POPE   GL111761  17.426  14.639   6.602  0.2535 -0.2744 -0.2698
  790POPE   GL211762  17.663  14.672   6.907 -0.0173 -0.0242  0.1827
  790POPE   C1A11763  17.247  14.986   6.760  0.1040 -0.2680  0.1175
  790POPE   D2A11764  17.032  15.058   7.119  0.0222  0.3199  0.1239
  790POPE   C3A11765  17.251  15.085   7.481 -0.1790 -0.0408 -0.0623
  790POPE   C4A11766  17.221  14.994   7.902 -0.1388  0.1688 -0.0048
  790POPE   C1B11767  17.627  14.691   7.306  0.2602  0.0588  0.0700
  790POPE   C2B11768  17.648  14.883   7.717 -0.1287 -0.1207  0.0897
  790POPE   C3B11769  17.878  14.770   8.062  0.0547 -0.0319 -0.3093
  790POPE   C4B11770  18.221  14.922   8.376  0.0810 -0.0550 -0.3569
  791POPE   NH311771  13.520  16.315   6.331  0.2832 -0.1162  0.1638
  791POPE   PO411772  13.566  16.066   6.108  0.0535  0.1062 -0.0234
  791POPE   GL111773  13.703  15.879   6.483 -0.1196 -0.0805 -0.2212
  791POPE   GL211774  13.745  16.015   6.757 -0.0135  0.2029  0.1381
  791POPE   C1A11775  13.555  15.566   6.769  0.0110  0.2312  0.0835
  791POPE   D2A11776  13.677  15.506   7.210 -0.0265 -0.0593  0.0721
  791POPE   C3A11777  13.714  15.432   7.642 -0.0397  0.0844  0.5508
  791POPE   C4A11778  13.797  15.310   8.057  0.1187 -0.0747  0.0271
  791POPE   C1B11779  13.855  15.923   7.115 -0.0900 -0.1194  0.0879
  791POPE   C2B11780  13.926  15.975   7.532 -0.1129 -0.0136 -0.3072
  791POPE   C3B11781  14.007  16.194   7.932 -0.0646 -0.2165  0.0729
  791POPE   C4B11782  14.032  16.371   8.324 -0.0723 -0.0381 -0.0113
  792POPE   NH311783   3.518  17.242   6.091 -0.1904 -0.1207  0.2830
  792POPE   PO411784   3.909  17.012   6.354  0.4827 -0.1350 -0.0422
  792POPE   GL111785   3.747  17.490   6.482  0.1367 -0.0007  0.1553
  792POPE   GL211786   4.122  17.560   6.445 -0.1809  0.1303  0.2623
  792POPE   C1A11787   3.702  17.947   6.569  0.0919 -0.0854 -0.0063
  792POPE   D2A11788   3.446  18.233   6.470  0.2023 -0.1693 -0.2934
  792POPE   C3A11789   3.366  18.308   6.863 -0.1773 -0.1531  0.1714
  792POPE   C4A11790   3.282  18.546   7.190  0.2172 -0.3597 -0.3529
  792POPE   C1B11791   4.428  17.662   6.793 -0.0379 -0.0252  0.0858
  792POPE   C2B11792   4.439  17.952   7.119  0.0932 -0.2894 -0.0171
  792POPE   C3B11793   4.347  18.019   7.498 -0.1314 -0.1232 -0.1819
  792POPE   C4B11794   4.596  18.003   7.874 -0.1007 -0.2537 -0.1150
  793POPE   NH311795   8.322  11.371   6.339  0.0413  0.1436  0.1881
  793POPE   PO411796   8.492  10.988   6.125  0.1260 -0.0292 -0.1409
  793POPE   GL111797   8.565  10.947   6.558 -0.0898  0.1925  0.0306
  793POPE   GL211798   8.772  11.163   6.864 -0.0163 -0.3752  0.5671
  793POPE   C1A11799   8.461  10.845   6.991  0.1860 -0.2960  0.1696
  793POPE   D2A11800   8.265  10.678   7.332 -0.2209  0.1623  0.2201
  793POPE   C3A11801   8.339  10.743   7.769  0.0607 -0.1864 -0.0438
  793POPE   C4A11802   8.539  10.679   8.251  0.1811 -0.0089 -0.0276
  793POPE   C1B11803   8.855  11.029   7.292  0.1755 -0.1150  0.1409
  793POPE   C2B11804   8.828  11.072   7.701 -0.2588  0.0537 -0.0956
  793POPE   C3B11805   8.835  11.194   8.106  0.2437 -0.0118 -0.1469
  793POPE   C4B11806   8.622  11.109   8.545  0.0117 -0.0511 -0.2546
  794POPE   NH311807  10.774  16.044   6.204  0.4384 -0.1987  0.1213
  794POPE   PO411808  11.186  16.228   6.329 -0.4174  0.1376 -0.2442
  794POPE   GL111809  10.786  16.310   6.619  0.3193 -0.1019 -0.0211
  794POPE   GL211810  10.681  16.556   6.721 -0.1152 -0.1604 -0.0386
  794POPE   C1A11811  10.547  16.102   7.020  0.4878 -0.0341  0.0991
  794POPE   D2A11812  10.240  16.056   7.372 -0.0538 -0.0190  0.0135
  794POPE   C3A11813  10.055  15.933   7.730 -0.1095  0.0784  0.2052
  794POPE   C4A11814   9.884  15.898   8.090  0.0797 -0.1645 -0.0383
  794POPE   C1B11815  10.397  16.648   7.089  0.0463  0.0659 -0.2718
  794POPE   C2B11816  10.299  16.741   7.520  0.0745  0.2064  0.1287
  794POPE   C3B11817  10.048  16.801   7.876 -0.0709 -0.2538 -0.1554
  794POPE   C4B11818   9.954  16.761   8.267 -0.0746  0.0986  0.1741
  795POPE   NH311819  16.878  10.280   6.502 -0.0200  0.2606 -0.2275
  795POPE   PO411820  16.437  10.231   6.556 -0.1418 -0.0206  0.2835
  795POPE   GL111821  16.662  10.152   6.975 -0.0149  0.2127 -0.0791
  795POPE   GL211822  17.030  10.001   6.957  0.1250 -0.2384 -0.2773
  795POPE   C1A11823  16.603  10.200   7.448 -0.1055  0.3465  0.0857
  795POPE   D2A11824  16.746  10.532   7.787 -0.0482  0.1749  0.0841
  795POPE   C3A11825  16.692  10.502   8.276 -0.2500 -0.0148  0.1421
  795POPE   C4A11826  16.641  10.604   8.672  0.1295 -0.0281 -0.1301
  795POPE   C1B11827  16.973   9.898   7.449 -0.0380 -0.0788  0.2847
  795POPE   C2B11828  17.175   9.838   7.846 -0.0604 -0.1412  0.0991
  795POPE   C3B11829  17.059   9.740   8.247  0.1441  0.0020  0.1145
  795POPE   C4B11830  17.123   9.756   8.626 -0.1061 -0.0228  0.1643
  796POPE   NH311831   0.560   2.600   5.514  0.1987 -0.1548  0.3498
  796POPE   PO411832   0.206   2.675   5.655  0.0059 -0.3874 -0.1338
  796POPE   GL111833   0.183   2.540   6.096 -0.0697  0.1744  0.2038
  796POPE   GL211834   0.414   2.640   6.250  0.2338  0.2058  0.0045
  796POPE   C1A11835   0.034   2.507   6.549 -0.3007  0.0042 -0.2517
  796POPE   D2A11836  -0.233   2.408   6.808  0.0226  0.3563  0.1526
  796POPE   C3A11837  -0.014   2.249   7.173  0.1768  0.2108  0.0640
  796POPE   C4A11838   0.079   2.313   7.593 -0.0287 -0.0521 -0.2091
  796POPE   C1B11839   0.551   2.880   6.683 -0.0910 -0.0959 -0.0992
  796POPE   C2B11840   0.736   2.838   7.103 -0.1801  0.0796  0.0555
  796POPE   C3B11841   1.037   3.051   7.393 -0.1197  0.0897 -0.0556
  796POPE   C4B11842   0.928   2.747   7.764  0.0385 -0.2807 -0.1260
  797POPE   NH311843   9.711  11.399   6.304 -0.3177  0.0460  0.1341
  797POPE   PO411844   9.266  11.495   6.376 -0.0449 -0.3439  0.3251
  797POPE   GL111845   9.522  11.666   6.673  0.1207 -0.0071 -0.1754
  797POPE   GL211846   9.686  11.862   6.602 -0.0330  0.2050  0.4721
  797POPE   C1A11847   9.661  11.467   7.120  0.0626 -0.1330  0.2366
  797POPE   D2A11848   9.504  11.156   7.417 -0.0477 -0.3977 -0.0364
  797POPE   C3A11849   9.534  10.935   7.885  0.2459 -0.1295  0.1491
  797POPE   C4A11850   9.558  10.632   8.158  0.1922  0.3808 -0.0621
  797POPE   C1B11851   9.780  11.939   7.038 -0.0189 -0.2257  0.0986
  797POPE   C2B11852   9.801  11.761   7.516 -0.2138  0.0552 -0.0493
  797POPE   C3B11853   9.768  11.382   7.794 -0.0258 -0.0199 -0.0156
  797POPE   C4B11854   9.907  11.146   8.114  0.2117 -0.3007 -0.1534
  798POPE   NH311855   3.348   4.086   6.007  0.0087  0.0816  0.0935
  798POPE   PO411856   3.032   3.783   5.982  0.0934  0.2700 -0.2737
  798POPE   GL111857   3.279   3.626   6.298  0.2909 -0.1527 -0.0105
  798POPE   GL211858   3.489   3.428   6.400  0.1380  0.2908  0.1456
  798POPE   C1A11859   2.968   3.438   6.646  0.0756 -0.3726  0.0130
  798POPE   D2A11860   2.615   3.741   6.910  0.2383 -0.2639 -0.1920
  798POPE   C3A11861   2.505   3.686   7.336  0.1692  0.2048 -0.1984
  798POPE   C4A11862   2.667   3.567   7.739 -0.0593  0.1550 -0.0535
  798POPE   C1B11863   3.470   3.372   6.873  0.0742 -0.1788 -0.0689
  798POPE   C2B11864   3.509   3.501   7.262 -0.0607  0.0527 -0.0267
  798POPE   C3B11865   3.565   3.323   7.645 -0.0020  0.3091 -0.0636
  798POPE   C4B11866   3.965   3.370   7.944 -0.2469 -0.0274  0.0995
  799POPE   NH311867  12.827  15.926   6.597  0.1752 -0.0352  0.2901
  799POPE   PO411868  12.427  15.699   6.526 -0.0263 -0.0308  0.0043
  799POPE   GL111869  12.451  15.731   6.912 -0.2509 -0.1347 -0.1146
  799POPE   GL211870  12.714  15.924   7.094 -0.1610  0.1197 -0.0831
  799POPE   C1A11871  12.437  15.601   7.364 -0.0604  0.0307  0.0309
  799POPE   D2A11872  12.296  15.342   7.714 -0.0574 -0.1990  0.0010
  799POPE   C3A11873  12.395  15.031   8.045  0.0613 -0.1168  0.1389
  799POPE   C4A11874  12.587  15.107   8.546  0.1477 -0.0253 -0.2714
  799POPE   C1B11875  12.645  16.094   7.525 -0.1244 -0.1227  0.0170
  799POPE   C2B11876  12.651  16.086   7.912 -0.2342  0.1342 -0.2957
  799POPE   C3B11877  12.501  16.075   8.379  0.1474  0.3015 -0.1785
  799POPE   C4B11878  12.816  16.149   8.735  0.1963  0.0539  0.1399
  800POPE   NH311879  16.749   8.289   6.120  0.0006  0.1290 -0.0545
  800POPE   PO411880  16.400   8.100   6.236  0.2862  0.1855  0.1086
  800POPE   GL111881  16.230   8.061   6.664 -0.0496 -0.3506  0.1163
  800POPE   GL211882  15.887   8.243   6.512  0.0471  0.0353 -0.1293
  800POPE   C1A11883  16.035   7.857   6.944  0.1995 -0.1028  0.0344
  800POPE   D2A11884  15.569   7.885   7.162 -0.0504  0.1768 -0.1539
  800POPE   C3A11885  15.524   7.706   7.579 -0.2413  0.1298  0.2011
  800POPE   C4A11886  15.501   7.421   7.952  0.1849  0.0673 -0.0069
  800POPE   C1B11887  15.912   8.382   6.907 -0.0544 -0.2594 -0.2161
  800POPE   C2B11888  16.048   8.222   7.260 -0.0165 -0.0601 -0.0877
  800POPE   C3B11889  16.064   7.735   7.452  0.0672 -0.0922  0.0666
  800POPE   C4B11890  15.980   7.419   7.705 -0.0357  0.0361 -0.0143
  801POPE   NH311891   5.790   7.301   6.104  0.5029  0.0876 -0.0742
  801POPE   PO411892   5.597   7.046   6.346 -0.0899  0.0215  0.0823
  801POPE   GL111893   5.865   7.197   6.621  0.0377 -0.0271 -0.0424
  801POPE   GL211894   5.829   7.486   6.683 -0.4233  0.0488  0.1730
  801POPE   C1A11895   6.158   7.171   6.976  0.1095  0.0153 -0.0238
  801POPE   D2A11896   6.143   7.250   7.478  0.0991 -0.5055 -0.0982
  801POPE   C3A11897   5.794   7.224   7.594 -0.0697  0.1414 -0.0061
  801POPE   C4A11898   5.557   7.048   7.871 -0.3440  0.0333 -0.1997
  801POPE   C1B11899   5.711   7.246   7.073 -0.0087 -0.0328  0.1433
  801POPE   C2B11900   5.342   7.144   7.235 -0.0740 -0.0613  0.1699
  801POPE   C3B11901   5.182   6.915   7.608  0.1924  0.3046 -0.2699
  801POPE   C4B11902   5.116   6.742   7.997 -0.0675 -0.1371 -0.2811
  802POPE   NH311903   9.382  16.663   6.179  0.1513  0.0791 -0.1085
  802POPE   PO411904   9.720  16.723   5.986  0.2008 -0.1996 -0.0407
  802POPE   GL111905   9.706  16.883   6.453 -0.0054  0.0483  0.1168
  802POPE   GL211906   9.397  17.166   6.563 -0.1796 -0.2144  0.1296
  802POPE   C1A11907   9.473  16.561   6.743  0.1429  0.2578 -0.0685
  802POPE   D2A11908   9.379  16.547   7.227  0.2340  0.1932 -0.2810
  802POPE   C3A11909   9.406  16.302   7.502 -0.2045  0.2120  0.0947
  802POPE   C4A11910   9.519  16.016   7.735 -0.1926 -0.0489 -0.1858
  802POPE   C1B11911   9.439  17.042   6.996  0.1538 -0.0833  0.3250
  802POPE   C2B11912   9.314  17.013   7.363  0.0251  0.2322  0.1167
  802POPE   C3B11913   9.163  17.154   7.759  0.1382 -0.1803  0.0899
  802POPE   C4B11914   9.190  17.548   8.109  0.4075  0.0994 -0.0740
  803POPE   NH311915   6.328  17.077   6.207  0.2001 -0.0171  0.1289
  803POPE   PO411916   6.687  17.143   6.240 -0.1293 -0.0291 -0.0171
  803POPE   GL111917   6.728  16.893   6.649 -0.1713 -0.1914 -0.1541
  803POPE   GL211918   6.745  16.578   6.594  0.0445  0.0013  0.2589
  803POPE   C1A11919   7.082  16.823   6.913 -0.2511  0.2301 -0.0743
  803POPE   D2A11920   7.332  17.125   7.160 -0.0301 -0.1819  0.0431
  803POPE   C3A11921   7.212  16.979   7.573 -0.1829  0.0224 -0.1938
  803POPE   C4A11922   7.303  16.775   7.997  0.0514  0.3269  0.1064
  803POPE   C1B11923   6.438  16.274   6.747 -0.0403 -0.0430 -0.0395
  803POPE   C2B11924   6.225  16.155   7.118 -0.0622  0.4932 -0.3085
  803POPE   C3B11925   6.007  16.165   7.570 -0.0449  0.0641  0.0865
  803POPE   C4B11926   6.186  16.351   8.008 -0.2245 -0.1330 -0.2101
  804POPE   NH311927  11.389   5.831   6.523 -0.1668 -0.0359 -0.2129
  804POPE   PO411928  11.033   5.515   6.564 -0.1559  0.2939  0.1430
  804POPE   GL111929  10.855   5.370   6.911 -0.0592 -0.1124 -0.1014
  804POPE   GL211930  10.875   5.601   7.099 -0.2799 -0.1133 -0.0648
  804POPE   C1A11931  10.678   5.204   7.322 -0.4345 -0.3441 -0.3931
  804POPE   D2A11932  10.713   5.032   7.663 -0.0294  0.4203  0.2591
  804POPE   C3A11933  10.428   5.161   7.902 -0.0462  0.0505  0.2749
  804POPE   C4A11934  10.357   5.098   8.324 -0.1029 -0.0620  0.0039
  804POPE   C1B11935  10.797   5.693   7.458 -0.1236 -0.2716  0.0468
  804POPE   C2B11936  10.781   5.504   7.834  0.3565  0.2716  0.1073
  804POPE   C3B11937  10.729   5.438   8.304  0.3851 -0.1656 -0.1981
  804POPE   C4B11938  10.671   5.142   8.727 -0.1954 -0.0394  0.4098
  805POPE   NH311939   3.771   3.205   6.021  0.0520  0.1089  0.2562
  805POPE   PO411940   3.422   3.040   6.024  0.0810 -0.3301  0.1654
  805POPE   GL111941   3.605   2.938   6.481 -0.0639 -0.0541 -0.1241
  805POPE   GL211942   3.420   2.698   6.608  0.1780 -0.1735 -0.1226
  805POPE   C1A11943   3.696   2.916   6.952  0.0778 -0.2791  0.3277
  805POPE   D2A11944   3.837   2.915   7.430  0.0585  0.3617  0.0596
  805POPE   C3A11945   3.784   2.849   7.823  0.0444 -0.0019  0.1744
  805POPE   C4A11946   3.777   2.891   8.283  0.1479 -0.0672  0.3093
  805POPE   C1B11947   3.271   2.609   7.125 -0.1665 -0.1127 -0.0770
  805POPE   C2B11948   3.457   2.464   7.502 -0.2514 -0.1046  0.0408
  805POPE   C3B11949   3.625   2.181   7.792 -0.0320 -0.1916 -0.1768
  805POPE   C4B11950   3.760   1.865   7.968  0.0133 -0.0448  0.2754
  806POPE   NH311951  13.897   4.945   5.899 -0.0969  0.0730 -0.3221
  806POPE   PO411952  13.592   4.779   5.885  0.1043 -0.2098 -0.0416
  806POPE   GL111953  13.378   4.905   6.291 -0.1014 -0.1440 -0.0443
  806POPE   GL211954  13.348   5.240   6.510 -0.1683 -0.0351 -0.1169
  806POPE   C1A11955  13.102   4.855   6.695  0.0468 -0.0732 -0.4596
  806POPE   D2A11956  13.236   4.828   7.234  0.0320 -0.2028 -0.0791
  806POPE   C3A11957  13.461   4.641   7.486 -0.1132  0.0885 -0.0999
  806POPE   C4A11958  13.552   4.534   7.896 -0.1560  0.0236 -0.0223
  806POPE   C1B11959  13.488   5.143   6.899  0.0357  0.0633 -0.3878
  806POPE   C2B11960  13.608   5.135   7.439  0.0771  0.0481  0.2384
  806POPE   C3B11961  13.873   4.981   7.759  0.2328 -0.1589  0.2324
  806POPE   C4B11962  13.976   4.891   8.120  0.1610  0.1858  0.0949
  807POPE   NH311963   3.703  12.246   5.596  0.1546 -0.1290  0.0253
  807POPE   PO411964   4.128  12.271   5.755 -0.1832 -0.1267 -0.0866
  807POPE   GL111965   3.997  12.343   6.158 -0.0191  0.0728 -0.5290
  807POPE   GL211966   3.710  12.398   6.120  0.1291 -0.0243  0.4053
  807POPE   C1A11967   4.077  12.152   6.587 -0.2164  0.0755 -0.0883
  807POPE   D2A11968   3.999  12.183   7.093  0.0715  0.1995  0.1263
  807POPE   C3A11969   4.123  12.497   7.325  0.1138  0.0145 -0.1702
  807POPE   C4A11970   4.054  12.877   7.407 -0.0405  0.2151  0.1218
  807POPE   C1B11971   3.529  12.258   6.440 -0.2133 -0.0807  0.0783
  807POPE   C2B11972   3.512  12.073   6.855  0.2496  0.0926  0.2884
  807POPE   C3B11973   3.459  12.021   7.349 -0.0013 -0.3127 -0.1723
  807POPE   C4B11974   3.264  12.133   7.747  0.2050 -0.1073 -0.1562
  808POPE   NH311975   0.322   0.930   5.853  0.0253  0.0362  0.0464
  808POPE   PO411976   0.522   0.507   5.700  0.1549  0.0274  0.0419
  808POPE   GL111977   0.736   0.737   6.093 -0.3730  0.5207 -0.2074
  808POPE   GL211978   0.569   0.882   6.363  0.0711  0.0035 -0.1817
  808POPE   C1A11979   1.066   0.710   6.407  0.2038 -0.0693 -0.1870
  808POPE   D2A11980   1.295   0.807   6.852 -0.1930  0.1244  0.1974
  808POPE   C3A11981   1.663   0.970   6.967  0.1694 -0.1567 -0.0902
  808POPE   C4A11982   2.024   1.053   6.740  0.2754 -0.0134 -0.0791
  808POPE   C1B11983   0.473   0.763   6.778 -0.3363  0.2194  0.0511
  808POPE   C2B11984   0.343   0.792   7.155 -0.1591 -0.1660  0.2045
  808POPE   C3B11985   0.144   0.838   7.587  0.1423  0.0368  0.1660
  808POPE   C4B11986  -0.114   0.620   7.885 -0.0331 -0.1761 -0.0678
  809POPE   NH311987   4.686   1.184   5.854  0.0488 -0.0248 -0.1655
  809POPE   PO411988   4.468   1.528   6.094 -0.1324  0.0982  0.1952
  809POPE   GL111989   4.621   1.350   6.405 -0.0885  0.0807 -0.2421
  809POPE   GL211990   4.864   1.085   6.303  0.2654  0.4411  0.0067
  809POPE   C1A11991   4.711   1.276   6.964 -0.1595 -0.2261  0.2962
  809POPE   D2A11992   4.791   1.276   7.386  0.0378  0.1648 -0.0881
  809POPE   C3A11993   4.989   1.030   7.561  0.0713  0.2230  0.0198
  809POPE   C4A11994   4.991   0.813   7.198  0.0169  0.0150  0.1332
  809POPE   C1B11995   5.055   1.153   6.603 -0.0691  0.0827 -0.0739
  809POPE   C2B11996   5.489   1.042   6.922 -0.4358 -0.0685  0.0882
  809POPE   C3B11997   5.474   1.164   7.482  0.0782  0.1260  0.0293
  809POPE   C4B11998   5.351   1.223   7.950 -0.2136  0.0988 -0.3070
  810POPE   NH311999  13.550  13.189   6.466  0.0958 -0.1298  0.0331
  810POPE   PO412000  13.930  13.326   6.226  0.0978 -0.0484 -0.0561
  810POPE   GL112001  13.929  13.387   6.662 -0.0658 -0.2649 -0.1076
  810POPE   GL212002  13.906  13.027   6.742 -0.1493 -0.1258 -0.1873
  810POPE   C1A12003  13.987  13.489   7.054 -0.3066 -0.3659 -0.0252
  810POPE   D2A12004  13.961  13.429   7.564  0.0535 -0.0565  0.3014
  810POPE   C3A12005  14.254  13.373   7.855  0.1610 -0.0379 -0.2660
  810POPE   C4A12006  14.561  13.417   8.039  0.0944  0.0781  0.0585
  810POPE   C1B12007  13.957  12.909   7.172  0.0508  0.5308  0.1940
  810POPE   C2B12008  13.862  12.904   7.552 -0.0428 -0.1535 -0.0908
  810POPE   C3B12009  13.932  12.700   7.774 -0.1745  0.2208  0.0823
  810POPE   C4B12010  13.741  12.585   8.185  0.0024 -0.0815  0.1280
  811POPE   NH312011  16.508   3.614   6.055 -0.0630 -0.2211 -0.0022
  811POPE   PO412012  16.850   3.854   5.983 -0.2936 -0.0275 -0.3545
  811POPE   GL112013  16.932   3.742   6.380 -0.2257  0.1501 -0.0099
  811POPE   GL212014  17.218   3.587   6.593  0.0912  0.0373  0.0825
  811POPE   C1A12015  16.815   3.785   6.840  0.0061 -0.0783 -0.0912
  811POPE   D2A12016  17.021   3.679   7.220  0.1953  0.0384  0.2117
  811POPE   C3A12017  16.924   3.866   7.544  0.2910  0.1719  0.0654
  811POPE   C4A12018  16.555   3.809   7.804  0.3138 -0.1676  0.3501
  811POPE   C1B12019  17.600   3.790   6.486  0.2901  0.0429 -0.1401
  811POPE   C2B12020  17.915   3.787   6.761  0.1077 -0.2821 -0.0057
  811POPE   C3B12021  18.038   3.704   7.131  0.3291 -0.0809 -0.2999
  811POPE   C4B12022  18.411   3.718   7.478 -0.0141 -0.0819 -0.1820
  812YOPE   NH312023  15.317   1.721   6.219  0.1235 -0.0835  0.1079
  812YOPE   PO412024  15.525   2.117   6.160 -0.1781 -0.0681  0.1780
  812YOPE   GL112025  15.616   2.308   6.612 -0.0713 -0.1753  0.0280
  812YOPE   GL212026  15.280   2.366   6.822  0.0039 -0.0072 -0.1858
  812YOPE   C1A12027  15.802   2.477   6.995 -0.3034  0.0478  0.0744
  812YOPE   D2A12028  15.869   2.511   7.378 -0.0433  0.0115 -0.0396
  812YOPE   C3A12029  16.265   2.850   7.360  0.1902 -0.0030  0.0192
  812YOPE   C4A12030  16.481   2.987   7.758  0.2618 -0.1286 -0.1904
  812YOPE   C1B12031  15.376   2.260   7.285 -0.0537 -0.1307 -0.3936
  812YOPE   C2B12032  15.476   2.520   7.659 -0.2181 -0.2748 -0.1781
  812YOPE   D3B12033  15.493   2.881   7.867  0.0793  0.1043  0.1140
  812YOPE   C4B12034  15.487   2.949   8.222  0.0376  0.1141 -0.0392
  813YOPE   NH312035   6.238   9.388   5.671 -0.2835  0.1121  0.2700
  813YOPE   PO412036   6.502   9.753   5.734 -0.0528  0.3384 -0.1123
  813YOPE   GL112037   6.314   9.697   6.143  0.1685 -0.1558 -0.2977
  813YOPE   GL212038   6.492   9.494   6.463 -0.2064 -0.1521  0.0798
  813YOPE   C1A12039   6.167   9.827   6.514 -0.1242  0.1948  0.1231
  813YOPE   D2A12040   6.312  10.001   6.866 -0.1226  0.1432  0.0187
  813YOPE   C3A12041   6.327   9.817   7.285  0.2239  0.1160 -0.0582
  813YOPE   C4A12042   6.611   9.640   7.600  0.0270  0.0051 -0.1267
  813YOPE   C1B12043   6.341   9.442   6.901  0.1821  0.0992  0.2060
  813YOPE   C2B12044   6.379   9.247   7.299 -0.2139 -0.1339  0.0642
  813YOPE   D3B12045   6.376   9.197   7.692  0.0333 -0.0160  0.0623
  813YOPE   C4B12046   6.526   8.914   8.068 -0.1565  0.1375 -0.1331
  814YOPE   NH312047  15.584   6.366   6.138 -0.0212 -0.0004 -0.2117
  814YOPE   PO412048  15.254   6.397   5.999  0.3165  0.0263 -0.0753
  814YOPE   GL112049  15.238   6.592   6.501 -0.1341  0.1167  0.1197
  814YOPE   GL212050  15.584   6.582   6.618 -0.0905 -0.0513 -0.1702
  814YOPE   C1A12051  15.086   6.558   6.899 -0.0149 -0.0765  0.0801
  814YOPE   D2A12052  15.008   6.340   7.327 -0.0199  0.0104 -0.0176
  814YOPE   C3A12053  15.051   6.069   7.636 -0.1608  0.0999 -0.3025
  814YOPE   C4A12054  15.206   6.110   8.054  0.0981  0.2058 -0.2747
  814YOPE   C1B12055  15.550   6.672   7.102 -0.1076 -0.2580  0.3398
  814YOPE   C2B12056  15.357   6.705   7.489  0.0445 -0.2529 -0.3098
  814YOPE   D3B12057  15.116   6.512   7.791 -0.0291  0.0785  0.1900
  814YOPE   C4B12058  14.889   6.515   8.181  0.0061  0.0718 -0.6516
  815YOPE   NH312059   4.102   9.166   6.095 -0.2293  0.2089 -0.2191
  815YOPE   PO412060   4.054   8.674   6.145  0.3307  0.0157 -0.1087
  815YOPE   GL112061   4.145   8.865   6.588 -0.1473  0.0852 -0.2910
  815YOPE   GL212062   4.363   9.054   6.647  0.0779 -0.1653  0.3048
  815YOPE   C1A12063   4.081   8.761   6.968  0.1644  0.0831 -0.1055
  815YOPE   D2A12064   3.961   8.883   7.395 -0.0238  0.1144  0.0262
  815YOPE   C3A12065   3.881   8.880   7.829 -0.1954  0.3142  0.2462
  815YOPE   C4A12066   3.946   9.210   8.205  0.3310  0.2978 -0.2905
  815YOPE   C1B12067   4.178   9.220   7.040 -0.3009  0.0090  0.1253
  815YOPE   C2B12068   3.984   9.402   7.499 -0.0523  0.3130 -0.0391
  815YOPE   D3B12069   3.583   9.219   7.624 -0.3060  0.2312  0.4025
  815YOPE   C4B12070   3.154   9.276   7.639  0.0172  0.3705  0.1549
  816YOPE   NH312071   6.080  16.428   6.024 -0.0769  0.4311 -0.0930
  816YOPE   PO412072   5.860  16.853   6.214  0.0545  0.0878  0.1640
  816YOPE   GL112073   5.673  16.721   6.564 -0.0369 -0.1612 -0.0013
  816YOPE   GL212074   5.513  16.506   6.713  0.2277  0.2079 -0.0521
  816YOPE   C1A12075   5.949  16.596   6.902  0.1165  0.2343 -0.0962
  816YOPE   D2A12076   6.060  16.635   7.298 -0.0986 -0.0373  0.1405
  816YOPE   C3A12077   5.798  16.637   7.585 -0.0968 -0.0697 -0.0007
  816YOPE   C4A12078   5.560  16.982   7.535 -0.1680 -0.1864 -0.1296
  816YOPE   C1B12079   5.502  16.679   7.100  0.0254  0.2248 -0.0754
  816YOPE   C2B12080   5.269  16.583   7.593  0.1643 -0.2275 -0.2719
  816YOPE   D3B12081   4.922  16.642   7.865  0.0181 -0.0968 -0.0891
  816YOPE   C4B12082   4.776  16.404   8.254 -0.0243 -0.4659  0.3232
  817YOPE   NH312083  16.571  16.934   6.172 -0.1293 -0.0676 -0.0753
  817YOPE   PO412084  16.244  17.257   6.187  0.0362 -0.0312 -0.0699
  817YOPE   GL112085  15.926  17.293   6.460  0.0663  0.0067  0.1331
  817YOPE   GL212086  15.934  17.585   6.453 -0.0279  0.0560  0.1854
  817YOPE   C1A12087  15.470  17.328   6.756  0.0754 -0.0324 -0.0832
  817YOPE   D2A12088  15.364  17.478   7.226  0.0704  0.1161 -0.0510
  817YOPE   C3A12089  15.360  17.826   7.420  0.4729  0.1895 -0.1303
  817YOPE   C4A12090  15.020  17.958   7.742 -0.0446 -0.0586  0.2491
  817YOPE   C1B12091  15.805  17.689   6.878 -0.1590 -0.1296  0.1227
  817YOPE   C2B12092  15.882  17.806   7.314  0.1594 -0.2603 -0.0297
  817YOPE   D3B12093  15.777  17.654   7.728 -0.1714  0.1740 -0.0959
  817YOPE   C4B12094  15.434  17.670   7.946  0.0541 -0.0303 -0.0898
  818YOPE   NH312095  12.416   5.117   6.068 -0.0659  0.0264 -0.2948
  818YOPE   PO412096  12.794   4.844   5.993 -0.1152  0.0958  0.0057
  818YOPE   GL112097  12.679   4.640   6.330 -0.0350  0.1152  0.1826
  818YOPE   GL212098  12.583   4.898   6.530  0.3293  0.0044  0.1410
  818YOPE   C1A12099  12.400   4.424   6.678 -0.4058 -0.1402  0.2713
  818YOPE   D2A12100  12.382   4.306   7.041 -0.0888  0.0109  0.0185
  818YOPE   C3A12101  12.382   4.196   7.421  0.0362 -0.0221 -0.1046
  818YOPE   C4A12102  12.483   4.225   7.794 -0.0438 -0.2098  0.1262
  818YOPE   C1B12103  12.684   4.804   6.965 -0.3723 -0.0466  0.1142
  818YOPE   C2B12104  12.844   4.551   7.222 -0.1557 -0.1628 -0.0700
  818YOPE   D3B12105  13.017   4.525   7.697  0.2987  0.0555  0.0814
  818YOPE   C4B12106  13.136   4.454   8.125 -0.2270  0.2388 -0.2934
  819YOPE   NH312107   6.283  14.556   5.784  0.0066 -0.0388 -0.0223
  819YOPE   PO412108   6.709  14.397   5.683 -0.0081  0.1224  0.1091
  819YOPE   GL112109   6.679  14.441   6.164  0.1729 -0.1449 -0.0544
  819YOPE   GL212110   6.510  14.239   6.289 -0.0971  0.0323 -0.1644
  819YOPE   C1A12111   6.634  14.643   6.480  0.1807 -0.0983 -0.0589
  819YOPE   D2A12112   6.537  14.595   6.875 -0.0416 -0.0000 -0.1483
  819YOPE   C3A12113   6.511  14.713   7.321  0.0917 -0.0709 -0.1354
  819YOPE   C4A12114   6.417  14.807   7.789 -0.0227  0.1153  0.0171
  819YOPE   C1B12115   6.246  14.218   6.693 -0.2147  0.1229 -0.0689
  819YOPE   C2B12116   6.305  14.267   7.126 -0.1167  0.0789  0.2016
  819YOPE   D3B12117   6.320  14.303   7.551  0.0009  0.0308 -0.2699
  819YOPE   C4B12118   6.100  14.419   7.824 -0.1071  0.1449 -0.1262
  820YOPE   NH312119   1.611   7.714   6.134 -0.0698 -0.0630 -0.1383
  820YOPE   PO412120   1.212   7.907   6.340  0.1375  0.1539 -0.0380
  820YOPE   GL112121   0.947   7.803   6.594  0.2039  0.2703  0.0284
  820YOPE   GL212122   0.675   7.943   6.551 -0.0264  0.2101 -0.2803
  820YOPE   C1A12123   0.879   7.739   7.075  0.1563 -0.0479  0.1220
  820YOPE   D2A12124   0.732   7.913   7.382 -0.3006  0.0224  0.2283
  820YOPE   C3A12125   0.941   7.850   7.696  0.0466  0.1785 -0.0024
  820YOPE   C4A12126   1.112   7.821   8.057 -0.2693 -0.1284 -0.0662
  820YOPE   C1B12127   0.555   8.168   6.962 -0.0192 -0.0204  0.1466
  820YOPE   C2B12128   0.334   8.175   7.417  0.1480 -0.0263  0.1648
  820YOPE   D3B12129   0.224   8.377   7.817 -0.0424  0.2811 -0.1854
  820YOPE   C4B12130   0.086   8.313   8.126  0.0654 -0.1759  0.0896
  821YOPE   NH312131   1.014  16.637   6.196  0.3459 -0.1619  0.1918
  821YOPE   PO412132   1.352  16.578   6.223 -0.2368  0.0056 -0.2881
  821YOPE   GL112133   1.562  16.615   6.655  0.0671  0.0468 -0.0449
  821YOPE   GL212134   1.807  16.902   6.675 -0.2680 -0.2069 -0.0660
  821YOPE   C1A12135   1.494  16.592   7.057  0.0394 -0.1714 -0.0351
  821YOPE   D2A12136   1.358  16.625   7.541 -0.0724 -0.2795  0.0175
  821YOPE   C3A12137   1.227  16.787   7.848  0.0581  0.0382  0.1640
  821YOPE   C4A12138   1.047  16.880   8.279 -0.0949  0.0783 -0.0954
  821YOPE   C1B12139   1.956  17.102   7.138  0.0250  0.0230  0.0968
  821YOPE   C2B12140   2.114  17.316   7.501  0.1664  0.1095 -0.2738
  821YOPE   D3B12141   2.114  17.547   7.853 -0.0435 -0.1726 -0.0449
  821YOPE   C4B12142   1.710  17.710   8.083  0.1310  0.1300 -0.1900
  822YOPE   NH312143  17.396  15.849   6.133  0.2264 -0.0082 -0.2908
  822YOPE   PO412144  17.707  16.161   6.070  0.2016 -0.1954  0.1518
  822YOPE   GL112145  17.632  15.948   6.539 -0.2204 -0.0296  0.2729
  822YOPE   GL212146  17.487  15.592   6.569 -0.0717  0.1408  0.1070
  822YOPE   C1A12147  17.655  15.878   6.946 -0.0166  0.0451  0.0195
  822YOPE   D2A12148  17.866  15.801   7.434  0.1698  0.1115  0.3122
  822YOPE   C3A12149  17.669  15.847   7.847  0.2308 -0.2104 -0.2115
  822YOPE   C4A12150  17.650  16.308   8.110  0.0862 -0.2601 -0.0488
  822YOPE   C1B12151  17.184  15.555   6.851  0.1054  0.3668  0.0140
  822YOPE   C2B12152  17.182  15.609   7.292 -0.2472 -0.0080  0.2606
  822YOPE   D3B12153  17.241  15.557   7.731  0.3586  0.2875  0.2100
  822YOPE   C4B12154  17.037  15.432   8.047  0.1218  0.2870  0.0698
  823YOPE   NH312155  14.377   3.640   5.934 -0.1313 -0.0058 -0.1341
  823YOPE   PO412156  14.410   3.236   6.024 -0.0744  0.0616  0.1244
  823YOPE   GL112157  14.367   3.248   6.407 -0.4048  0.0807 -0.1103
  823YOPE   GL212158  14.593   3.209   6.623  0.0725 -0.2812  0.0370
  823YOPE   C1A12159  14.139   3.488   6.764 -0.0806  0.0714  0.0005
  823YOPE   D2A12160  14.117   3.426   7.238  0.0173 -0.3007 -0.1892
  823YOPE   C3A12161  14.080   3.581   7.641  0.1749 -0.1587 -0.1087
  823YOPE   C4A12162  14.239   3.743   8.090 -0.0890 -0.0325  0.0125
  823YOPE   C1B12163  14.439   3.118   7.056 -0.0544 -0.1969  0.0443
  823YOPE   C2B12164  14.134   2.940   7.387  0.0539  0.0824 -0.0157
  823YOPE   D3B12165  14.011   3.077   7.836  0.1672  0.2634  0.2458
  823YOPE   C4B12166  14.135   2.807   8.147  0.2035 -0.1788  0.0634
  824YOPE   NH312167  16.416   3.093   6.122 -0.4086  0.1725  0.0817
  824YOPE   PO412168  16.835   3.264   5.970  0.1660 -0.1757 -0.1849
  824YOPE   GL112169  16.788   3.228   6.411  0.0762 -0.0051 -0.2251
  824YOPE   GL212170  16.501   3.354   6.524  0.1676  0.1392 -0.0645
  824YOPE   C1A12171  17.005   3.292   6.887  0.1210  0.1800 -0.2730
  824YOPE   D2A12172  17.273   3.259   7.267 -0.0061  0.1652  0.0481
  824YOPE   C3A12173  17.714   3.162   7.293 -0.1739 -0.1024  0.0997
  824YOPE   C4A12174  18.018   3.411   7.578  0.2625  0.2044 -0.1356
  824YOPE   C1B12175  16.433   3.409   6.970 -0.0382 -0.0645  0.3813
  824YOPE   C2B12176  16.538   3.531   7.304 -0.1290 -0.0351  0.2254
  824YOPE   D3B12177  16.773   3.374   7.595 -0.0261  0.0219  0.1396
  824YOPE   C4B12178  17.122   3.505   7.795  0.1013  0.0575  0.1575
  825YOPE   NH312179   0.476   4.085   5.830  0.1454 -0.2955  0.2139
  825YOPE   PO412180   0.869   3.807   5.801  0.1731 -0.0263  0.0697
  825YOPE   GL112181   0.593   3.805   6.269 -0.0376 -0.1008  0.0678
  825YOPE   GL212182   0.350   3.526   6.391 -0.0974  0.2368 -0.3278
  825YOPE   C1A12183   0.716   3.901   6.699 -0.0965 -0.0304 -0.0568
  825YOPE   D2A12184   0.678   3.642   6.990  0.2302  0.2063  0.0533
  825YOPE   C3A12185   0.853   3.274   6.911 -0.4046  0.1086  0.1279
  825YOPE   C4A12186   1.230   3.132   6.847 -0.1675  0.0151  0.0142
  825YOPE   C1B12187   0.283   3.339   6.824  0.0631  0.2277  0.2820
  825YOPE   C2B12188   0.349   3.209   7.183 -0.0936 -0.1954  0.0672
  825YOPE   D3B12189   0.600   3.172   7.481  0.1421 -0.2000  0.0347
  825YOPE   C4B12190   0.714   3.366   7.837  0.1212 -0.2596  0.2076
  826YOPE   NH312191  16.884   2.236   5.680  0.0909 -0.0982  0.0340
  826YOPE   PO412192  16.499   2.521   5.917  0.1101  0.1512 -0.1680
  826YOPE   GL112193  16.440   2.441   6.323  0.1249 -0.0125 -0.0873
  826YOPE   GL212194  16.634   2.739   6.426  0.1483  0.0060  0.1721
  826YOPE   C1A12195  16.336   2.472   6.834  0.0230 -0.3035 -0.1290
  826YOPE   D2A12196  16.564   2.506   7.212 -0.2046 -0.0190  0.1807
  826YOPE   C3A12197  16.541   2.455   7.560  0.1474 -0.1972 -0.0369
  826YOPE   C4A12198  16.367   2.287   7.925 -0.2186  0.3000  0.0336
  826YOPE   C1B12199  16.604   2.909   6.878  0.2830 -0.1391 -0.0090
  826YOPE   C2B12200  16.842   2.961   7.243 -0.0165 -0.1446 -0.0588
  826YOPE   D3B12201  17.038   2.979   7.668 -0.5332  0.0668 -0.2909
  826YOPE   C4B12202  17.479   2.967   7.762 -0.1937 -0.3482 -0.1212
  827YOPE   NH312203   7.718   9.197   6.233  0.2323  0.1978 -0.2225
  827YOPE   PO412204   8.016   9.359   6.081  0.0262  0.0445 -0.0823
  827YOPE   GL112205   8.057   9.534   6.549 -0.1284  0.1048 -0.0476
  827YOPE   GL212206   7.819   9.402   6.848  0.0221 -0.3050  0.3910
  827YOPE   C1A12207   8.270   9.346   6.897 -0.0332  0.0577  0.1433
  827YOPE   D2A12208   8.453   9.295   7.290  0.2210  0.2541 -0.1957
  827YOPE   C3A12209   8.704   8.921   7.341 -0.0498  0.1459  0.1378
  827YOPE   C4A12210   9.029   8.700   7.284 -0.0855  0.2792 -0.0403
  827YOPE   C1B12211   7.920   9.282   7.255 -0.2893 -0.2516 -0.0999
  827YOPE   C2B12212   8.042   9.308   7.619 -0.2161  0.1331  0.1749
  827YOPE   D3B12213   8.081   9.537   7.933 -0.3881  0.0368 -0.0229
  827YOPE   C4B12214   8.274   9.714   8.263  0.1838 -0.2196  0.0555
  828YOPE   NH312215   5.589   2.967   6.245 -0.1602  0.1923  0.0926
  828YOPE   PO412216   5.299   2.626   6.108  0.3232 -0.4219  0.3298
  828YOPE   GL112217   5.343   2.705   6.606  0.0314  0.0177 -0.1286
  828YOPE   GL212218   5.252   2.878   6.733  0.1974  0.0313 -0.2664
  828YOPE   C1A12219   5.629   2.810   6.956 -0.1644  0.0488 -0.2017
  828YOPE   D2A12220   5.639   2.981   7.415  0.1652 -0.0839 -0.1533
  828YOPE   C3A12221   5.482   2.673   7.617  0.1768  0.0299  0.2632
  828YOPE   C4A12222   5.413   2.449   7.970 -0.0797 -0.1555 -0.2517
  828YOPE   C1B12223   5.187   2.600   7.164  0.1241  0.2798  0.0354
  828YOPE   C2B12224   5.005   2.249   7.130 -0.2450  0.1293  0.0304
  828YOPE   D3B12225   5.257   1.850   7.095 -0.0314  0.1489  0.2315
  828YOPE   C4B12226   5.159   1.414   7.141  0.1176 -0.2038  0.3758
  829YOPE   NH312227  12.415   2.476   6.173 -0.3982  0.1057 -0.2398
  829YOPE   PO412228  12.514   2.809   5.934  0.1396  0.0477 -0.0321
  829YOPE   GL112229  12.682   2.878   6.410 -0.0236 -0.1412 -0.1910
  829YOPE   GL212230  12.491   2.757   6.731 -0.2806 -0.5550  0.3050
  829YOPE   C1A12231  12.742   3.160   6.827 -0.0446  0.0882  0.0079
  829YOPE   D2A12232  12.759   3.437   7.228 -0.1145  0.0323 -0.0036
  829YOPE   C3A12233  12.665   3.256   7.678  0.0509 -0.0704 -0.0863
  829YOPE   C4A12234  12.281   3.367   7.846  0.0816 -0.3035 -0.1431
  829YOPE   C1B12235  12.416   2.551   7.121 -0.3005  0.2716  0.4225
  829YOPE   C2B12236  12.331   2.279   7.465  0.1061 -0.0639  0.0034
  829YOPE   D3B12237  12.234   1.970   7.844 -0.0785  0.0632 -0.0491
  829YOPE   C4B12238  12.025   1.663   8.163 -0.1272 -0.4149 -0.1962
  830YOPE   NH312239   4.042   6.071   6.068 -0.3013  0.2201 -0.0191
  830YOPE   PO412240   3.551   6.006   6.071 -0.1484 -0.1994  0.3133
  830YOPE   GL112241   3.518   6.078   6.480 -0.1092  0.0149 -0.1022
  830YOPE   GL212242   3.230   6.086   6.607  0.1102  0.2032  0.4772
  830YOPE   C1A12243   3.713   5.952   6.835  0.3755  0.0986  0.1416
  830YOPE   D2A12244   3.837   5.827   7.152 -0.1885  0.4682 -0.0475
  830YOPE   C3A12245   3.976   6.069   7.385 -0.0625 -0.3920 -0.0643
  830YOPE   C4A12246   3.995   6.330   7.805 -0.0381 -0.0749  0.1945
  830YOPE   C1B12247   3.272   6.124   6.991  0.0938  0.0319  0.1086
  830YOPE   C2B12248   3.459   6.054   7.367 -0.2224 -0.2507  0.3065
  830YOPE   D3B12249   3.597   5.877   7.666 -0.1774 -0.0184  0.3330
  830YOPE   C4B12250   3.590   5.595   7.897 -0.0580 -0.5793  0.2635
  831YOPE   NH312251  15.704   4.695   5.944 -0.4039  0.0733 -0.1052
  831YOPE   PO412252  16.074   4.930   6.142 -0.0421 -0.3094  0.2276
  831YOPE   GL112253  16.029   5.005   6.527  0.0194 -0.0509  0.0695
  831YOPE   GL212254  15.994   5.308   6.603 -0.0061 -0.0504 -0.0699
  831YOPE   C1A12255  15.792   4.844   6.879 -0.2144 -0.0977  0.1020
  831YOPE   D2A12256  15.634   4.697   7.221 -0.1192  0.2216  0.2077
  831YOPE   C3A12257  15.775   4.976   7.447 -0.2408 -0.0563 -0.1518
  831YOPE   C4A12258  16.110   5.164   7.379  0.0160 -0.1859 -0.3296
  831YOPE   C1B12259  15.815   5.335   6.974  0.0167 -0.1766  0.1276
  831YOPE   C2B12260  15.585   5.533   7.313  0.2262 -0.2300  0.1922
  831YOPE   D3B12261  15.699   5.383   7.722 -0.0835  0.0800 -0.1206
  831YOPE   C4B12262  16.002   5.056   7.878  0.0217  0.2584  0.0765
  832YOPE   NH312263   3.325  11.789   5.762 -0.2149  0.0148 -0.1886
  832YOPE   PO412264   3.783  11.814   5.870  0.0133  0.1568 -0.0133
  832YOPE   GL112265   3.601  11.798   6.223  0.0910  0.2617 -0.4399
  832YOPE   GL212266   3.804  11.626   6.365 -0.4059  0.2021 -0.1059
  832YOPE   C1A12267   3.366  11.638   6.524 -0.0629 -0.2861 -0.1879
  832YOPE   D2A12268   3.075  11.353   6.745  0.0492 -0.1660 -0.0112
  832YOPE   C3A12269   3.014  11.391   7.248  0.2240 -0.0714 -0.0286
  832YOPE   C4A12270   2.864  11.565   7.619 -0.2178  0.0589 -0.2337
  832YOPE   C1B12271   3.805  11.715   6.796  0.0634 -0.1456 -0.4340
  832YOPE   C2B12272   3.700  11.625   7.192  0.1114  0.4178 -0.1186
  832YOPE   D3B12273   3.823  11.454   7.568  0.1129 -0.1862  0.0358
  832YOPE   C4B12274   3.637  11.257   7.971  0.1231 -0.1015 -0.3179
  833YOPE   NH312275   5.188   2.111   6.186  0.1909  0.3757  0.0187
  833YOPE   PO412276   4.768   1.991   6.122 -0.0889  0.0327  0.3492
  833YOPE   GL112277   4.591   1.806   6.518 -0.0433  0.0180 -0.0107
  833YOPE   GL212278   4.196   1.683   6.502 -0.1056  0.0755 -0.2886
  833YOPE   C1A12279   4.739   1.789   6.891 -0.2756 -0.1643 -0.2998
  833YOPE   D2A12280   4.830   1.740   7.320 -0.1577 -0.2221 -0.2882
  833YOPE   C3A12281   5.032   1.532   7.722 -0.3112 -0.0762 -0.1119
  833YOPE   C4A12282   5.099   1.579   8.208  0.0660 -0.1813  0.4195
  833YOPE   C1B12283   4.303   1.626   6.979  0.0341 -0.0137  0.0507
  833YOPE   C2B12284   4.357   1.570   7.357 -0.2619  0.2373  0.0805
  833YOPE   D3B12285   4.489   1.611   7.848 -0.1190 -0.0579  0.2849
  833YOPE   C4B12286   4.572   1.447   8.254 -0.0391 -0.1146 -0.0702
  834YOPE   NH312287   9.821   7.812   6.669  0.0085  0.3813  0.1040
  834YOPE   PO412288   9.336   7.804   6.627  0.0895  0.5896  0.1838
  834YOPE   GL112289   9.237   7.786   7.058 -0.2596  0.0589  0.2149
  834YOPE   GL212290   8.991   7.586   7.042 -0.2285 -0.2314  0.2797
  834YOPE   C1A12291   9.343   7.836   7.459  0.1038  0.2310 -0.0613
  834YOPE   D2A12292   9.394   7.942   7.860 -0.0477 -0.1096  0.0610
  834YOPE   C3A12293   9.051   7.760   8.045  0.0562  0.1459 -0.0329
  834YOPE   C4A12294   8.933   7.771   8.461 -0.1469  0.1948  0.0662
  834YOPE   C1B12295   8.734   7.549   7.323  0.1705 -0.0548  0.2079
  834YOPE   C2B12296   8.438   7.734   7.653 -0.1414 -0.2127 -0.3821
  834YOPE   D3B12297   8.383   7.908   8.095 -0.1055 -0.1123  0.0446
  834YOPE   C4B12298   8.375   7.723   8.445  0.2475 -0.3241  0.0983
  835YOPE   NH312299   2.398  10.005   5.855 -0.0346 -0.1954 -0.0664
  835YOPE   PO412300   2.176   9.771   6.039  0.0155  0.0345 -0.0780
  835YOPE   GL112301   2.470   9.670   6.343  0.1815  0.3278 -0.0870
  835YOPE   GL212302   2.469   9.368   6.319  0.1071  0.1971 -0.0178
  835YOPE   C1A12303   2.458   9.711   6.865  0.0453  0.0161  0.2955
  835YOPE   D2A12304   2.430   9.904   7.293  0.2393 -0.0151 -0.0750
  835YOPE   C3A12305   2.544  10.094   7.642 -0.3380 -0.1282 -0.0647
  835YOPE   C4A12306   2.512  10.449   7.941 -0.1382  0.1700  0.1536
  835YOPE   C1B12307   2.641   9.273   6.766  0.0902  0.0545  0.0130
  835YOPE   C2B12308   2.629   9.351   7.167 -0.0589 -0.1192 -0.1193
  835YOPE   D3B12309   2.506   9.474   7.573 -0.1728  0.2871  0.0740
  835YOPE   C4B12310   2.389   9.577   8.060  0.1780  0.1010 -0.1854
  836YOPE   NH312311   6.743   6.296   6.627 -0.2823 -0.0123 -0.0628
  836YOPE   PO412312   7.103   6.045   6.349 -0.0963  0.0760  0.0361
  836YOPE   GL112313   7.099   5.916   6.786  0.0267 -0.0478  0.1887
  836YOPE   GL212314   6.886   5.700   6.984  0.1235 -0.0413 -0.0552
  836YOPE   C1A12315   7.095   6.086   7.171 -0.2010 -0.0325  0.0441
  836YOPE   D2A12316   7.070   6.229   7.492  0.0230  0.2056 -0.0966
  836YOPE   C3A12317   7.379   6.092   7.865  0.1030  0.2171  0.2183
  836YOPE   C4A12318   7.698   6.157   8.138 -0.0745  0.0422 -0.1707
  836YOPE   C1B12319   6.787   5.508   7.395  0.2970 -0.2000  0.1689
  836YOPE   C2B12320   6.578   5.409   7.788 -0.1911 -0.0138  0.2599
  836YOPE   D3B12321   6.324   5.203   7.988 -0.1495 -0.0781 -0.0014
  836YOPE   C4B12322   6.204   4.893   8.250  0.0413 -0.0075  0.0911
  837YOPE   NH312323   1.027  14.079   6.409 -0.0257  0.0302  0.1468
  837YOPE   PO412324   0.755  14.304   6.280  0.3137 -0.1391 -0.0015
  837YOPE   GL112325   0.776  14.517   6.635  0.0944 -0.1665  0.0256
  837YOPE   GL212326   0.956  14.816   6.687 -0.1671  0.1334  0.2605
  837YOPE   C1A12327   0.497  14.634   6.891  0.0160 -0.1413  0.0141
  837YOPE   D2A12328   0.252  14.908   7.064 -0.1246 -0.1890 -0.1744
  837YOPE   C3A12329   0.226  14.920   7.513 -0.3242 -0.0482 -0.0774
  837YOPE   C4A12330   0.263  15.162   7.942  0.0445  0.1482 -0.1787
  837YOPE   C1B12331   0.818  15.042   7.072  0.1337  0.3671 -0.1157
  837YOPE   C2B12332   0.728  14.984   7.463 -0.0675 -0.1801 -0.2076
  837YOPE   D3B12333   0.711  15.306   7.838 -0.1666  0.4090 -0.0126
  837YOPE   C4B12334   0.717  15.350   8.191  0.3896 -0.0347 -0.0084
  838YOPE   NH312335  11.643   6.633   6.408 -0.0437  0.0288  0.3903
  838YOPE   PO412336  11.284   6.846   6.406  0.2578 -0.0272  0.1659
  838YOPE   GL112337  11.404   7.205   6.694  0.2796  0.0676  0.1461
  838YOPE   GL212338  11.155   7.405   6.851  0.1443 -0.0117 -0.0407
  838YOPE   C1A12339  11.423   7.170   7.170  0.2741 -0.1748  0.4889
  838YOPE   D2A12340  11.210   6.956   7.359  0.0448  0.2007  0.3266
  838YOPE   C3A12341  11.259   6.677   7.621 -0.2217  0.0501 -0.1615
  838YOPE   C4A12342  11.348   6.691   8.033  0.2539  0.2069  0.0599
  838YOPE   C1B12343  11.234   7.663   7.215  0.0778  0.0883 -0.0794
  838YOPE   C2B12344  11.234   7.816   7.616  0.1538  0.1372  0.1125
  838YOPE   D3B12345  11.298   7.881   7.979 -0.2491  0.2061 -0.0687
  838YOPE   C4B12346  11.324   7.974   8.458  0.0904 -0.0886 -0.0782
  839YOPE   NH312347   8.508   9.439   6.317 -0.0612  0.0143 -0.1579
  839YOPE   PO412348   8.641   9.885   6.053  0.2893 -0.0432 -0.0211
  839YOPE   GL112349   8.516   9.951   6.495 -0.0042  0.2932  0.1266
  839YOPE   GL212350   8.147  10.047   6.575  0.3276  0.0557  0.2070
  839YOPE   C1A12351   8.559  10.267   6.760 -0.1641  0.0976 -0.4921
  839YOPE   D2A12352   8.450  10.231   7.166 -0.0923 -0.1400  0.1968
  839YOPE   C3A12353   8.431  10.234   7.614 -0.1588 -0.0653 -0.0698
  839YOPE   C4A12354   8.304  10.188   8.023  0.0582 -0.2536 -0.1632
  839YOPE   C1B12355   8.079   9.815   6.964  0.1314 -0.1778  0.1223
  839YOPE   C2B12356   7.669   9.815   7.190  0.0297  0.0481  0.2362
  839YOPE   D3B12357   7.493   9.431   7.423  0.0908 -0.1985  0.1346
  839YOPE   C4B12358   7.477   9.155   7.873 -0.2802  0.2301  0.0141
  840YOPE   NH312359   8.868  16.719   5.858 -0.0705  0.0560  0.3302
  840YOPE   PO412360   8.450  16.924   5.785  0.0432 -0.2282 -0.1327
  840YOPE   GL112361   8.263  16.855   6.198 -0.2312 -0.0160 -0.3580
  840YOPE   GL212362   8.386  17.158   6.352 -0.1506  0.0123  0.0905
  840YOPE   C1A12363   7.909  17.066   6.435  0.1993  0.0187 -0.0018
  840YOPE   D2A12364   7.772  17.444   6.283 -0.1223 -0.0154 -0.1194
  840YOPE   C3A12365   7.769  17.744   6.600 -0.3862  0.0259  0.0206
  840YOPE   C4A12366   7.686  17.891   7.014 -0.1965 -0.0141 -0.1482
  840YOPE   C1B12367   8.152  17.423   6.650 -0.0891  0.1575 -0.1534
  840YOPE   C2B12368   8.155  17.669   7.016 -0.0490  0.0066 -0.1115
  840YOPE   D3B12369   8.490  17.657   7.321 -0.0334  0.0215  0.1284
  840YOPE   C4B12370   8.411  17.694   7.688 -0.0487  0.1756  0.2716
  841YOPE   NH312371  10.033   2.171   6.088  0.1240 -0.2436  0.0134
  841YOPE   PO412372   9.688   2.316   6.312  0.1880 -0.0877  0.2097
  841YOPE   GL112373   9.925   2.278   6.659  0.1998  0.0315  0.1018
  841YOPE   GL212374  10.016   2.433   6.809 -0.0616 -0.0302  0.0629
  841YOPE   C1A12375   9.887   1.942   6.973  0.1043 -0.1485 -0.0122
  841YOPE   D2A12376   9.952   1.906   7.385 -0.0073  0.3432 -0.0173
  841YOPE   C3A12377   9.760   2.084   7.774  0.2337 -0.3453 -0.0526
  841YOPE   C4A12378   9.793   1.924   8.241  0.0567 -0.2878 -0.1876
  841YOPE   C1B12379  10.072   2.333   7.197 -0.3867  0.0075  0.0527
  841YOPE   C2B12380  10.226   2.276   7.616  0.0392 -0.0527 -0.1262
  841YOPE   D3B12381  10.038   2.469   7.980  0.0750  0.0341  0.0070
  841YOPE   C4B12382  10.304   2.517   8.432  0.2031  0.0601 -0.1835
  842YOPE   NH312383   0.974  14.765   6.206  0.0808  0.0234  0.1145
  842YOPE   PO412384   1.290  14.499   6.317  0.3070  0.3771 -0.0498
  842YOPE   GL112385   1.296  14.472   6.828 -0.0429 -0.0477 -0.1300
  842YOPE   GL212386   1.162  14.212   6.881 -0.2166  0.2224  0.0110
  842YOPE   C1A12387   0.923  14.585   7.157 -0.1146 -0.1399  0.2254
  842YOPE   D2A12388   0.576  14.569   7.451 -0.2003  0.2045  0.3136
  842YOPE   C3A12389   0.519  14.666   7.869  0.0307  0.0246 -0.0103
  842YOPE   C4A12390   0.611  14.545   8.223  0.1549  0.1928  0.2257
  842YOPE   C1B12391   1.193  14.194   7.280 -0.1461  0.0814  0.0873
  842YOPE   C2B12392   1.222  14.155   7.658  0.2504 -0.2796  0.3053
  842YOPE   D3B12393   1.006  14.276   8.136 -0.0999 -0.0404  0.0637
  842YOPE   C4B12394   1.119  14.123   8.533 -0.0399  0.3005  0.3371
  843YOPE   NH312395  15.074   4.217   6.178 -0.1932  0.0273  0.3965
  843YOPE   PO412396  14.740   3.993   6.025  0.0844  0.1034 -0.0565
  843YOPE   GL112397  14.797   3.772   6.357 -0.2326 -0.0754 -0.0316
  843YOPE   GL212398  14.474   3.778   6.400 -0.0776  0.2515 -0.1280
  843YOPE   C1A12399  14.772   3.668   6.772 -0.2369 -0.3574 -0.0850
  843YOPE   D2A12400  14.541   3.611   7.029  0.1075 -0.1243  0.0006
  843YOPE   C3A12401  14.560   3.649   7.456  0.2450  0.0789 -0.0748
  843YOPE   C4A12402  14.497   3.294   7.552  0.2640 -0.0692  0.2024
  843YOPE   C1B12403  14.225   3.962   6.812 -0.0552  0.0953 -0.1368
  843YOPE   C2B12404  14.213   3.949   7.250  0.3047  0.0607  0.0366
  843YOPE   D3B12405  14.194   4.055   7.720 -0.0552  0.2304  0.0734
  843YOPE   C4B12406  13.882   4.203   8.016 -0.0191  0.0139 -0.1730
  844YOPE   NH312407   4.386  17.169   6.241  0.0438 -0.2594  0.1697
  844YOPE   PO412408   4.424  16.887   6.151  0.1546  0.1029  0.0224
  844YOPE   GL112409   4.520  16.703   6.438  0.0824 -0.0067  0.2099
  844YOPE   GL212410   4.266  16.708   6.638 -0.1548 -0.3483  0.1309
  844YOPE   C1A12411   4.704  16.678   6.914 -0.0513  0.1859  0.0579
  844YOPE   D2A12412   4.709  16.609   7.347  0.2901  0.3232 -0.3341
  844YOPE   C3A12413   4.543  16.387   7.702  0.0230 -0.1612  0.1223
  844YOPE   C4A12414   4.294  16.226   7.923  0.3031  0.0580  0.3072
  844YOPE   C1B12415   4.038  16.701   6.873  0.1018 -0.0290  0.0543
  844YOPE   C2B12416   3.630  16.728   7.065  0.2525  0.2087 -0.1891
  844YOPE   D3B12417   3.230  16.934   7.157 -0.1408  0.1225  0.0539
  844YOPE   C4B12418   2.979  17.205   7.481  0.4148  0.0179 -0.1504
  845YOPE   NH312419   2.388   2.873   6.221  0.0395  0.0856 -0.2220
  845YOPE   PO412420   2.670   2.614   6.438  0.1894  0.0161  0.1037
  845YOPE   GL112421   2.572   2.820   6.797 -0.4766  0.0929 -0.0719
  845YOPE   GL212422   2.809   2.546   6.967 -0.3404 -0.1401  0.0630
  845YOPE   C1A12423   2.368   2.821   7.240  0.0814 -0.1863  0.1346
  845YOPE   D2A12424   2.303   2.654   7.610  0.1377 -0.3245  0.0783
  845YOPE   C3A12425   2.511   2.489   7.832  0.0133  0.3915  0.3249
  845YOPE   C4A12426   2.556   2.270   8.276 -0.0373  0.0344  0.0009
  845YOPE   C1B12427   2.768   2.483   7.364 -0.1913  0.0261  0.0184
  845YOPE   C2B12428   3.007   2.596   7.751  0.0030  0.2502  0.1164
  845YOPE   D3B12429   3.398   2.583   7.957  0.1046  0.1183  0.0246
  845YOPE   C4B12430   3.575   2.418   8.335 -0.0043 -0.1465 -0.2235
  846YOPE   NH312431  10.063   4.444   6.405 -0.1141  0.0295  0.0026
  846YOPE   PO412432  10.278   4.116   6.592  0.3265  0.3531  0.1877
  846YOPE   GL112433  10.434   4.095   6.977  0.2465 -0.1960 -0.0025
  846YOPE   GL212434  10.724   4.182   7.016 -0.1252  0.1980  0.1785
  846YOPE   C1A12435  10.448   4.023   7.360  0.0073 -0.1097 -0.1626
  846YOPE   D2A12436  10.196   4.117   7.761  0.0494 -0.2731 -0.0228
  846YOPE   C3A12437  10.173   4.276   8.156 -0.0848 -0.0815  0.0399
  846YOPE   C4A12438  10.337   4.583   8.402  0.2922  0.1964  0.0522
  846YOPE   C1B12439  10.885   4.293   7.471  0.1487 -0.0125 -0.1385
  846YOPE   C2B12440  10.685   4.237   7.881 -0.4050 -0.3766  0.1037
  846YOPE   D3B12441  10.617   3.918   8.244  0.0315 -0.3469 -0.1864
  846YOPE   C4B12442  10.285   3.947   8.646 -0.1211 -0.0097  0.0688
  847YOPE   NH312443  10.291   1.402   6.180 -0.1061  0.1257 -0.0335
  847YOPE   PO412444   9.836   1.314   6.029  0.2103  0.1156  0.1562
  847YOPE   GL112445   9.811   1.524   6.476 -0.0410 -0.1963  0.1827
  847YOPE   GL212446   9.668   1.797   6.377  0.0081  0.1745  0.0149
  847YOPE   C1A12447   9.700   1.406   6.892 -0.0789 -0.0467  0.0277
  847YOPE   D2A12448   9.722   1.470   7.347  0.0181  0.0078  0.1727
  847YOPE   C3A12449   9.939   1.263   7.526 -0.0225  0.2594  0.4984
  847YOPE   C4A12450   9.883   1.087   7.829  0.2154  0.0240  0.1069
  847YOPE   C1B12451   9.443   1.972   6.721  0.2591 -0.1357 -0.0720
  847YOPE   C2B12452   9.474   1.893   7.147 -0.2131  0.0503 -0.1950
  847YOPE   D3B12453   9.413   1.809   7.561  0.0215  0.0112 -0.2413
  847YOPE   C4B12454   9.191   2.020   7.914 -0.5166 -0.1115 -0.0420
  848YOPE   NH312455   9.566  17.231   6.080  0.0350  0.0952  0.1417
  848YOPE   PO412456   9.072  17.087   6.127 -0.2900 -0.4535  0.3232
  848YOPE   GL112457   8.756  16.817   6.325 -0.0970  0.1676 -0.0135
  848YOPE   GL212458   9.032  16.726   6.535 -0.1739 -0.0704  0.0856
  848YOPE   C1A12459   8.563  16.924   6.717  0.1960  0.0489 -0.1517
  848YOPE   D2A12460   8.504  17.137   7.099  0.2944 -0.1648  0.0942
  848YOPE   C3A12461   8.211  17.151   7.389  0.0807  0.2732 -0.0220
  848YOPE   C4A12462   7.977  17.194   7.808  0.0293 -0.1727 -0.0421
  848YOPE   C1B12463   8.892  16.731   7.031 -0.1323 -0.0401 -0.2864
  848YOPE   C2B12464   8.729  16.891   7.404  0.0725 -0.0042  0.4050
  848YOPE   D3B12465   8.598  17.188   7.704 -0.1119  0.2776 -0.1867
  848YOPE   C4B12466   8.753  17.226   8.172  0.2171 -0.0972  0.2431
  849YOPE   NH312467  17.258   3.509   5.976 -0.0026 -0.1499  0.0506
  849YOPE   PO412468  17.712   3.406   5.936 -0.2391 -0.0576 -0.1681
  849YOPE   GL112469  17.707   3.278   6.340 -0.0572  0.0012 -0.1365
  849YOPE   GL212470  17.892   3.002   6.464 -0.1416 -0.1379  0.1009
  849YOPE   C1A12471  17.600   3.350   6.811  0.3640  0.0019 -0.2339
  849YOPE   D2A12472  17.522   3.703   7.052 -0.2598 -0.2092  0.0048
  849YOPE   C3A12473  17.465   3.688   7.459 -0.0276 -0.0413 -0.3827
  849YOPE   C4A12474  17.642   3.556   7.889  0.2428  0.1120  0.2492
  849YOPE   C1B12475  17.905   2.927   6.883 -0.0228  0.2098  0.2996
  849YOPE   C2B12476  17.977   2.752   7.287 -0.2407  0.0497  0.0330
  849YOPE   D3B12477  18.028   2.830   7.702  0.1724 -0.2333  0.2096
  849YOPE   C4B12478  17.861   3.128   8.066 -0.0933  0.1822  0.2800
  850YOPE   NH312479  17.280   8.987   6.399  0.0238  0.1787 -0.0017
  850YOPE   PO412480  16.934   9.030   6.084 -0.1502 -0.2990  0.0549
  850YOPE   GL112481  16.781   9.172   6.456  0.4991  0.0125 -0.1315
  850YOPE   GL212482  17.058   9.337   6.721  0.1702 -0.2479  0.1326
  850YOPE   C1A12483  16.574   9.237   6.815 -0.0738 -0.0865  0.0450
  850YOPE   D2A12484  16.521   9.117   7.241 -0.0144  0.2336 -0.0049
  850YOPE   C3A12485  16.332   9.055   7.628  0.1226  0.2141 -0.1313
  850YOPE   C4A12486  16.510   9.152   7.998 -0.0944  0.1113  0.0582
  850YOPE   C1B12487  16.897   9.488   7.103  0.2091  0.0763  0.1591
  850YOPE   C2B12488  16.808   9.347   7.569  0.0910  0.1990  0.3456
  850YOPE   D3B12489  16.711   9.601   7.884  0.0606  0.2921 -0.1475
  850YOPE   C4B12490  16.512   9.630   8.242  0.4149 -0.2317  0.2988
  851YOPE   NH312491   6.384  11.522   6.237  0.4191 -0.0508  0.0974
  851YOPE   PO412492   6.331  11.867   5.845 -0.2246 -0.0531 -0.1651
  851YOPE   GL112493   6.165  12.100   6.162  0.0572  0.1318  0.0991
  851YOPE   GL212494   5.853  12.005   6.248 -0.1468  0.0505  0.3408
  851YOPE   C1A12495   6.085  12.367   6.546  0.1932  0.2266 -0.0553
  851YOPE   D2A12496   5.856  12.507   6.854  0.2944 -0.3231 -0.0803
  851YOPE   C3A12497   5.737  12.326   7.179 -0.4077  0.0266  0.2928
  851YOPE   C4A12498   5.787  12.344   7.580  0.2406 -0.0543 -0.1962
  851YOPE   C1B12499   5.769  11.919   6.716  0.0020 -0.2133 -0.2764
  851YOPE   C2B12500   5.689  11.863   7.132  0.1205  0.0269  0.2185
  851YOPE   D3B12501   5.641  11.792   7.529 -0.0295  0.0540  0.1312
  851YOPE   C4B12502   5.830  11.928   7.915  0.2996  0.2718  0.3210
  852YOPE   NH312503   0.313  10.825   6.538  0.0157  0.0610  0.2130
  852YOPE   PO412504   0.004  11.097   6.473  0.1208 -0.1037 -0.1795
  852YOPE   GL112505  -0.067  11.072   6.852  0.2192  0.1074 -0.0470
  852YOPE   GL212506   0.095  10.926   6.959 -0.3101 -0.0368  0.3703
  852YOPE   C1A12507  -0.295  11.136   7.254 -0.2238  0.0230  0.4159
  852YOPE   D2A12508  -0.352  11.144   7.652  0.2327  0.0166  0.0567
  852YOPE   C3A12509  -0.601  11.360   7.937 -0.1065 -0.1028  0.1909
  852YOPE   C4A12510  -0.665  11.468   8.349  0.2544 -0.0351  0.2187
  852YOPE   C1B12511   0.170  10.874   7.391 -0.1829  0.2048  0.3508
  852YOPE   C2B12512   0.141  11.037   7.781  0.0617 -0.1755 -0.0369
  852YOPE   D3B12513   0.105  10.980   8.302 -0.2693 -0.1096  0.1562
  852YOPE   C4B12514  -0.158  10.777   8.527 -0.1157  0.0649 -0.2612
  853YOPE   NH312515   9.254   1.652   6.039  0.2270  0.3606  0.0109
  853YOPE   PO412516   9.314   1.140   6.027 -0.4083  0.0485  0.1286
  853YOPE   GL112517   9.434   1.225   6.383 -0.0382 -0.3046  0.1762
  853YOPE   GL212518   9.297   1.521   6.575  0.0871  0.0415 -0.0377
  853YOPE   C1A12519   9.663   0.943   6.633 -0.0434  0.1804 -0.0077
  853YOPE   D2A12520   9.491   0.582   6.881  0.0122  0.3490 -0.2190
  853YOPE   C3A12521   9.109   0.593   7.127 -0.3632  0.1259  0.1325
  853YOPE   C4A12522   8.788   0.744   7.442  0.3909  0.2663 -0.0046
  853YOPE   C1B12523   9.043   1.574   7.001  0.1991  0.2178 -0.2708
  853YOPE   C2B12524   8.921   1.676   7.485 -0.2713 -0.2727  0.4616
  853YOPE   D3B12525   9.064   1.576   7.933 -0.0444 -0.0690 -0.2756
  853YOPE   C4B12526   9.338   1.638   8.249 -0.1086 -0.1194 -0.0881
  854YOPE   NH312527  12.368  15.205   6.289 -0.0575 -0.1482 -0.0810
  854YOPE   PO412528  12.537  14.882   6.294 -0.2576 -0.1831 -0.1166
  854YOPE   GL112529  12.797  14.925   6.581  0.0608  0.0573  0.0257
  854YOPE   GL212530  13.156  15.093   6.537  0.1983  0.1063 -0.1925
  854YOPE   C1A12531  12.896  14.903   7.078  0.0547 -0.0693  0.0704
  854YOPE   D2A12532  13.183  14.879   7.397  0.0573  0.1998 -0.0640
  854YOPE   C3A12533  13.362  14.628   7.585 -0.2156 -0.2593 -0.4088
  854YOPE   C4A12534  13.206  14.495   8.038 -0.2245  0.2832  0.2123
  854YOPE   C1B12535  13.290  15.171   7.009 -0.0036 -0.0959 -0.1320
  854YOPE   C2B12536  13.277  15.323   7.500  0.0252  0.0335 -0.1795
  854YOPE   D3B12537  13.401  15.009   7.889  0.1360  0.0243  0.0053
  854YOPE   C4B12538  13.411  15.033   8.411 -0.0888 -0.0724  0.1120
  855YOPE   NH312539   4.874   8.391   5.936  0.2565  0.1699 -0.0312
  855YOPE   PO412540   4.984   8.750   6.136  0.1317  0.1656  0.4627
  855YOPE   GL112541   4.972   9.143   6.378  0.2636  0.1448  0.0709
  855YOPE   GL212542   5.188   9.241   6.376 -0.0271 -0.3771 -0.0415
  855YOPE   C1A12543   4.989   8.980   6.892  0.1090 -0.0263  0.1627
  855YOPE   D2A12544   5.048   8.833   7.216  0.1752  0.1743 -0.2339
  855YOPE   C3A12545   4.924   9.005   7.590 -0.1089 -0.1625  0.2736
  855YOPE   C4A12546   5.066   9.381   7.871 -0.2174  0.1019 -0.0460
  855YOPE   C1B12547   5.458   9.116   6.762 -0.0013 -0.2858 -0.0833
  855YOPE   C2B12548   5.509   9.143   7.183 -0.0025 -0.1089 -0.0475
  855YOPE   D3B12549   5.443   9.032   7.576  0.1650  0.2447 -0.0026
  855YOPE   C4B12550   5.591   9.155   7.976  0.0773 -0.0680  0.0353
  856YOPE   NH312551  16.685  15.518   6.027  0.0814 -0.2379 -0.3431
  856YOPE   PO412552  17.065  15.477   6.200 -0.1714 -0.1876  0.0649
  856YOPE   GL112553  16.850  15.735   6.491  0.1314  0.1167 -0.0686
  856YOPE   GL212554  16.662  16.092   6.486  0.0759  0.1014  0.0070
  856YOPE   C1A12555  16.669  15.820   6.863 -0.4251 -0.0815 -0.1305
  856YOPE   D2A12556  16.843  15.986   7.235  0.0731 -0.0575 -0.0868
  856YOPE   C3A12557  16.762  15.729   7.660 -0.4533 -0.0104  0.1203
  856YOPE   C4A12558  16.451  15.414   7.760 -0.0630 -0.0872  0.1902
  856YOPE   C1B12559  16.785  16.365   6.871 -0.3279  0.1433 -0.2692
  856YOPE   C2B12560  17.072  16.459   7.164  0.0426 -0.2934  0.1288
  856YOPE   D3B12561  17.264  16.654   7.450 -0.0862 -0.1016 -0.1753
  856YOPE   C4B12562  17.351  16.760   7.880  0.1145  0.1689  0.1266
  857YOPE   NH312563  13.638  10.939   6.012 -0.2232  0.4067 -0.1254
  857YOPE   PO412564  14.122  10.789   6.032  0.1005 -0.1704  0.3065
  857YOPE   GL112565  13.768  10.578   6.422 -0.0715 -0.1039 -0.1917
  857YOPE   GL212566  13.425  10.614   6.391 -0.1347  0.0231 -0.1058
  857YOPE   C1A12567  13.764  10.621   6.887  0.1190 -0.1417  0.0372
  857YOPE   D2A12568  13.710  10.858   7.089  0.0049 -0.1328 -0.1535
  857YOPE   C3A12569  13.688  10.765   7.545  0.1068  0.1036  0.0481
  857YOPE   C4A12570  13.480  10.876   7.932 -0.0051 -0.0044 -0.0941
  857YOPE   C1B12571  13.306  10.781   6.811  0.0259  0.0066  0.0396
  857YOPE   C2B12572  13.307  11.021   7.307 -0.0581  0.0325 -0.1543
  857YOPE   D3B12573  13.302  11.336   7.648  0.1931  0.0880  0.1585
  857YOPE   C4B12574  13.360  11.696   7.867 -0.0352 -0.0892 -0.1564
  858YOPE   NH312575   7.784  14.277   6.141  0.0766 -0.1030  0.2901
  858YOPE   PO412576   7.551  13.898   6.263  0.1631 -0.3426 -0.2528
  858YOPE   GL112577   7.368  14.165   6.518 -0.0212 -0.2879 -0.1762
  858YOPE   GL212578   7.043  14.256   6.432 -0.0801  0.0608 -0.0936
  858YOPE   C1A12579   7.421  14.225   7.010  0.1504 -0.1816 -0.0108
  858YOPE   D2A12580   7.258  14.173   7.417 -0.2387  0.2147  0.0791
  858YOPE   C3A12581   7.331  14.438   7.747  0.1662  0.0125  0.0342
  858YOPE   C4A12582   7.441  14.469   8.144 -0.1695 -0.0343 -0.1091
  858YOPE   C1B12583   6.910  14.256   6.844 -0.0271  0.1028  0.1127
  858YOPE   C2B12584   6.749  14.208   7.240  0.1756  0.0195  0.0666
  858YOPE   D3B12585   6.848  14.239   7.751  0.0408 -0.0135  0.2467
  858YOPE   C4B12586   6.801  14.140   8.198 -0.1116 -0.1583  0.2650
  859YOPE   NH312587   0.413  15.467   6.239  0.0892  0.1822 -0.3020
  859YOPE   PO412588   0.010  15.624   6.184  0.3260 -0.2895 -0.3388
  859YOPE   GL112589   0.116  15.603   6.617  0.0453  0.0919 -0.1429
  859YOPE   GL212590   0.266  15.879   6.656  0.0058  0.0001 -0.2128
  859YOPE   C1A12591   0.279  15.577   7.057 -0.2245 -0.2466 -0.0916
  859YOPE   D2A12592   0.362  15.394   7.425  0.0564 -0.3638  0.1585
  859YOPE   C3A12593   0.301  15.670   7.833 -0.0898  0.1652 -0.1709
  859YOPE   C4A12594   0.226  16.094   8.023  0.0021  0.0863  0.0486
  859YOPE   C1B12595   0.173  16.249   6.761 -0.1789 -0.3604 -0.2001
  859YOPE   C2B12596   0.176  16.642   6.873  0.2684 -0.3274  0.2831
  859YOPE   D3B12597  -0.110  16.915   6.936  0.3699 -0.0130 -0.2564
  859YOPE   C4B12598  -0.137  16.796   7.412 -0.0050 -0.0839  0.5276
  860YOPE   NH312599  10.617   3.826   6.166  0.4560  0.0099  0.3558
  860YOPE   PO412600  10.705   3.466   6.279  0.0063  0.1376 -0.3618
  860YOPE   GL112601  10.599   3.661   6.698  0.0638 -0.3942  0.1679
  860YOPE   GL212602  10.916   3.724   6.750 -0.0902  0.0698  0.0682
  860YOPE   C1A12603  10.540   3.523   7.163 -0.0955  0.0739 -0.0237
  860YOPE   D2A12604  10.370   3.571   7.430 -0.0577 -0.2535 -0.1104
  860YOPE   C3A12605  10.357   3.645   7.825  0.1178 -0.2583 -0.0443
  860YOPE   C4A12606  10.046   3.795   8.204  0.0497 -0.0020 -0.1145
  860YOPE   C1B12607  10.990   3.822   7.212  0.2200  0.1357 -0.1540
  860YOPE   C2B12608  10.816   3.747   7.560 -0.1055 -0.0262  0.1219
  860YOPE   D3B12609  10.961   3.657   7.875 -0.0521 -0.0569 -0.0728
  860YOPE   C4B12610  11.069   3.560   8.319 -0.1682 -0.1827 -0.1064
  861YOPE   NH312611   1.156  16.152   6.227  0.1869  0.0030  0.0002
  861YOPE   PO412612   1.555  16.086   6.054 -0.3914  0.0272 -0.1397
  861YOPE   GL112613   1.647  16.125   6.471 -0.2350 -0.3233 -0.0215
  861YOPE   GL212614   2.011  16.054   6.401  0.1104  0.1256  0.1466
  861YOPE   C1A12615   1.686  16.123   6.852  0.1959  0.1269  0.1779
  861YOPE   D2A12616   1.574  16.191   7.262 -0.1597  0.0633 -0.3371
  861YOPE   C3A12617   1.802  15.960   7.596 -0.2436  0.1086  0.0239
  861YOPE   C4A12618   1.618  15.872   7.976  0.1112  0.0888  0.0721
  861YOPE   C1B12619   2.169  16.017   6.844 -0.1674  0.3438  0.1282
  861YOPE   C2B12620   2.293  15.974   7.269 -0.0159  0.2032 -0.0464
  861YOPE   D3B12621   2.297  16.106   7.620  0.1035  0.0623  0.0511
  861YOPE   C4B12622   2.378  16.467   7.823  0.0776  0.1732  0.3642
  862YOPE   NH312623  14.349   6.109   6.058 -0.2876  0.0784  0.2001
  862YOPE   PO412624  14.729   6.219   6.276 -0.1164  0.0670  0.0837
  862YOPE   GL112625  14.936   6.204   6.627  0.4430 -0.3012  0.1302
  862YOPE   GL212626  14.638   6.384   6.834 -0.1154 -0.0100  0.2301
  862YOPE   C1A12627  14.894   6.003   6.979  0.1110 -0.2487 -0.2625
  862YOPE   D2A12628  14.620   5.898   7.317 -0.0415  0.2969 -0.3045
  862YOPE   C3A12629  14.682   5.624   7.659 -0.2157 -0.1370  0.1179
  862YOPE   C4A12630  14.681   5.640   7.978  0.4328 -0.1212 -0.2731
  862YOPE   C1B12631  14.519   6.367   7.336  0.1329 -0.2136  0.2882
  862YOPE   C2B12632  14.528   6.298   7.723  0.0892  0.1911 -0.1365
  862YOPE   D3B12633  14.389   6.455   8.109  0.2779 -0.1130  0.0644
  862YOPE   C4B12634  14.126   6.411   8.528  0.2071 -0.2045 -0.0044
  863YOPE   NH312635   1.257   7.020   6.301  0.0142  0.1799  0.2895
  863YOPE   PO412636   1.296   6.551   6.291 -0.0387  0.4051  0.2970
  863YOPE   GL112637   1.460   6.458   6.669  0.0820  0.3217  0.1966
  863YOPE   GL212638   1.755   6.278   6.586  0.0589  0.0788 -0.1072
  863YOPE   C1A12639   1.496   6.617   7.074 -0.1857 -0.0009 -0.1647
  863YOPE   D2A12640   1.502   6.672   7.541  0.0406  0.0732 -0.0503
  863YOPE   C3A12641   1.131   6.698   7.756  0.1041 -0.1206  0.0524
  863YOPE   C4A12642   0.781   6.921   7.708  0.2405  0.1513  0.2649
  863YOPE   C1B12643   1.780   6.249   7.060  0.0856 -0.0530 -0.2682
  863YOPE   C2B12644   1.845   6.265   7.459  0.0814 -0.2159  0.0123
  863YOPE   D3B12645   1.836   6.283   7.853 -0.0316  0.3275  0.1771
  863YOPE   C4B12646   1.722   6.098   8.277  0.1740  0.0391 -0.1294
  864YOPE   NH312647  11.921   5.570   6.480  0.1014 -0.1542 -0.0716
  864YOPE   PO412648  11.554   5.380   6.454 -0.1767  0.0788  0.0022
  864YOPE   GL112649  11.777   5.167   6.807  0.0872  0.0462 -0.0030
  864YOPE   GL212650  11.740   4.821   6.694 -0.0504 -0.0202 -0.4460
  864YOPE   C1A12651  11.944   5.235   7.237  0.2044 -0.0354  0.0115
  864YOPE   D2A12652  11.982   5.353   7.664 -0.0738  0.1045  0.1295
  864YOPE   C3A12653  12.357   5.265   7.851  0.0198  0.2651  0.2438
  864YOPE   C4A12654  12.639   5.283   8.166  0.4238  0.3401 -0.0822
  864YOPE   C1B12655  11.537   4.850   7.167  0.1424 -0.2023  0.1053
  864YOPE   C2B12656  11.658   4.863   7.570 -0.1274 -0.0757  0.2743
  864YOPE   D3B12657  11.738   4.538   7.897  0.1293  0.1963  0.0124
  864YOPE   C4B12658  11.610   4.181   8.111  0.0988 -0.0123 -0.1031
  865YOPE   NH312659  10.400   8.607   6.697  0.2467 -0.1208 -0.0804
  865YOPE   PO412660   9.946   8.329   6.637 -0.2231  0.0117  0.1490
  865YOPE   GL112661   9.781   8.135   7.049 -0.1563 -0.2798  0.2091
  865YOPE   GL212662   9.524   8.229   7.122 -0.3229  0.0217  0.1850
  865YOPE   C1A12663   9.750   8.033   7.546 -0.0371 -0.0574 -0.1111
  865YOPE   D2A12664   9.620   8.354   7.855  0.0619 -0.3638  0.2455
  865YOPE   C3A12665   9.795   8.740   7.957 -0.3791 -0.3335  0.2438
  865YOPE   C4A12666  10.317   8.798   8.069 -0.0162 -0.0169  0.0458
  865YOPE   C1B12667   9.278   8.327   7.491  0.0425 -0.1177  0.1857
  865YOPE   C2B12668   8.975   8.609   7.849 -0.1101 -0.2531 -0.1255
  865YOPE   D3B12669   8.737   8.875   8.251 -0.1373 -0.3188  0.2661
  865YOPE   C4B12670   8.620   8.966   8.634 -0.0059 -0.2994  0.4102
  866YOPE   NH312671  12.730  16.957   5.946  0.0131 -0.4285 -0.0577
  866YOPE   PO412672  12.864  17.191   6.307  0.1765 -0.4977 -0.0589
  866YOPE   GL112673  12.954  17.417   6.658  0.0793  0.3345  0.1953
  866YOPE   GL212674  12.868  17.364   6.890 -0.4895 -0.0330 -0.1127
  866YOPE   C1A12675  13.280  17.690   6.943  0.1471  0.0608 -0.2229
  866YOPE   D2A12676  13.418  17.926   7.322 -0.3708 -0.0251  0.0590
  866YOPE   C3A12677  13.528  17.719   7.617 -0.2144 -0.1201  0.1834
  866YOPE   C4A12678  13.623  17.699   8.042 -0.0600 -0.0683  0.0981
  866YOPE   C1B12679  13.007  17.322   7.215 -0.2753  0.0436  0.2027
  866YOPE   C2B12680  13.088  17.408   7.571  0.1062  0.0119  0.2900
  866YOPE   D3B12681  13.159  17.574   8.025  0.2235  0.0729 -0.0952
  866YOPE   C4B12682  13.065  17.679   8.431  0.1663 -0.1494 -0.0946
  867YOPE   NH312683   5.430  11.334   5.951 -0.1584 -0.2738 -0.1827
  867YOPE   PO412684   5.527  11.869   5.953 -0.0161  0.1836 -0.0310
  867YOPE   GL112685   5.471  11.612   6.382 -0.1218  0.0076  0.0517
  867YOPE   GL212686   5.742  11.531   6.416  0.1291 -0.3980 -0.1127
  867YOPE   C1A12687   5.388  11.656   6.804  0.0772  0.0697  0.0233
  867YOPE   D2A12688   5.142  11.604   7.269 -0.0191  0.1326 -0.0436
  867YOPE   C3A12689   5.164  11.855   7.633  0.2244 -0.2537  0.3177
  867YOPE   C4A12690   4.962  11.891   8.012 -0.0950  0.0159  0.0697
  867YOPE   C1B12691   6.012  11.540   6.901 -0.0102 -0.1440 -0.1943
  867YOPE   C2B12692   6.026  11.508   7.371  0.1222  0.1161  0.1022
  867YOPE   D3B12693   5.822  11.265   7.752 -0.0212  0.0617 -0.1780
  867YOPE   C4B12694   6.119  11.016   8.022 -0.0588 -0.0222  0.2996
  868YOPE   NH312695   1.981   4.300   6.193  0.2677  0.1094 -0.0232
  868YOPE   PO412696   2.114   4.621   6.445 -0.1079 -0.0399  0.0526
  868YOPE   GL112697   2.279   5.003   6.690 -0.1742  0.2528 -0.2315
  868YOPE   GL212698   2.115   5.301   6.654 -0.1467  0.0718  0.0069
  868YOPE   C1A12699   2.273   5.185   7.110 -0.0389  0.2218 -0.0694
  868YOPE   D2A12700   2.314   5.271   7.590  0.1703 -0.2556  0.3356
  868YOPE   C3A12701   2.516   5.517   7.726 -0.1585 -0.0210  0.1332
  868YOPE   C4A12702   2.823   5.512   8.081  0.1431 -0.1232  0.0331
  868YOPE   C1B12703   1.792   5.354   6.958 -0.1470 -0.2725 -0.0236
  868YOPE   C2B12704   1.854   5.376   7.346  0.0223 -0.1106 -0.0930
  868YOPE   D3B12705   1.888   5.366   7.767  0.1263 -0.1006 -0.3450
  868YOPE   C4B12706   1.643   5.248   8.054 -0.1387 -0.3850  0.0481
  869YOPE   NH312707  16.541  16.384   6.098 -0.3211 -0.0765 -0.1467
  869YOPE   PO412708  16.360  15.975   6.074 -0.2110  0.1328  0.0033
  869YOPE   GL112709  16.223  15.731   6.429  0.0551 -0.1209  0.0017
  869YOPE   GL212710  16.004  15.562   6.441  0.2575  0.3765  0.0204
  869YOPE   C1A12711  16.239  15.639   6.906 -0.0918 -0.0290 -0.0307
  869YOPE   D2A12712  16.328  15.696   7.344 -0.1768 -0.0867 -0.0213
  869YOPE   C3A12713  16.233  15.990   7.662  0.0010 -0.0297 -0.3149
  869YOPE   C4A12714  16.176  16.363   7.777  0.2277  0.2237 -0.0087
  869YOPE   C1B12715  15.844  15.317   6.797 -0.0989 -0.1182  0.0219
  869YOPE   C2B12716  15.891  15.400   7.239  0.0276  0.1552  0.1715
  869YOPE   D3B12717  15.931  15.583   7.656  0.0792  0.2713 -0.0558
  869YOPE   C4B12718  16.060  15.559   8.063 -0.0999 -0.6292  0.1652
  870YOPE   NH312719  13.183   0.821   6.482  0.2184 -0.0964 -0.0983
  870YOPE   PO412720  12.808   0.763   6.582 -0.2635 -0.1806  0.1359
  870YOPE   GL112721  12.762   0.720   6.954 -0.1065  0.1842  0.1467
  870YOPE   GL212722  12.393   0.810   6.825  0.0863  0.2382 -0.2290
  870YOPE   C1A12723  12.698   0.770   7.370 -0.0180 -0.0956  0.2871
  870YOPE   D2A12724  12.645   0.926   7.702 -0.0189 -0.2415  0.1283
  870YOPE   C3A12725  12.560   0.813   8.141 -0.2058  0.0128  0.3390
  870YOPE   C4A12726  12.483   1.117   8.548 -0.0406 -0.0274 -0.1819
  870YOPE   C1B12727  12.482   1.139   7.063 -0.0931 -0.2390 -0.1285
  870YOPE   C2B12728  12.563   1.332   7.495 -0.1961  0.1821 -0.0275
  870YOPE   D3B12729  12.378   1.459   7.850  0.2029 -0.1526 -0.1014
  870YOPE   C4B12730  12.747   1.357   8.125  0.4508 -0.3092  0.2251
  871YOPE   NH312731   8.534   0.316   6.528 -0.0808 -0.0649  0.3110
  871YOPE   PO412732   8.248   0.643   6.673 -0.1887  0.2221  0.2410
  871YOPE   GL112733   8.174   0.377   6.929  0.1686  0.0845  0.0485
  871YOPE   GL212734   8.486   0.289   7.086  0.0577  0.2911 -0.0933
  871YOPE   C1A12735   8.062   0.184   7.320 -0.1891  0.0151 -0.0159
  871YOPE   D2A12736   7.834  -0.069   7.633  0.1829  0.1645 -0.0156
  871YOPE   C3A12737   7.946  -0.051   7.979  0.3294  0.4880  0.1370
  871YOPE   C4A12738   8.230  -0.357   8.211  0.0188  0.1335 -0.0522
  871YOPE   C1B12739   8.782   0.193   7.440  0.1257  0.2318 -0.3879
  871YOPE   C2B12740   9.171   0.108   7.846  0.0912  0.1402 -0.2218
  871YOPE   D3B12741   9.013   0.227   8.278  0.3483 -0.1251 -0.0172
  871YOPE   C4B12742   9.168   0.508   8.483 -0.2504 -0.3811 -0.2350
  872YOPE   NH312743   6.601   2.070   6.388  0.0846 -0.1887  0.3429
  872YOPE   PO412744   6.306   1.639   6.353  0.0229  0.1365 -0.1704
  872YOPE   GL112745   6.210   1.574   6.740  0.0366 -0.5514  0.0797
  872YOPE   GL212746   6.349   1.942   6.799 -0.0185 -0.2650  0.1265
  872YOPE   C1A12747   6.157   1.520   7.149  0.0184  0.2230 -0.1126
  872YOPE   D2A12748   5.923   1.316   7.368 -0.2890  0.2814  0.0019
  872YOPE   C3A12749   5.865   1.117   7.794  0.1519 -0.0989  0.1298
  872YOPE   C4A12750   5.893   0.849   8.133  0.0761 -0.0890  0.3703
  872YOPE   C1B12751   6.225   2.098   7.200  0.1901  0.0441 -0.1963
  872YOPE   C2B12752   6.118   1.871   7.534 -0.0225 -0.0378 -0.1308
  872YOPE   D3B12753   6.262   1.387   7.775 -0.1986 -0.0505  0.1752
  872YOPE   C4B12754   6.359   1.006   7.808  0.0481 -0.0421  0.3617
  873YOPE   NH312755   7.696  11.903   6.275  0.2280 -0.1017 -0.0810
  873YOPE   PO412756   7.398  11.547   6.264 -0.1793 -0.2665 -0.0170
  873YOPE   GL112757   7.509  11.374   6.641 -0.0757  0.0236 -0.1277
  873YOPE   GL212758   7.749  11.540   6.724  0.1595 -0.0396 -0.0652
  873YOPE   C1A12759   7.444  11.220   7.112 -0.1094 -0.0757 -0.0963
  873YOPE   D2A12760   7.507  11.119   7.605  0.0433 -0.1961 -0.0053
  873YOPE   C3A12761   7.459  10.816   7.955  0.0002 -0.2883 -0.3343
  873YOPE   C4A12762   7.487  10.747   8.437 -0.3409  0.1158  0.0077
  873YOPE   C1B12763   7.859  11.516   7.260  0.0312  0.0652  0.1485
  873YOPE   C2B12764   7.922  11.565   7.817 -0.0308  0.0208  0.0108
  873YOPE   D3B12765   7.873  11.537   8.154  0.0900 -0.0966  0.2095
  873YOPE   C4B12766   7.770  11.737   8.559  0.0198  0.1590  0.1015
  874YOPE   NH312767   8.639  16.064   6.227 -0.0067  0.2232 -0.2086
  874YOPE   PO412768   8.979  16.337   6.125 -0.1416 -0.1992 -0.0878
  874YOPE   GL112769   9.144  16.217   6.494  0.1260 -0.0787 -0.1532
  874YOPE   GL212770   9.133  15.819   6.587  0.4204 -0.0811  0.2855
  874YOPE   C1A12771   9.005  16.260   6.958  0.0010 -0.1414 -0.0007
  874YOPE   D2A12772   8.868  16.337   7.350 -0.0784 -0.2920 -0.0032
  874YOPE   C3A12773   9.059  16.645   7.638 -0.0237 -0.0634 -0.0153
  874YOPE   C4A12774   9.026  16.802   8.068  0.0410 -0.2016 -0.1445
  874YOPE   C1B12775   8.779  15.847   6.822 -0.0107  0.0549 -0.3768
  874YOPE   C2B12776   8.626  15.898   7.265 -0.1128 -0.0546 -0.1335
  874YOPE   D3B12777   8.636  16.007   7.675  0.0823 -0.1307 -0.0494
  874YOPE   C4B12778   8.380  16.020   7.893 -0.2119  0.2190  0.0500
  875YOPE   NH312779   1.426   9.074   5.892 -0.0642  0.0158 -0.0374
  875YOPE   PO412780   1.765   9.043   5.946  0.3567  0.2878  0.0161
  875YOPE   GL112781   1.905   9.139   6.373 -0.0293 -0.5236  0.3246
  875YOPE   GL212782   2.012   9.374   6.318 -0.0013  0.1130 -0.2085
  875YOPE   C1A12783   2.207   9.000   6.625  0.1968 -0.3627 -0.1526
  875YOPE   D2A12784   2.172   9.104   7.005 -0.3441  0.0978  0.0138
  875YOPE   C3A12785   2.124   9.419   7.225 -0.1627 -0.2525  0.2352
  875YOPE   C4A12786   2.016   9.274   7.592  0.0144 -0.0953 -0.1245
  875YOPE   C1B12787   1.938   9.533   6.751  0.0399  0.1577 -0.0830
  875YOPE   C2B12788   1.731   9.638   7.025  0.1581  0.0535 -0.2424
  875YOPE   D3B12789   1.593   9.611   7.511 -0.0981  0.1127 -0.2710
  875YOPE   C4B12790   1.702   9.559   7.870 -0.1514  0.2125 -0.1349
  876YOPE   NH312791  13.313   5.273   6.014 -0.0379  0.2397 -0.3117
  876YOPE   PO412792  13.184   5.647   6.169  0.0668  0.2752  0.1987
  876YOPE   GL112793  13.144   5.699   6.648 -0.0215  0.1636  0.1775
  876YOPE   GL212794  12.866   5.428   6.831  0.1525  0.2238  0.1048
  876YOPE   C1A12795  13.209   5.925   7.027 -0.0627  0.0327  0.0677
  876YOPE   D2A12796  13.345   6.423   6.938 -0.0600  0.3040 -0.1578
  876YOPE   C3A12797  13.454   6.682   7.301  0.0775 -0.3839 -0.2251
  876YOPE   C4A12798  13.655   6.672   7.667  0.0545 -0.2572 -0.0726
  876YOPE   C1B12799  13.121   5.444   7.075 -0.0309 -0.0882 -0.0166
  876YOPE   C2B12800  13.144   5.270   7.542 -0.1500  0.0697 -0.1384
  876YOPE   D3B12801  13.276   5.039   7.952 -0.0087  0.0632 -0.0659
  876YOPE   C4B12802  13.590   5.145   8.195 -0.1481  0.3716  0.3953
  877YOPE   NH312803   7.269   4.721   6.420 -0.1817  0.1738 -0.1007
  877YOPE   PO412804   7.545   4.412   6.286  0.1658  0.1074  0.2469
  877YOPE   GL112805   7.728   4.557   6.702 -0.1278 -0.3233  0.0124
  877YOPE   GL212806   8.095   4.560   6.898 -0.0764  0.3685  0.0328
  877YOPE   C1A12807   7.714   4.893   6.968  0.2471 -0.0541 -0.1955
  877YOPE   D2A12808   7.728   4.804   7.341 -0.0159 -0.2171 -0.1359
  877YOPE   C3A12809   7.988   4.460   7.422  0.1316 -0.0267  0.3217
  877YOPE   C4A12810   7.908   4.045   7.315  0.1600  0.1722  0.1883
  877YOPE   C1B12811   8.454   4.481   7.256 -0.0863  0.0190  0.1844
  877YOPE   C2B12812   8.512   4.677   7.635 -0.1540  0.1401  0.2593
  877YOPE   D3B12813   8.646   4.616   8.035  0.1063  0.1531 -0.2547
  877YOPE   C4B12814   8.847   4.858   8.387 -0.2537 -0.0523 -0.0309
  878YOPE   NH312815   0.783   5.260   6.224 -0.3533  0.1615 -0.0236
  878YOPE   PO412816   0.812   4.890   6.026  0.2533 -0.0868  0.2463
  878YOPE   GL112817   0.841   4.723   6.418 -0.0323  0.0794 -0.0462
  878YOPE   GL212818   0.820   5.016   6.647 -0.0621  0.2830  0.1855
  878YOPE   C1A12819   0.770   4.530   6.850 -0.1106 -0.0165  0.1825
  878YOPE   D2A12820   0.497   4.198   7.149 -0.2910  0.0159 -0.1490
  878YOPE   C3A12821   0.300   4.105   7.392  0.3970 -0.1056  0.0179
  878YOPE   C4A12822   0.186   3.939   7.734 -0.5321 -0.0701  0.1608
  878YOPE   C1B12823   0.899   5.079   7.086 -0.1557  0.1499 -0.1548
  878YOPE   C2B12824   0.955   5.045   7.546  0.0935  0.4935  0.2283
  878YOPE   D3B12825   0.957   4.798   7.910 -0.0344  0.2521  0.1129
  878YOPE   C4B12826   1.053   4.553   8.205  0.3004 -0.0588  0.1189
  879YOPE   NH312827   6.573   8.029   6.028  0.2553  0.0941 -0.0536
  879YOPE   PO412828   6.743   7.678   6.282  0.0757 -0.3489  0.0269
  879YOPE   GL112829   6.964   7.687   6.714  0.3400  0.0223  0.0042
  879YOPE   GL212830   6.909   7.388   6.895  0.0869 -0.2303  0.0478
  879YOPE   C1A12831   6.980   7.778   7.229  0.2369 -0.1730  0.0869
  879YOPE   D2A12832   6.966   7.985   7.684 -0.2292  0.2093 -0.1320
  879YOPE   C3A12833   6.954   7.911   8.114  0.0599  0.2747 -0.0739
  879YOPE   C4A12834   6.561   7.903   8.411 -0.5790 -0.1768 -0.2475
  879YOPE   C1B12835   7.070   7.312   7.284 -0.0631 -0.0144 -0.3078
  879YOPE   C2B12836   6.980   6.868   7.600 -0.1336  0.0983  0.0047
  879YOPE   D3B12837   7.104   6.571   7.990  0.1483  0.1445 -0.3432
  879YOPE   C4B12838   7.316   6.409   8.443 -0.0626  0.2096  0.3268
  880YOPE   NH312839   1.629  14.849   6.158 -0.2902 -0.1852  0.2337
  880YOPE   PO412840   2.061  14.704   6.033 -0.1340 -0.1230  0.0392
  880YOPE   GL112841   1.954  14.604   6.408  0.0610  0.2606 -0.1896
  880YOPE   GL212842   1.673  14.640   6.587  0.1317 -0.1179 -0.2426
  880YOPE   C1A12843   2.114  14.519   6.831  0.1261  0.1437  0.1484
  880YOPE   D2A12844   2.552  14.354   7.044 -0.3892 -0.1067  0.1317
  880YOPE   C3A12845   2.857  14.172   7.390  0.1048  0.2071 -0.1082
  880YOPE   C4A12846   2.830  14.257   7.832  0.3148 -0.0568 -0.0394
  880YOPE   C1B12847   1.713  14.660   7.098  0.0326  0.1445 -0.1845
  880YOPE   C2B12848   1.621  14.414   7.535 -0.0004  0.0656 -0.0195
  880YOPE   D3B12849   1.794  14.128   7.759  0.3539  0.3387  0.0808
  880YOPE   C4B12850   1.542  14.071   8.164  0.0526 -0.0178 -0.1400
  881YOPE   NH312851  12.204   8.359   6.469  0.1626  0.3207  0.2126
  881YOPE   PO412852  11.835   8.236   6.347  0.0916  0.0647  0.0708
  881YOPE   GL112853  11.905   8.466   6.827  0.0723 -0.2111 -0.3040
  881YOPE   GL212854  11.732   8.698   6.828  0.1121  0.1051  0.0505
  881YOPE   C1A12855  12.036   8.684   7.196  0.1921  0.0445  0.2108
  881YOPE   D2A12856  12.156   8.874   7.523  0.1114 -0.0464 -0.1594
  881YOPE   C3A12857  12.549   8.710   7.692 -0.2707 -0.1539 -0.0569
  881YOPE   C4A12858  12.827   8.582   8.028  0.0673 -0.1011  0.4256
  881YOPE   C1B12859  11.502   8.623   7.222 -0.5543  0.0959 -0.0279
  881YOPE   C2B12860  11.615   8.650   7.733  0.2530 -0.0132  0.1327
  881YOPE   D3B12861  11.498   8.711   8.145  0.0935  0.1440 -0.0893
  881YOPE   C4B12862  11.656   8.666   8.519 -0.0761  0.1129  0.1558
  882POPC   NC312863  10.610  15.002   6.441 -0.0680 -0.0974 -0.1458
  882POPC   PO412864  10.184  14.786   6.356 -0.0324  0.2483 -0.0592
  882POPC   GL112865  10.445  14.702   6.732 -0.1323 -0.1194  0.0894
  882POPC   GL212866  10.712  14.556   6.734  0.0300 -0.0858 -0.0673
  882POPC   C1A12867  10.292  14.983   7.090  0.0308  0.0907 -0.1146
  882POPC   D2A12868  10.418  14.868   7.559 -0.0653  0.0338 -0.1632
  882POPC   C3A12869  10.349  15.011   7.907 -0.2098  0.0491  0.2145
  882POPC   C4A12870  10.341  14.926   8.284  0.1538  0.2028 -0.3731
  882POPC   C1B12871  10.624  14.482   7.204  0.0510 -0.1047  0.2998
  882POPC   C2B12872  10.659  14.325   7.651 -0.0482 -0.1510 -0.1041
  882POPC   C3B12873  10.795  14.379   8.030  0.0090 -0.1459  0.1632
  882POPC   C4B12874  10.473  14.406   8.321  0.3074  0.0177  0.0916
  883POPC   NC312875  12.642   6.826   6.069 -0.0017  0.0007 -0.2421
  883POPC   PO412876  12.473   7.061   6.314  0.2324 -0.1100  0.1192
  883POPC   GL112877  12.238   7.118   6.685 -0.1589  0.2655  0.0844
  883POPC   GL212878  12.222   7.399   6.627 -0.3148 -0.0179 -0.1041
  883POPC   C1A12879  11.922   7.168   6.944 -0.1237  0.0302 -0.0556
  883POPC   D2A12880  11.926   7.134   7.349  0.1856  0.0368 -0.0958
  883POPC   C3A12881  12.093   6.673   7.480  0.2102 -0.2779 -0.0007
  883POPC   C4A12882  12.446   6.454   7.294  0.2912  0.1066  0.0247
  883POPC   C1B12883  12.232   7.520   7.064  0.3591 -0.1408 -0.1938
  883POPC   C2B12884  12.166   7.679   7.471 -0.1901  0.0527  0.3207
  883POPC   C3B12885  12.065   7.905   7.870  0.0883 -0.1198  0.2686
  883POPC   C4B12886  12.391   7.873   8.236  0.0018 -0.0751  0.1367
  884POPC   NC312887  16.637  11.718   6.054  0.2190  0.0060  0.1359
  884POPC   PO412888  16.476  11.635   6.427  0.0106 -0.0516  0.1560
  884POPC   GL112889  16.493  11.902   6.748  0.2095 -0.1666  0.0963
  884POPC   GL212890  16.817  11.898   6.823 -0.1485  0.2180 -0.2706
  884POPC   C1A12891  16.627  12.083   7.236 -0.3368  0.0549 -0.2031
  884POPC   D2A12892  16.649  12.115   7.643 -0.0163  0.2511  0.1326
  884POPC   C3A12893  16.663  12.320   8.024  0.0475  0.2305 -0.0257
  884POPC   C4A12894  16.476  12.344   8.403  0.0266  0.0867  0.1605
  884POPC   C1B12895  17.178  11.750   6.987  0.0373 -0.1652 -0.1486
  884POPC   C2B12896  17.528  11.627   7.285 -0.2864  0.1010  0.1691
  884POPC   C3B12897  17.558  11.742   7.673 -0.1355 -0.3786 -0.1442
  884POPC   C4B12898  17.815  11.896   8.045 -0.0865  0.1357  0.0650
  885POPC   NC312899   7.783   5.556   6.194  0.0426 -0.2868  0.3907
  885POPC   PO412900   7.379   5.246   6.318 -0.1447  0.2353  0.2607
  885POPC   GL112901   7.279   5.327   6.736  0.0076  0.2396 -0.1381
  885POPC   GL212902   7.367   5.528   6.955 -0.1155 -0.3199  0.0156
  885POPC   C1A12903   6.927   5.209   7.013 -0.0436 -0.1022  0.1802
  885POPC   D2A12904   6.745   5.037   7.360 -0.2388  0.0009  0.0352
  885POPC   C3A12905   6.932   5.013   7.840 -0.0040 -0.1856  0.0617
  885POPC   C4A12906   7.194   4.805   8.171  0.1545 -0.2143 -0.0723
  885POPC   C1B12907   7.400   5.193   7.309 -0.2330  0.3997  0.3925
  885POPC   C2B12908   7.517   5.045   7.724  0.0733  0.0401 -0.0630
  885POPC   C3B12909   7.641   5.086   8.121  0.0768  0.1848  0.1083
  885POPC   C4B12910   7.917   5.129   8.499 -0.2199 -0.0847  0.1665
  886POPC   NC312911  17.237   9.717   6.558  0.0960  0.0861 -0.1739
  886POPC   PO412912  17.639   9.480   6.384  0.2634 -0.0090  0.2090
  886POPC   GL112913  17.695   9.660   6.770 -0.2432  0.0925  0.2104
  886POPC   GL212914  17.604   9.930   6.959  0.0971 -0.1041  0.1560
  886POPC   C1A12915  17.503   9.540   7.144  0.0314 -0.0463 -0.2365
  886POPC   D2A12916  17.373   9.575   7.492  0.3250  0.1431 -0.1320
  886POPC   C3A12917  17.276   9.374   7.952 -0.0185 -0.0770  0.0537
  886POPC   C4A12918  16.956   9.258   8.230 -0.3557 -0.0562 -0.2542
  886POPC   C1B12919  17.499  10.124   7.266 -0.2381  0.2175  0.0014
  886POPC   C2B12920  17.633  10.143   7.645  0.0483 -0.1136 -0.1185
  886POPC   C3B12921  17.519  10.145   8.089  0.1887  0.4072 -0.2914
  886POPC   C4B12922  17.174  10.196   8.298  0.1408 -0.0030  0.0516
  887POPC   NC312923  13.493   6.526   6.456 -0.1986  0.0119 -0.3208
  887POPC   PO412924  13.100   6.403   6.309 -0.0221  0.1115 -0.1340
  887POPC   GL112925  12.928   6.282   6.716  0.0135 -0.2208  0.3409
  887POPC   GL212926  12.727   6.020   6.846  0.2012 -0.0185  0.0239
  887POPC   C1A12927  12.921   6.335   7.205 -0.0502 -0.0869 -0.0902
  887POPC   D2A12928  13.143   6.344   7.628 -0.1023  0.0149  0.0811
  887POPC   C3A12929  12.820   6.268   8.035 -0.0722  0.1885  0.0795
  887POPC   C4A12930  12.599   5.959   8.167 -0.2862  0.3061 -0.0308
  887POPC   C1B12931  12.685   5.693   7.190 -0.0494 -0.2186  0.4848
  887POPC   C2B12932  12.695   5.570   7.577 -0.0744 -0.1356 -0.1913
  887POPC   C3B12933  13.011   5.521   7.964  0.3482 -0.1761 -0.1086
  887POPC   C4B12934  13.095   5.821   8.223 -0.2936 -0.0575  0.0599
  888POPC   NC312935  11.750   1.052   5.831  0.2741  0.1137 -0.2506
  888POPC   PO412936  12.100   1.189   6.083  0.0219  0.1648 -0.3575
  888POPC   GL112937  12.379   1.272   6.551 -0.2073  0.3710 -0.3243
  888POPC   GL212938  12.555   1.561   6.601 -0.0059 -0.2298  0.3586
  888POPC   C1A12939  12.269   1.585   6.978  0.0254 -0.0221  0.0860
  888POPC   D2A12940  11.961   1.777   7.200  0.0061  0.0115  0.0618
  888POPC   C3A12941  11.954   1.621   7.631  0.1482  0.2054  0.0955
  888POPC   C4A12942  11.632   1.560   7.898  0.0551 -0.1809  0.3608
  888POPC   C1B12943  12.812   1.643   6.972 -0.1564  0.1717 -0.1209
  888POPC   C2B12944  12.982   1.625   7.420  0.0220  0.0329 -0.1238
  888POPC   C3B12945  13.222   1.627   7.936 -0.0517  0.0440 -0.2221
  888POPC   C4B12946  13.241   1.345   8.304 -0.3419 -0.2640 -0.0456
  889POPC   NC312947   3.768   6.843   5.871 -0.0582  0.1858 -0.0452
  889POPC   PO412948   3.977   7.174   6.106  0.0612  0.4270  0.0868
  889POPC   GL112949   4.039   7.222   6.555  0.1290  0.0437  0.1132
  889POPC   GL212950   4.152   7.014   6.584 -0.2022  0.1459 -0.2245
  889POPC   C1A12951   4.036   7.276   7.002 -0.2533  0.0834 -0.1145
  889POPC   D2A12952   3.856   6.903   7.247  0.0884  0.0180 -0.0317
  889POPC   C3A12953   4.103   6.567   7.383 -0.1341  0.2655 -0.0402
  889POPC   C4A12954   4.403   6.317   7.312 -0.0294  0.1227  0.0195
  889POPC   C1B12955   3.977   6.680   6.633 -0.0895 -0.0826 -0.0338
  889POPC   C2B12956   4.036   6.324   6.710 -0.2761 -0.0646 -0.3149
  889POPC   C3B12957   4.273   5.983   6.919  0.0923 -0.0063 -0.0968
  889POPC   C4B12958   4.386   5.813   7.258 -0.1550 -0.2315  0.0092
  890POPC   NC312959   1.715   6.787   6.412  0.1542  0.2004 -0.1562
  890POPC   PO412960   1.711   7.235   6.298  0.1659 -0.2688 -0.2317
  890POPC   GL112961   1.436   7.462   6.567 -0.0639  0.1709  0.1075
  890POPC   GL212962   1.733   7.704   6.726  0.1803 -0.0579 -0.0967
  890POPC   C1A12963   1.262   7.410   6.979  0.3629  0.1274 -0.0847
  890POPC   D2A12964   1.262   7.580   7.415  0.0737 -0.2138 -0.2033
  890POPC   C3A12965   1.512   7.603   7.811 -0.0045  0.2160 -0.0661
  890POPC   C4A12966   1.510   7.616   8.253 -0.2214 -0.2734  0.2245
  890POPC   C1B12967   1.658   7.742   7.108  0.1012  0.2127 -0.0236
  890POPC   C2B12968   1.700   7.901   7.436  0.0916  0.0188 -0.0376
  890POPC   C3B12969   1.961   8.237   7.742 -0.3539 -0.2131 -0.2027
  890POPC   C4B12970   2.310   8.414   8.089  0.1831 -0.1720 -0.1013
  891POPC   NC312971  17.666  12.793   5.613 -0.1077 -0.1346  0.3342
  891POPC   PO412972  17.621  12.269   5.635 -0.0761  0.2668  0.1839
  891POPC   GL112973  17.603  12.206   6.106  0.2193 -0.0028  0.1500
  891POPC   GL212974  17.271  12.152   6.233 -0.1549  0.2034 -0.0630
  891POPC   C1A12975  17.777  12.338   6.477 -0.0217  0.1355 -0.1143
  891POPC   D2A12976  17.957  12.696   6.731 -0.2311  0.2488  0.0171
  891POPC   C3A12977  17.914  12.812   7.144 -0.2442  0.0268 -0.0692
  891POPC   C4A12978  17.850  12.791   7.572 -0.0771 -0.0577  0.0375
  891POPC   C1B12979  17.271  12.230   6.646  0.2035  0.0720 -0.1443
  891POPC   C2B12980  17.161  12.239   7.047  0.0922 -0.2992  0.1278
  891POPC   C3B12981  17.175  12.127   7.443 -0.0358 -0.0758  0.0928
  891POPC   C4B12982  17.174  12.304   7.846  0.2864 -0.0370  0.0553
  892POPC   NC312983  13.075  13.894   6.173  0.1733 -0.4021  0.2355
  892POPC   PO412984  13.384  14.112   5.926 -0.0876 -0.2329 -0.0545
  892POPC   GL112985  13.569  14.146   6.375  0.4453 -0.0163 -0.0496
  892POPC   GL212986  13.819  14.075   6.413 -0.0346  0.0597  0.2368
  892POPC   C1A12987  13.301  14.158   6.683  0.0017  0.0359  0.0226
  892POPC   D2A12988  13.153  13.975   7.015  0.0262 -0.4092 -0.0908
  892POPC   C3A12989  13.303  14.094   7.415 -0.0918 -0.0311  0.0704
  892POPC   C4A12990  13.513  14.164   7.802  0.1356 -0.0552 -0.3739
  892POPC   C1B12991  13.934  13.912   6.710 -0.1221  0.1691 -0.1346
  892POPC   C2B12992  14.114  14.066   7.070  0.0662  0.1657  0.1088
  892POPC   C3B12993  14.250  14.099   7.499  0.0624 -0.3558  0.2029
  892POPC   C4B12994  14.327  13.874   7.934 -0.2291  0.1618  0.2447
  893POPC   NC312995   2.832   1.091   5.805 -0.2567  0.1913 -0.0920
  893POPC   PO412996   2.592   1.511   5.928 -0.1228 -0.1502  0.1378
  893POPC   GL112997   2.862   1.181   6.303 -0.0938  0.0975  0.1287
  893POPC   GL212998   2.966   0.901   6.275  0.1023  0.1817 -0.2007
  893POPC   C1A12999   2.922   1.090   6.764  0.0018 -0.2501 -0.2056
  893POPC   D2A13000   2.818   1.068   7.193  0.0398  0.0176 -0.0465
  893POPC   C3A13001   2.473   1.067   7.526  0.1816 -0.1392  0.0145
  893POPC   C4A13002   2.376   1.025   7.881  0.1758  0.2066  0.1843
  893POPC   C1B13003   2.999   0.600   6.601  0.1690  0.1775  0.2115
  893POPC   C2B13004   2.868   0.636   6.978  0.2056 -0.0587  0.1194
  893POPC   C3B13005   2.853   0.652   7.447  0.1029 -0.0056 -0.2484
  893POPC   C4B13006   2.913   1.004   7.771 -0.2577 -0.2186  0.0198
  894POPC   NC313007  15.506  14.882   6.174  0.3019 -0.1505 -0.2368
  894POPC   PO413008  15.236  15.265   6.216 -0.0978  0.1786  0.2785
  894POPC   GL113009  15.245  15.204   6.688  0.4637 -0.2594 -0.3749
  894POPC   GL213010  15.467  15.023   6.663 -0.1046  0.1564  0.0123
  894POPC   C1A13011  15.366  15.237   7.188  0.1965  0.0556 -0.2334
  894POPC   D2A13012  15.307  15.146   7.547 -0.0346  0.0763  0.2657
  894POPC   C3A13013  15.557  15.270   7.907 -0.2389  0.0981 -0.0724
  894POPC   C4A13014  15.559  15.521   8.307 -0.0412 -0.1667 -0.0079
  894POPC   C1B13015  15.380  14.713   7.018 -0.2120  0.3998 -0.1301
  894POPC   C2B13016  15.310  14.370   7.321 -0.2620  0.0500  0.2119
  894POPC   C3B13017  15.116  14.311   7.763  0.0079 -0.0387  0.1401
  894POPC   C4B13018  14.967  14.327   8.188 -0.0439 -0.3651  0.2022
  895POPC   NC313019  14.965   8.790   6.277  0.0281 -0.0302  0.1759
  895POPC   PO413020  15.300   9.044   6.494  0.1313 -0.1075 -0.3402
  895POPC   GL113021  15.095   9.119   6.825 -0.0362  0.1377  0.1122
  895POPC   GL213022  14.791   9.410   6.702  0.0250 -0.0034  0.0952
  895POPC   C1A13023  15.001   9.368   7.122 -0.1596  0.2183  0.3076
  895POPC   D2A13024  14.896   9.461   7.521 -0.0432  0.0665 -0.0574
  895POPC   C3A13025  15.023   9.198   7.928  0.0611  0.0494  0.1821
  895POPC   C4A13026  15.018   8.841   8.260 -0.0882  0.0760  0.0982
  895POPC   C1B13027  14.493   9.482   7.008 -0.1477  0.1348 -0.1584
  895POPC   C2B13028  14.422   9.290   7.498 -0.0645 -0.2264  0.1605
  895POPC   C3B13029  14.578   9.395   7.837 -0.0379  0.3753  0.2616
  895POPC   C4B13030  14.553   9.179   8.265 -0.0315 -0.2919  0.0768
  896POPC   NC313031   8.057  12.818   6.503 -0.0578 -0.1431  0.2530
  896POPC   PO413032   8.490  12.685   6.398  0.2827  0.4484  0.0631
  896POPC   GL113033   8.494  12.826   6.770  0.0095  0.2554 -0.2748
  896POPC   GL213034   8.743  12.591   6.939 -0.0923  0.0761  0.3738
  896POPC   C1A13035   8.336  12.904   7.143  0.0659 -0.0008  0.0919
  896POPC   D2A13036   8.119  12.930   7.631 -0.1551  0.2221  0.0276
  896POPC   C3A13037   8.316  13.178   7.911 -0.2154  0.3895 -0.0391
  896POPC   C4A13038   8.218  13.466   8.211 -0.1203 -0.0100  0.0008
  896POPC   C1B13039   8.790  12.707   7.388 -0.0328 -0.4388 -0.2666
  896POPC   C2B13040   8.727  12.693   7.779 -0.1086  0.1704  0.1968
  896POPC   C3B13041   8.798  13.125   8.066  0.1090 -0.0108  0.3036
  896POPC   C4B13042   8.879  13.248   8.419  0.2831 -0.1720 -0.1838
  897POPC   NC313043  13.899   0.664   5.719 -0.0164  0.0353 -0.2096
  897POPC   PO413044  14.165   0.436   6.069 -0.0991 -0.0283  0.3191
  897POPC   GL113045  14.241   0.234   6.388 -0.2023  0.3521 -0.0330
  897POPC   GL213046  14.140   0.553   6.625 -0.1005 -0.0308  0.2506
  897POPC   C1A13047  14.111  -0.119   6.568  0.2654  0.2427 -0.2047
  897POPC   D2A13048  13.770  -0.344   6.746  0.1680  0.0936 -0.3735
  897POPC   C3A13049  13.889  -0.628   6.977 -0.1312 -0.0247  0.1936
  897POPC   C4A13050  14.015  -0.546   7.382  0.1861 -0.0728 -0.1307
  897POPC   C1B13051  14.123   0.535   7.060  0.0838  0.2139 -0.1462
  897POPC   C2B13052  14.171   0.398   7.422  0.0372 -0.2720  0.0157
  897POPC   C3B13053  14.217   0.351   7.785  0.0274 -0.0356 -0.2106
  897POPC   C4B13054  14.170   0.708   8.137 -0.1314  0.0944 -0.2261
  898POPC   NC313055  15.435  12.424   6.201 -0.0959 -0.0052  0.0169
  898POPC   PO413056  15.537  12.772   6.187  0.0893  0.0893  0.1337
  898POPC   GL113057  15.344  12.998   6.422  0.2211 -0.0511 -0.2134
  898POPC   GL213058  15.189  12.683   6.600 -0.2914 -0.3224 -0.0885
  898POPC   C1A13059  15.112  13.124   6.749 -0.0269 -0.0303 -0.3227
  898POPC   D2A13060  15.275  13.218   7.256 -0.1885  0.1490  0.0752
  898POPC   C3A13061  15.544  13.483   7.414  0.0165 -0.2658  0.1117
  898POPC   C4A13062  15.418  13.938   7.611  0.0027  0.0776 -0.1701
  898POPC   C1B13063  15.320  12.765   7.033 -0.0395  0.0985 -0.0394
  898POPC   C2B13064  15.714  12.976   7.264 -0.2281 -0.0220 -0.0477
  898POPC   C3B13065  15.701  13.051   7.710 -0.0398 -0.4410  0.0698
  898POPC   C4B13066  15.464  12.899   8.048 -0.3111 -0.1854 -0.1912
  899POPC   NC313067  13.062  12.542   6.453 -0.0770 -0.3779 -0.1837
  899POPC   PO413068  13.133  12.962   6.665 -0.2239  0.1064  0.0990
  899POPC   GL113069  12.886  12.758   6.926 -0.0235 -0.2633 -0.0278
  899POPC   GL213070  12.852  12.418   6.937 -0.0572  0.0507  0.2030
  899POPC   C1A13071  12.703  12.778   7.352  0.3598  0.0377 -0.2356
  899POPC   D2A13072  12.582  13.088   7.633  0.0683  0.0457  0.1691
  899POPC   C3A13073  12.374  13.016   7.947 -0.4252  0.2317 -0.3004
  899POPC   C4A13074  12.251  13.019   8.268  0.1499 -0.0832  0.1498
  899POPC   C1B13075  12.700  12.308   7.366 -0.0643 -0.2175  0.3024
  899POPC   C2B13076  12.520  12.576   7.757  0.0058 -0.4428 -0.1093
  899POPC   C3B13077  12.369  12.529   8.162  0.3249  0.3149 -0.0682
  899POPC   C4B13078  12.515  12.666   8.510 -0.4859 -0.1920  0.0865
  900POPC   NC313079  17.426   4.477   5.930 -0.1097 -0.0868  0.0192
  900POPC   PO413080  17.791   4.327   5.941  0.0221  0.3185 -0.2625
  900POPC   GL113081  17.751   4.291   6.338 -0.0903 -0.2569 -0.1799
  900POPC   GL213082  17.741   4.693   6.344 -0.0161 -0.2495 -0.2027
  900POPC   C1A13083  17.618   4.308   6.687 -0.1071 -0.3430 -0.1062
  900POPC   D2A13084  17.755   4.137   7.107  0.0229  0.1691 -0.0691
  900POPC   C3A13085  17.640   4.199   7.513  0.2226  0.1370  0.4717
  900POPC   C4A13086  17.486   4.014   7.870  0.0184 -0.1338  0.0510
  900POPC   C1B13087  18.116   4.751   6.609  0.3700 -0.1740  0.1533
  900POPC   C2B13088  18.340   4.902   6.952  0.0942  0.2604 -0.0444
  900POPC   C3B13089  18.208   4.906   7.394 -0.1366 -0.1427  0.1110
  900POPC   C4B13090  18.305   4.929   7.787 -0.0580 -0.1025  0.1253
  901POPC   NC313091   2.991   9.664   5.531 -0.4560 -0.2527  0.1356
  901POPC   PO413092   2.616   9.560   5.826  0.1001  0.0641  0.1989
  901POPC   GL113093   2.894   9.657   6.037 -0.0348  0.3163  0.0945
  901POPC   GL213094   2.854   9.993   6.269  0.1187 -0.2138  0.1035
  901POPC   C1A13095   2.977   9.433   6.432 -0.1169 -0.0441  0.0494
  901POPC   D2A13096   3.134   9.045   6.665 -0.1237 -0.0835 -0.0433
  901POPC   C3A13097   3.099   9.077   7.126 -0.0585 -0.0250 -0.0107
  901POPC   C4A13098   3.298   8.829   7.393  0.0568  0.0954  0.0477
  901POPC   C1B13099   2.943   9.958   6.660 -0.0125 -0.2071 -0.0070
  901POPC   C2B13100   2.948   9.868   7.041 -0.2234  0.0603 -0.2978
  901POPC   C3B13101   2.897   9.757   7.521 -0.0359  0.4040 -0.2175
  901POPC   C4B13102   3.171   9.822   7.885  0.2223  0.0102  0.4758
  902POPC   NC313103   7.392  15.463   6.082 -0.0465 -0.1367 -0.2961
  902POPC   PO413104   6.939  15.302   5.903  0.1956 -0.1643  0.0038
  902POPC   GL113105   7.130  15.085   6.333  0.2012 -0.0115 -0.1243
  902POPC   GL213106   7.097  14.728   6.244  0.0402 -0.0379 -0.0952
  902POPC   C1A13107   7.005  15.257   6.758  0.1857  0.3055  0.0547
  902POPC   D2A13108   6.662  15.111   6.957  0.0392  0.0896 -0.1055
  902POPC   C3A13109   6.476  15.385   7.272  0.0792 -0.0746 -0.0167
  902POPC   C4A13110   6.361  15.750   7.434 -0.1316 -0.2744 -0.0185
  902POPC   C1B13111   7.177  14.730   6.698 -0.1135 -0.2023  0.0469
  902POPC   C2B13112   7.066  14.622   7.133  0.0740  0.0192 -0.0776
  902POPC   C3B13113   6.961  14.616   7.488 -0.1160 -0.0659 -0.0537
  902POPC   C4B13114   6.912  14.696   7.897  0.1587  0.1255  0.0121
  903POPC   NC313115  16.594  17.389   5.897  0.0127 -0.2272 -0.0174
  903POPC   PO413116  16.942  17.182   5.877 -0.0939  0.0060 -0.0464
  903POPC   GL113117  16.973  17.272   6.339 -0.1954  0.4559  0.1955
  903POPC   GL213118  16.792  17.491   6.408 -0.1384  0.2095  0.0309
  903POPC   C1A13119  16.910  17.183   6.796 -0.1274  0.1718  0.1619
  903POPC   D2A13120  16.721  17.252   7.170 -0.1437  0.0049 -0.1844
  903POPC   C3A13121  16.444  17.621   7.284  0.2290  0.0130  0.1357
  903POPC   C4A13122  16.284  17.876   7.600 -0.0368  0.1557 -0.3649
  903POPC   C1B13123  16.696  17.613   6.845  0.0929 -0.1707 -0.0138
  903POPC   C2B13124  16.747  17.918   6.976  0.0924  0.1555  0.1688
  903POPC   C3B13125  16.512  18.165   7.197  0.1514 -0.1930  0.1329
  903POPC   C4B13126  16.552  18.356   7.575  0.0220 -0.0680 -0.0756
  904POPC   NC313127  14.633   0.298   6.081  0.2261 -0.0233  0.2508
  904POPC   PO413128  14.981  -0.008   5.851  0.1322  0.2077 -0.1949
  904POPC   GL113129  14.996  -0.071   6.287  0.0296  0.2721 -0.2753
  904POPC   GL213130  14.754   0.093   6.560  0.2503  0.1534 -0.1457
  904POPC   C1A13131  15.020  -0.404   6.576 -0.0618 -0.0572 -0.1399
  904POPC   D2A13132  15.085  -0.865   6.794  0.0910 -0.2563 -0.1102
  904POPC   C3A13133  14.904  -0.791   7.243 -0.2161 -0.3160  0.0882
  904POPC   C4A13134  14.900  -1.009   7.639 -0.1813 -0.0140 -0.0775
  904POPC   C1B13135  14.543   0.138   6.870 -0.0915 -0.3009 -0.1934
  904POPC   C2B13136  14.744   0.065   7.245  0.0271 -0.2731  0.2095
  904POPC   C3B13137  14.913  -0.357   7.497  0.0900 -0.1092  0.1633
  904POPC   C4B13138  15.104  -0.566   7.879  0.2474 -0.0960 -0.2490
  905POPC   NC313139  12.999   9.722   6.073  0.1670 -0.2425  0.0703
  905POPC   PO413140  12.854   9.339   6.155  0.0056  0.0358  0.1493
  905POPC   GL113141  12.863   9.087   6.614 -0.1051  0.3093  0.2159
  905POPC   GL213142  12.654   9.320   6.784  0.1460  0.0806  0.0601
  905POPC   C1A13143  12.986   8.737   6.962  0.0998 -0.1720 -0.3666
  905POPC   D2A13144  13.205   8.973   7.376  0.3527  0.2206  0.1368
  905POPC   C3A13145  13.017   8.891   7.708 -0.3239 -0.1528 -0.0248
  905POPC   C4A13146  12.864   9.068   8.049 -0.2249 -0.1912  0.2462
  905POPC   C1B13147  12.729   9.571   7.165 -0.0319  0.2933 -0.0354
  905POPC   C2B13148  12.653   9.747   7.569  0.1806  0.4172 -0.2125
  905POPC   C3B13149  12.682   9.563   8.010  0.0467  0.0023 -0.2587
  905POPC   C4B13150  12.519   9.337   8.379  0.0392 -0.0831 -0.2196
  906POPC   NC313151   8.363  14.109   6.402 -0.0936 -0.2507 -0.1033
  906POPC   PO413152   8.755  14.361   6.139 -0.0599 -0.1704 -0.0702
  906POPC   GL113153   8.923  14.000   6.544 -0.2025  0.2094  0.3528
  906POPC   GL213154   9.232  14.111   6.705 -0.1084 -0.1288  0.1893
  906POPC   C1A13155   8.935  13.718   6.990 -0.0697  0.0287 -0.1643
  906POPC   D2A13156   9.151  13.561   7.334 -0.0645  0.0541 -0.1906
  906POPC   C3A13157   9.116  13.531   7.848  0.0413  0.1128 -0.0670
  906POPC   C4A13158   9.374  13.399   8.183 -0.1964 -0.4361  0.2446
  906POPC   C1B13159   9.399  13.847   6.985 -0.1005  0.0889  0.1177
  906POPC   C2B13160   9.407  14.009   7.401  0.0540 -0.2019  0.0080
  906POPC   C3B13161   9.269  13.955   7.747 -0.2435  0.1837  0.1531
  906POPC   C4B13162   9.457  13.905   8.215  0.0080 -0.0800 -0.3732
  907POPC   NC313163   6.062   8.157   6.344 -0.0266 -0.3232  0.2307
  907POPC   PO413164   5.819   8.406   6.192 -0.0622 -0.2931  0.3990
  907POPC   GL113165   5.644   8.542   6.498  0.0558 -0.0828  0.0497
  907POPC   GL213166   5.326   8.723   6.539 -0.2751  0.2820 -0.0026
  907POPC   C1A13167   5.594   8.593   6.910  0.2296  0.0974  0.2277
  907POPC   D2A13168   5.562   8.614   7.257  0.1099  0.2812 -0.0738
  907POPC   C3A13169   5.241   8.515   7.620  0.1999  0.0125 -0.1818
  907POPC   C4A13170   5.286   8.809   7.966  0.1797  0.0535 -0.0629
  907POPC   C1B13171   5.122   8.481   6.889 -0.2504  0.2130 -0.0243
  907POPC   C2B13172   5.078   8.274   7.218  0.1359  0.3218 -0.4839
  907POPC   C3B13173   4.925   8.169   7.551 -0.0661 -0.0701  0.0235
  907POPC   C4B13174   4.652   8.063   7.922 -0.1433 -0.1937 -0.2830
  908POPC   NC313175   7.502   1.805   6.328 -0.0791 -0.1812  0.1433
  908POPC   PO413176   7.059   2.035   6.360 -0.1480  0.3212 -0.2772
  908POPC   GL113177   7.155   1.742   6.618 -0.1088 -0.1711  0.0130
  908POPC   GL213178   6.856   1.635   6.704 -0.0111  0.0133 -0.1920
  908POPC   C1A13179   7.281   1.595   6.973  0.0261 -0.3306 -0.0992
  908POPC   D2A13180   7.260   1.321   7.283 -0.0134 -0.2385 -0.1635
  908POPC   C3A13181   6.780   1.176   7.469  0.1560 -0.0075 -0.0351
  908POPC   C4A13182   6.412   1.147   7.287  0.0691  0.1616 -0.1302
  908POPC   C1B13183   6.673   1.628   7.085 -0.0819  0.1239 -0.0240
  908POPC   C2B13184   6.590   1.648   7.447  0.0618 -0.1218 -0.1679
  908POPC   C3B13185   6.520   1.874   7.866  0.4090  0.1855 -0.1639
  908POPC   C4B13186   6.235   1.853   8.204  0.1615 -0.1747 -0.1669
  909POPC   NC313187   3.682   4.670   5.892 -0.0693  0.1377 -0.4090
  909POPC   PO413188   3.406   4.528   6.259 -0.0370  0.0769  0.1752
  909POPC   GL113189   3.279   4.193   6.514 -0.1861 -0.0147  0.1852
  909POPC   GL213190   2.983   4.010   6.466  0.3501  0.0029  0.0882
  909POPC   C1A13191   3.275   3.873   6.837 -0.0592  0.2491  0.0566
  909POPC   D2A13192   2.961   3.799   7.242 -0.1144 -0.0128  0.1899
  909POPC   C3A13193   3.204   3.682   7.642 -0.0931 -0.2294 -0.1719
  909POPC   C4A13194   3.128   3.569   8.019  0.0974  0.2424  0.2573
  909POPC   C1B13195   2.852   4.177   6.851  0.1215  0.0922 -0.2896
  909POPC   C2B13196   2.757   4.214   7.219 -0.3955 -0.0411 -0.2237
  909POPC   C3B13197   2.773   4.103   7.619 -0.2269 -0.1461 -0.1599
  909POPC   C4B13198   2.813   4.048   7.987 -0.0161  0.2417 -0.2051
  910POPC   NC313199   1.091  13.596   5.734 -0.0714  0.1259  0.0384
  910POPC   PO413200   1.032  13.641   6.115 -0.0118 -0.1694  0.1756
  910POPC   GL113201   1.041  13.486   6.427  0.1281 -0.1761 -0.0931
  910POPC   GL213202   1.042  13.640   6.699 -0.3622  0.1364 -0.0549
  910POPC   C1A13203   1.349  13.225   6.696 -0.1293 -0.5193 -0.3298
  910POPC   D2A13204   1.213  12.809   6.896  0.1025  0.1730  0.1672
  910POPC   C3A13205   1.303  12.814   7.271  0.2086  0.1827 -0.0076
  910POPC   C4A13206   1.284  12.854   7.743  0.2169 -0.1161  0.0214
  910POPC   C1B13207   1.004  13.713   7.083  0.1315  0.0579  0.0461
  910POPC   C2B13208   1.036  13.592   7.549 -0.2369  0.0320 -0.1476
  910POPC   C3B13209   1.210  13.338   7.919  0.2783  0.1088 -0.3398
  910POPC   C4B13210   1.549  13.080   8.112 -0.3348  0.0309  0.0318
  911POPC   NC313211   8.946  15.220   5.981  0.3058  0.0742  0.0641
  911POPC   PO413212   8.900  15.641   6.076 -0.2731  0.0736 -0.1960
  911POPC   GL113213   8.935  15.364   6.505 -0.0621 -0.2389 -0.0211
  911POPC   GL213214   8.612  15.241   6.467 -0.0293  0.0919 -0.0816
  911POPC   C1A13215   8.936  15.373   6.946  0.0866  0.2209  0.1809
  911POPC   D2A13216   8.678  15.326   7.263 -0.1242  0.0814 -0.0333
  911POPC   C3A13217   8.677  15.428   7.630  0.3241 -0.1092  0.1947
  911POPC   C4A13218   8.615  15.181   8.073 -0.1472 -0.0882  0.0187
  911POPC   C1B13219   8.401  15.492   6.781 -0.0046 -0.4836  0.0860
  911POPC   C2B13220   8.197  15.740   7.158 -0.3940 -0.3368 -0.2546
  911POPC   C3B13221   8.153  16.042   7.462  0.1164  0.1955  0.0824
  911POPC   C4B13222   8.041  16.347   7.745 -0.0581  0.2230 -0.0063
  912POPC   NC313223  16.084   4.367   6.128 -0.1332 -0.0307 -0.0374
  912POPC   PO413224  16.464   4.167   6.034 -0.0202 -0.1214  0.1303
  912POPC   GL113225  16.622   4.130   6.445 -0.3371  0.1072  0.1120
  912POPC   GL213226  16.479   3.874   6.446 -0.0023  0.3512  0.1748
  912POPC   C1A13227  16.711   4.433   6.840 -0.1991  0.0121  0.2360
  912POPC   D2A13228  16.888   4.664   7.156 -0.1346 -0.1210  0.1080
  912POPC   C3A13229  17.069   4.811   7.568  0.2747  0.2198 -0.2621
  912POPC   C4A13230  17.457   4.736   7.930  0.0465  0.0799  0.1649
  912POPC   C1B13231  16.349   3.986   6.850  0.1573 -0.0269  0.1301
  912POPC   C2B13232  16.514   4.087   7.193 -0.0796 -0.0241 -0.0558
  912POPC   C3B13233  16.647   4.414   7.502 -0.1152 -0.0363 -0.0426
  912POPC   C4B13234  16.726   4.412   7.878 -0.0722  0.2954  0.3777
  913POPC   NC313235  11.463   4.172   5.769 -0.0205 -0.1550 -0.0937
  913POPC   PO413236  11.560   4.465   6.064  0.4995 -0.1720 -0.1227
  913POPC   GL113237  11.458   4.373   6.541  0.2293  0.0810  0.3974
  913POPC   GL213238  11.376   3.988   6.674 -0.1723  0.4162  0.1186
  913POPC   C1A13239  11.754   4.348   6.994  0.1513  0.1055 -0.1084
  913POPC   D2A13240  11.897   4.396   7.354  0.0547 -0.1972 -0.0079
  913POPC   C3A13241  11.963   4.171   7.650  0.0338  0.0853  0.0927
  913POPC   C4A13242  11.983   3.748   7.892 -0.3522  0.1639  0.2282
  913POPC   C1B13243  11.535   3.914   7.086  0.1265  0.0678 -0.1049
  913POPC   C2B13244  11.516   3.817   7.463 -0.1095 -0.0808 -0.1855
  913POPC   C3B13245  11.462   3.759   7.869  0.0445  0.0442 -0.1661
  913POPC   C4B13246  11.533   3.681   8.409  0.2075  0.0543  0.2451
  914POPC   NC313247   8.771   4.324   5.708 -0.0005  0.1048  0.2215
  914POPC   PO413248   8.782   4.131   6.122 -0.1332  0.2664  0.1509
  914POPC   GL113249   8.888   3.878   6.469 -0.1647  0.0210  0.2997
  914POPC   GL213250   8.974   3.883   6.735  0.1016  0.1776  0.1130
  914POPC   C1A13251   8.731   3.518   6.505  0.0789  0.2590 -0.1138
  914POPC   D2A13252   8.644   3.092   6.617 -0.1300 -0.2083  0.0135
  914POPC   C3A13253   8.819   2.828   6.835  0.1061  0.2145  0.1928
  914POPC   C4A13254   8.867   2.583   7.115 -0.1515 -0.3043 -0.0636
  914POPC   C1B13255   8.997   3.938   7.157  0.0391  0.0086 -0.3279
  914POPC   C2B13256   8.780   4.114   7.418  0.0123  0.0380  0.1264
  914POPC   C3B13257   8.763   4.238   7.772 -0.1443 -0.0713 -0.2455
  914POPC   C4B13258   8.869   4.230   8.249 -0.2114  0.3615 -0.1777
  915POPC   NC313259  10.372  11.655   5.979  0.1261  0.0757  0.0132
  915POPC   PO413260  10.358  11.189   6.210  0.2541 -0.0162  0.1167
  915POPC   GL113261  10.441  11.066   6.608 -0.0210  0.1531 -0.0674
  915POPC   GL213262  10.125  11.004   6.649 -0.1890 -0.1052  0.0824
  915POPC   C1A13263  10.559  10.578   6.703 -0.0217 -0.0558 -0.0194
  915POPC   D2A13264  10.632  10.378   7.033  0.2638  0.1541 -0.0632
  915POPC   C3A13265  10.594  10.439   7.406 -0.1642  0.1245 -0.1614
  915POPC   C4A13266  10.699  10.676   7.781 -0.1193  0.1252 -0.0697
  915POPC   C1B13267  10.345  10.895   7.066  0.0436 -0.0383 -0.0585
  915POPC   C2B13268  10.586  10.983   7.453 -0.0855 -0.1546 -0.3547
  915POPC   C3B13269  10.840  11.149   7.847  0.2155 -0.2031  0.0815
  915POPC   C4B13270  10.695  11.098   8.230 -0.3404  0.0578 -0.1758
  916POPC   NC313271  11.105   2.819   5.948 -0.0351 -0.0111 -0.3308
  916POPC   PO413272  11.121   2.646   6.358  0.0731  0.0701  0.0501
  916POPC   GL113273  11.046   2.878   6.724 -0.0323 -0.1448  0.0085
  916POPC   GL213274  10.821   3.214   6.693 -0.1247 -0.1118 -0.1356
  916POPC   C1A13275  11.031   2.771   7.219  0.1181  0.1923 -0.0126
  916POPC   D2A13276  11.074   2.840   7.680  0.0358  0.2092  0.0494
  916POPC   C3A13277  10.912   2.674   8.001  0.1040  0.0258  0.1488
  916POPC   C4A13278  10.583   2.378   8.041  0.2187 -0.0762  0.2026
  916POPC   C1B13279  10.649   3.049   7.028 -0.1642  0.1196 -0.1764
  916POPC   C2B13280  10.659   3.157   7.420 -0.0727 -0.0825  0.0110
  916POPC   C3B13281  10.690   3.231   7.889  0.1189 -0.0566 -0.2677
  916POPC   C4B13282  10.507   3.444   8.327 -0.0361 -0.2101 -0.1380
  917POPC   NC313283  16.331  10.722   6.535  0.2091  0.0423 -0.3951
  917POPC   PO413284  16.320  11.137   6.442 -0.0312  0.0194 -0.0956
  917POPC   GL113285  16.460  11.148   6.883 -0.0765  0.2206 -0.0861
  917POPC   GL213286  16.629  11.427   6.894 -0.1581  0.1323 -0.1279
  917POPC   C1A13287  16.452  11.228   7.362  0.0150 -0.2302  0.1771
  917POPC   D2A13288  16.625  11.437   7.753  0.2815 -0.0120 -0.0864
  917POPC   C3A13289  16.715  11.416   8.154  0.0673 -0.1838 -0.0074
  917POPC   C4A13290  16.764  11.474   8.595  0.0536  0.1028  0.0324
  917POPC   C1B13291  16.784  11.605   7.282 -0.0286  0.1017 -0.0935
  917POPC   C2B13292  17.076  11.673   7.541 -0.0934  0.7059  0.3059
  917POPC   C3B13293  16.990  11.763   7.907 -0.0892 -0.0419  0.5718
  917POPC   C4B13294  16.938  11.904   8.326 -0.1426  0.2745 -0.2696
  918POPC   NC313295  11.687   9.777   6.216 -0.1842 -0.2315 -0.1618
  918POPC   PO413296  11.986   9.839   5.943 -0.0479 -0.2479 -0.0875
  918POPC   GL113297  12.145  10.038   6.337 -0.0595 -0.2777  0.1861
  918POPC   GL213298  11.973  10.216   6.472 -0.1806 -0.1780  0.0263
  918POPC   C1A13299  12.437   9.825   6.659 -0.4948 -0.1230  0.0146
  918POPC   D2A13300  12.299   9.800   7.075  0.0604  0.0702 -0.2255
  918POPC   C3A13301  12.264  10.108   7.440 -0.3748 -0.0874 -0.1402
  918POPC   C4A13302  12.328  10.102   7.862  0.0686  0.1991  0.0993
  918POPC   C1B13303  11.956  10.141   6.920  0.0272 -0.2894 -0.0679
  918POPC   C2B13304  11.697  10.107   7.264 -0.4376  0.0361  0.1734
  918POPC   C3B13305  11.815  10.194   7.751 -0.3035 -0.0627  0.2267
  918POPC   C4B13306  11.913  10.283   8.126  0.0214  0.0085 -0.2235
  919POPC   NC313307   9.326   3.300   5.844 -0.0646  0.0344  0.3013
  919POPC   PO413308   9.375   3.449   6.189 -0.3894  0.0321 -0.5388
  919POPC   GL113309   9.309   3.430   6.539 -0.0275 -0.1714  0.1056
  919POPC   GL213310   9.323   3.187   6.667 -0.1635  0.0198  0.3143
  919POPC   C1A13311   9.103   3.481   6.996 -0.1027  0.1098  0.0501
  919POPC   D2A13312   8.776   3.200   7.231  0.0394 -0.1178 -0.1695
  919POPC   C3A13313   8.753   3.006   7.659 -0.0342 -0.1905 -0.2891
  919POPC   C4A13314   8.642   2.853   8.117 -0.0604 -0.3614  0.2815
  919POPC   C1B13315   9.219   2.949   7.060  0.0789 -0.1760  0.0795
  919POPC   C2B13316   9.250   2.887   7.540  0.2227 -0.1338 -0.0411
  919POPC   C3B13317   9.199   2.846   8.096  0.2825 -0.3456  0.2427
  919POPC   C4B13318   9.447   3.224   8.357 -0.2882  0.3467  0.1002
  920POPC   NC313319   1.813   3.554   5.732  0.0394 -0.4755 -0.3236
  920POPC   PO413320   1.638   3.921   6.060  0.1735  0.0272 -0.2443
  920POPC   GL113321   1.765   3.904   6.460  0.0272  0.1629  0.0406
  920POPC   GL213322   2.050   3.987   6.593  0.1220 -0.0201  0.1920
  920POPC   C1A13323   1.644   3.884   6.876  0.2031  0.0295 -0.0194
  920POPC   D2A13324   1.551   4.005   7.248 -0.0762  0.1134  0.0345
  920POPC   C3A13325   1.571   3.818   7.611  0.1180  0.1082  0.2102
  920POPC   C4A13326   1.270   3.672   7.976 -0.2207 -0.3545  0.0111
  920POPC   C1B13327   2.343   4.119   7.004 -0.3093 -0.0005  0.0899
  920POPC   C2B13328   2.328   4.102   7.405  0.3677 -0.0435  0.5110
  920POPC   C3B13329   2.320   4.094   7.861  0.4110 -0.2333  0.3669
  920POPC   C4B13330   2.305   3.967   8.248  0.0982 -0.4056  0.3562
  921POPC   NC313331   0.226  10.567   6.075  0.0538 -0.2384 -0.0429
  921POPC   PO413332   0.355  10.305   6.443  0.1471 -0.4214  0.0726
  921POPC   GL113333   0.454  10.444   6.868  0.0905 -0.1548 -0.0556
  921POPC   GL213334   0.756  10.410   6.774  0.0118  0.1999 -0.3474
  921POPC   C1A13335   0.600  10.673   7.233 -0.0020  0.2096 -0.0741
  921POPC   D2A13336   0.730  10.566   7.628 -0.0404 -0.0979 -0.1447
  921POPC   C3A13337   0.470  10.626   7.969  0.1268 -0.1565 -0.0343
  921POPC   C4A13338   0.508  10.686   8.360  0.1515  0.1717  0.0837
  921POPC   C1B13339   0.655  10.113   7.152 -0.1888  0.0173  0.1321
  921POPC   C2B13340   0.645  10.008   7.585 -0.2259  0.1380 -0.0110
  921POPC   C3B13341   0.559   9.750   7.995 -0.3518 -0.0643  0.1146
  921POPC   C4B13342   0.343   9.499   8.087  0.1184 -0.0699  0.1922
  922YOPC   NC313343   6.410   3.275   6.094  0.2251 -0.0948  0.2953
  922YOPC   PO413344   6.458   3.068   6.341  0.1856  0.1321 -0.2750
  922YOPC   GL113345   6.600   2.936   6.720  0.1078  0.2440  0.0221
  922YOPC   GL213346   6.849   2.898   6.624 -0.0324  0.0333  0.1782
  922YOPC   C1A13347   6.624   3.209   7.108 -0.1592  0.1134  0.0197
  922YOPC   D2A13348   6.655   3.570   7.393 -0.0380  0.0545 -0.2131
  922YOPC   C3A13349   6.466   3.344   7.835  0.1073 -0.0732 -0.1705
  922YOPC   C4A13350   6.561   3.259   8.308  0.2203 -0.0297 -0.1256
  922YOPC   C1B13351   7.032   2.971   6.984  0.3327  0.0283 -0.0994
  922YOPC   C2B13352   7.005   2.931   7.319 -0.1172 -0.0402  0.1186
  922YOPC   D3B13353   6.962   2.470   7.411 -0.0463  0.0761 -0.3909
  922YOPC   C4B13354   6.591   2.171   7.548 -0.0162 -0.3094  0.2563
  923YOPC   NC313355   8.436  14.537   5.647 -0.2402 -0.1424  0.0593
  923YOPC   PO413356   8.221  14.516   6.106  0.2085  0.0144 -0.0379
  923YOPC   GL113357   8.216  14.634   6.583  0.4698  0.0970  0.1657
  923YOPC   GL213358   8.511  14.709   6.617 -0.2327  0.3876 -0.4432
  923YOPC   C1A13359   8.169  14.531   6.921 -0.0945  0.0746 -0.1105
  923YOPC   D2A13360   8.078  14.604   7.385 -0.1446 -0.1261  0.2260
  923YOPC   C3A13361   7.853  14.679   7.681 -0.0609 -0.2462 -0.2321
  923YOPC   C4A13362   7.894  14.716   8.198  0.1722  0.1238  0.2465
  923YOPC   C1B13363   8.729  14.893   6.996 -0.0150 -0.1224 -0.1203
  923YOPC   C2B13364   8.690  14.883   7.458 -0.2057  0.1278 -0.2724
  923YOPC   D3B13365   8.497  14.661   7.667 -0.3598  0.0067  0.3517
  923YOPC   C4B13366   8.341  14.541   8.060  0.1827 -0.1878  0.3737
  924YOPC   NC313367   6.017   2.236   5.760  0.0690  0.2406  0.0250
  924YOPC   PO413368   6.327   2.345   5.994 -0.1947 -0.0572 -0.4894
  924YOPC   GL113369   6.275   2.490   6.454 -0.0216 -0.3072  0.0131
  924YOPC   GL213370   6.481   2.464   6.691 -0.0278  0.0022 -0.0677
  924YOPC   C1A13371   6.059   2.477   6.870 -0.1488  0.0544 -0.0859
  924YOPC   D2A13372   6.023   2.653   7.258 -0.2238 -0.1622 -0.1710
  924YOPC   C3A13373   6.199   2.537   7.514 -0.3868  0.0366  0.1313
  924YOPC   C4A13374   6.327   2.363   7.911  0.0106  0.1967  0.1525
  924YOPC   C1B13375   6.519   2.450   7.025 -0.1249  0.0988 -0.0937
  924YOPC   C2B13376   6.572   2.734   7.169 -0.2164 -0.0996 -0.0074
  924YOPC   D3B13377   6.561   2.848   7.554 -0.3100  0.4051  0.1890
  924YOPC   C4B13378   6.340   2.856   7.929 -0.1582 -0.2191 -0.0050
  925YOPC   NC313379  14.014   9.561   5.945  0.0570 -0.1715  0.0611
  925YOPC   PO413380  14.246   9.866   6.062 -0.1724  0.0283 -0.1344
  925YOPC   GL113381  14.031   9.791   6.462 -0.1069 -0.3606  0.1369
  925YOPC   GL213382  13.934  10.087   6.587  0.0309  0.2032  0.1151
  925YOPC   C1A13383  13.946   9.584   6.834  0.1654  0.1914  0.3168
  925YOPC   D2A13384  13.815   9.498   7.212 -0.2414  0.0514  0.0957
  925YOPC   C3A13385  13.910   9.341   7.532 -0.0487 -0.2371 -0.0549
  925YOPC   C4A13386  13.982   9.186   7.850  0.3330  0.1335 -0.2010
  925YOPC   C1B13387  13.746  10.107   7.026  0.0739 -0.0474  0.1780
  925YOPC   C2B13388  13.632  10.238   7.443  0.0194 -0.1171  0.0317
  925YOPC   D3B13389  13.585   9.834   7.677 -0.0027  0.1624  0.0196
  925YOPC   C4B13390  13.648   9.548   7.960 -0.0051  0.4788  0.0402
  926YOPC   NC313391  14.168   7.083   5.766 -0.0637  0.1118  0.4590
  926YOPC   PO413392  14.219   7.013   6.305 -0.2138  0.0400  0.0035
  926YOPC   GL113393  14.238   7.288   6.632 -0.1642  0.0094  0.0626
  926YOPC   GL213394  14.311   7.608   6.689  0.0057 -0.1372  0.0219
  926YOPC   C1A13395  14.634   7.306   6.998  0.0109  0.0670  0.0244
  926YOPC   D2A13396  14.713   7.227   7.441 -0.2166 -0.0332  0.0422
  926YOPC   C3A13397  14.563   6.885   7.648  0.0382 -0.0595 -0.2664
  926YOPC   C4A13398  14.206   6.899   7.886  0.2992 -0.0531  0.4772
  926YOPC   C1B13399  14.011   7.672   7.092 -0.0483 -0.0370 -0.5219
  926YOPC   C2B13400  14.000   7.818   7.567  0.0522 -0.4682 -0.0545
  926YOPC   D3B13401  14.125   7.947   7.941  0.0843  0.2024  0.1552
  926YOPC   C4B13402  14.420   8.219   8.188  0.2189  0.1207  0.1709
  927YOPC   NC313403  13.603  15.623   5.785  0.1186 -0.0611 -0.1404
  927YOPC   PO413404  13.994  15.683   6.067 -0.1580 -0.1741  0.1861
  927YOPC   GL113405  14.172  15.657   6.492 -0.1020  0.1395  0.3141
  927YOPC   GL213406  14.221  15.878   6.682 -0.2194  0.1167 -0.1058
  927YOPC   C1A13407  14.165  15.475   6.955 -0.1884  0.1839  0.0975
  927YOPC   D2A13408  14.195  15.558   7.371  0.1551  0.2014 -0.1803
  927YOPC   C3A13409  14.235  15.294   7.657 -0.1219 -0.0731 -0.3250
  927YOPC   C4A13410  14.239  14.990   8.001 -0.1276 -0.0579 -0.1323
  927YOPC   C1B13411  14.413  15.955   6.921  0.1673  0.2552  0.1844
  927YOPC   C2B13412  14.527  15.875   7.272 -0.1850 -0.1422 -0.4239
  927YOPC   D3B13413  14.416  16.008   7.584  0.4888 -0.1187 -0.0833
  927YOPC   C4B13414  14.482  16.139   7.984  0.1005 -0.0789  0.2302
  928YOPC   NC313415  14.932   8.221   6.116 -0.1643 -0.3155  0.2045
  928YOPC   PO413416  15.373   8.268   6.165 -0.1734  0.0756  0.2415
  928YOPC   GL113417  15.461   8.417   6.609 -0.4496  0.1808  0.2169
  928YOPC   GL213418  15.247   8.605   6.720 -0.1412  0.0591  0.0451
  928YOPC   C1A13419  15.164   8.137   6.890 -0.0976 -0.2662  0.0128
  928YOPC   D2A13420  15.074   8.116   7.268 -0.2028  0.0752 -0.2624
  928YOPC   C3A13421  15.230   8.086   7.719 -0.0407 -0.1644  0.2155
  928YOPC   C4A13422  15.291   7.929   8.033 -0.5313  0.0324  0.3407
  928YOPC   C1B13423  15.042   8.646   7.098  0.0875 -0.0036 -0.0714
  928YOPC   C2B13424  15.114   8.534   7.527 -0.0662 -0.2479  0.1711
  928YOPC   D3B13425  15.269   8.768   7.805  0.0234  0.2954  0.0555
  928YOPC   C4B13426  15.503   8.916   8.205  0.4137  0.0456  0.1564
  929YOPC   NC313427   8.055   3.244   5.917  0.2394 -0.1332  0.1626
  929YOPC   PO413428   7.955   3.752   6.110 -0.1892  0.0920  0.2252
  929YOPC   GL113429   8.027   3.644   6.492 -0.0935 -0.3189  0.1869
  929YOPC   GL213430   8.275   3.480   6.623 -0.0009  0.2477  0.1696
  929YOPC   C1A13431   8.004   3.577   6.997  0.0323  0.0441  0.0275
  929YOPC   D2A13432   8.058   3.573   7.397 -0.2233  0.1218 -0.1006
  929YOPC   C3A13433   8.099   3.557   7.787  0.2947 -0.2436  0.2167
  929YOPC   C4A13434   8.153   3.748   8.188  0.1168 -0.0863  0.1069
  929YOPC   C1B13435   8.561   3.550   6.989  0.0740 -0.3691 -0.0139
  929YOPC   C2B13436   8.604   3.596   7.440 -0.3133 -0.0235 -0.2055
  929YOPC   D3B13437   8.973   3.658   7.668  0.0151  0.0631 -0.0952
  929YOPC   C4B13438   9.342   3.567   7.451 -0.0219 -0.1658 -0.1524
  930YOPC   NC313439   6.280  10.683   5.640  0.2022 -0.2365 -0.0383
  930YOPC   PO413440   6.430  10.640   6.085 -0.1472 -0.0338  0.1694
  930YOPC   GL113441   6.409  10.925   6.397  0.1482 -0.1416  0.1306
  930YOPC   GL213442   6.654  11.108   6.489 -0.1464 -0.2553  0.0850
  930YOPC   C1A13443   6.047  10.840   6.738 -0.1401  0.0630  0.1399
  930YOPC   D2A13444   5.618  10.661   6.847 -0.2361  0.0591 -0.1051
  930YOPC   C3A13445   5.664  10.450   7.237  0.3963 -0.0059 -0.1450
  930YOPC   C4A13446   5.555  10.325   7.673 -0.1751 -0.0224 -0.1125
  930YOPC   C1B13447   6.381  11.173   6.784  0.1271  0.1890  0.0684
  930YOPC   C2B13448   6.266  11.076   7.183  0.0785 -0.0743 -0.2545
  930YOPC   D3B13449   5.958  10.859   7.231 -0.1006 -0.0105  0.2966
  930YOPC   C4B13450   5.907  10.683   7.660  0.0759 -0.3216  0.2110
  931YOPC   NC313451  11.552  12.019   6.107 -0.1311 -0.0422 -0.0997
  931YOPC   PO413452  11.960  12.089   6.155  0.1081  0.0781 -0.0298
  931YOPC   GL113453  12.122  11.975   6.593 -0.0464  0.1578 -0.0153
  931YOPC   GL213454  12.254  12.164   6.641  0.0306 -0.0371  0.0084
  931YOPC   C1A13455  12.123  11.787   6.982  0.0292 -0.0662  0.0598
  931YOPC   D2A13456  12.025  11.649   7.418  0.1058 -0.0078 -0.2096
  931YOPC   C3A13457  11.848  11.474   7.738  0.3111  0.0788  0.0968
  931YOPC   C4A13458  11.605  11.046   7.967 -0.3244 -0.0237 -0.1374
  931YOPC   C1B13459  12.567  12.002   6.976 -0.1323  0.2994 -0.2822
  931YOPC   C2B13460  12.879  11.895   7.096 -0.0701  0.2337 -0.0379
  931YOPC   D3B13461  12.972  11.788   7.553 -0.0570  0.2248 -0.0166
  931YOPC   C4B13462  12.750  11.662   7.930 -0.2645  0.0975  0.2009
  932YOPC   NC313463  11.548  12.739   5.734 -0.0129  0.0402 -0.1584
  932YOPC   PO413464  11.675  12.511   6.105 -0.1003 -0.2697 -0.0721
  932YOPC   GL113465  11.614  12.356   6.462  0.0455  0.2187  0.4201
  932YOPC   GL213466  11.320  12.361   6.518  0.0648  0.1227 -0.0920
  932YOPC   C1A13467  11.786  12.388   6.822 -0.2430 -0.0823  0.0969
  932YOPC   D2A13468  11.705  12.588   7.218  0.0170  0.4798  0.0941
  932YOPC   C3A13469  11.635  12.537   7.598  0.3038  0.0614 -0.2666
  932YOPC   C4A13470  11.306  12.464   7.773 -0.1848 -0.0137  0.3151
  932YOPC   C1B13471  11.306  12.444   6.914 -0.0269  0.0028 -0.1781
  932YOPC   C2B13472  11.197  12.510   7.273 -0.0324  0.0129 -0.2469
  932YOPC   D3B13473  10.857  12.573   7.495  0.0038 -0.1159  0.1591
  932YOPC   C4B13474  10.864  12.741   7.916  0.0807 -0.4294  0.1141
  933YOPC   NC313475  13.404   6.114   6.090 -0.0982 -0.1691 -0.1379
  933YOPC   PO413476  13.871   6.188   6.260 -0.0279  0.2783 -0.0619
  933YOPC   GL113477  13.881   6.266   6.642 -0.2485 -0.2120  0.0073
  933YOPC   GL213478  13.931   5.918   6.740  0.0663 -0.2841  0.3480
  933YOPC   C1A13479  14.243   6.120   7.015  0.0805 -0.0308  0.0150
  933YOPC   D2A13480  14.107   6.071   7.410 -0.0075 -0.0642 -0.1594
  933YOPC   C3A13481  14.146   5.928   7.725 -0.1025 -0.0369  0.0950
  933YOPC   C4A13482  14.332   5.979   8.093  0.3145  0.1382 -0.1507
  933YOPC   C1B13483  13.737   6.100   7.084 -0.0625 -0.0083  0.1121
  933YOPC   C2B13484  13.611   6.193   7.433  0.2001 -0.0093 -0.0998
  933YOPC   D3B13485  13.667   5.902   7.788 -0.2732 -0.2511  0.1981
  933YOPC   C4B13486  13.530   5.445   7.827  0.1740 -0.3187  0.1826
  934YOPC   NC313487   8.412  17.512   5.955  0.1006  0.0193 -0.1554
  934YOPC   PO413488   8.652  17.741   6.278 -0.2488 -0.0649  0.2967
  934YOPC   GL113489   9.032  17.814   6.573 -0.1785 -0.0167 -0.2892
  934YOPC   GL213490   9.402  17.738   6.473 -0.0953  0.1527 -0.1437
  934YOPC   C1A13491   8.987  17.928   6.977  0.1705 -0.3056  0.0532
  934YOPC   D2A13492   9.239  17.998   7.210 -0.0009  0.1158  0.1464
  934YOPC   C3A13493   9.514  17.752   7.454  0.2728 -0.0861 -0.0238
  934YOPC   C4A13494   9.639  17.819   7.896  0.1919  0.1645  0.0158
  934YOPC   C1B13495   9.488  17.650   6.907  0.0220  0.0641  0.2061
  934YOPC   C2B13496   9.689  17.354   7.248 -0.3365  0.0991 -0.0238
  934YOPC   D3B13497   9.696  17.342   7.704 -0.2279  0.1306  0.2670
  934YOPC   C4B13498   9.552  17.038   8.101  0.2896 -0.0911 -0.1721
  935YOPC   NC313499  16.690   0.848   5.744 -0.1081 -0.5097 -0.0805
  935YOPC   PO413500  16.767   0.464   5.541  0.2467 -0.0790 -0.0518
  935YOPC   GL113501  16.896   0.375   6.008 -0.0189  0.1112  0.1687
  935YOPC   GL213502  16.792   0.065   6.116  0.1606 -0.1277 -0.0357
  935YOPC   C1A13503  16.984   0.485   6.476  0.1824  0.1373  0.0647
  935YOPC   D2A13504  16.813   0.511   6.842  0.0544 -0.4084  0.0049
  935YOPC   C3A13505  16.988   0.584   7.273 -0.3749 -0.0817 -0.0680
  935YOPC   C4A13506  17.248   0.963   7.392 -0.3150 -0.2384  0.1875
  935YOPC   C1B13507  16.590   0.184   6.505 -0.0915  0.2766  0.4029
  935YOPC   C2B13508  16.276   0.001   6.824  0.3041 -0.0833  0.0327
  935YOPC   D3B13509  15.927   0.266   6.921  0.0863  0.0882  0.2645
  935YOPC   C4B13510  15.525   0.258   7.046 -0.0329 -0.3407  0.1538
  936YOPC   NC313511   6.783   5.870   6.032 -0.2717 -0.0890  0.1293
  936YOPC   PO413512   6.558   5.886   6.296 -0.2258  0.0984  0.0528
  936YOPC   GL113513   6.521   5.887   6.717  0.2492  0.1144  0.1233
  936YOPC   GL213514   6.528   6.197   7.053  0.0659  0.1567 -0.1973
  936YOPC   C1A13515   6.388   5.703   7.073 -0.0581 -0.1125  0.0025
  936YOPC   D2A13516   6.217   5.737   7.538  0.4568  0.1575  0.1116
  936YOPC   C3A13517   6.393   5.899   7.985 -0.0092  0.2084 -0.0159
  936YOPC   C4A13518   6.380   6.036   8.467  0.0807 -0.5097  0.1023
  936YOPC   C1B13519   6.647   5.949   7.387  0.0083  0.0918  0.1000
  936YOPC   C2B13520   6.894   5.873   7.852 -0.0185 -0.0633  0.0451
  936YOPC   D3B13521   6.859   6.091   8.132 -0.1282 -0.0098 -0.2097
  936YOPC   C4B13522   6.705   6.462   8.385 -0.0254 -0.0904  0.0569
  937YOPC   NC313523  14.215   8.344   6.283  0.2638  0.0863 -0.1258
  937YOPC   PO413524  14.543   8.505   6.018  0.1353 -0.0551 -0.2783
  937YOPC   GL113525  14.421   8.816   6.346 -0.0049  0.0782  0.1475
  937YOPC   GL213526  14.603   8.988   6.512 -0.0503  0.0292 -0.0620
  937YOPC   C1A13527  14.141   9.024   6.685 -0.1116  0.2271 -0.1160
  937YOPC   D2A13528  13.988   9.072   7.044 -0.0043  0.0256 -0.1338
  937YOPC   C3A13529  13.535   9.166   6.947  0.0651 -0.0048  0.0654
  937YOPC   C4A13530  13.186   9.311   7.017  0.1038  0.2340 -0.3085
  937YOPC   C1B13531  14.610   8.957   6.958  0.0294 -0.1576 -0.2296
  937YOPC   C2B13532  14.349   8.749   7.108 -0.3072  0.0544  0.1008
  937YOPC   D3B13533  14.366   8.806   7.549  0.0712  0.0433 -0.0278
  937YOPC   C4B13534  14.234   8.734   7.948  0.0830 -0.4655  0.2136
  938YOPC   NC313535  16.447  12.818   5.763 -0.0515 -0.3044  0.0105
  938YOPC   PO413536  16.765  12.484   5.917  0.1525  0.2225 -0.0323
  938YOPC   GL113537  16.460  12.615   6.308  0.0189 -0.1949  0.0298
  938YOPC   GL213538  16.441  12.927   6.343  0.0843  0.1324  0.0983
  938YOPC   C1A13539  16.244  12.404   6.776 -0.1132 -0.1921 -0.2047
  938YOPC   D2A13540  16.205  12.154   7.058 -0.0248 -0.0419 -0.0519
  938YOPC   C3A13541  16.211  12.343   7.532  0.1922 -0.0366  0.0343
  938YOPC   C4A13542  16.142  12.293   8.002 -0.1551 -0.2861 -0.1068
  938YOPC   C1B13543  16.794  12.927   6.630  0.0772 -0.1879  0.1878
  938YOPC   C2B13544  16.928  13.063   7.022 -0.2617  0.0076 -0.2265
  938YOPC   D3B13545  17.059  13.459   7.200 -0.0709  0.1777 -0.0215
  938YOPC   C4B13546  17.063  13.811   7.299 -0.2610 -0.0051  0.3600
  939YOPC   NC313547  15.931   6.177   5.808 -0.0398 -0.0585  0.1014
  939YOPC   PO413548  15.939   5.957   6.216  0.1494 -0.0868  0.2227
  939YOPC   GL113549  16.001   6.202   6.579  0.1408  0.0019 -0.0906
  939YOPC   GL213550  16.335   6.178   6.733  0.3287  0.0362  0.1029
  939YOPC   C1A13551  15.894   6.326   6.998  0.2243 -0.1605  0.2050
  939YOPC   D2A13552  15.893   6.483   7.398  0.2968  0.1893  0.0055
  939YOPC   C3A13553  16.147   6.569   7.802 -0.1304  0.0091  0.0370
  939YOPC   C4A13554  16.015   6.642   8.253 -0.0441 -0.4010 -0.4674
  939YOPC   C1B13555  16.378   6.133   7.245  0.1161  0.2376  0.0139
  939YOPC   C2B13556  16.566   6.036   7.647 -0.0431  0.0567 -0.1752
  939YOPC   D3B13557  16.563   5.896   8.035  0.0899 -0.1982 -0.0679
  939YOPC   C4B13558  16.331   5.784   8.416  0.1200  0.1367 -0.0392
  940YOPC   NC313559  11.135  11.026   6.131 -0.0163  0.1509 -0.1243
  940YOPC   PO413560  11.160  10.568   6.130  0.2699  0.0807  0.1414
  940YOPC   GL113561  11.298  10.717   6.506  0.0954  0.1276 -0.0227
  940YOPC   GL213562  11.636  10.674   6.533 -0.2739  0.2883  0.0074
  940YOPC   C1A13563  11.116  10.565   6.935 -0.2479  0.1687 -0.1247
  940YOPC   D2A13564  11.055  10.631   7.339 -0.2790  0.0903  0.0823
  940YOPC   C3A13565  11.393  10.412   7.577 -0.1806 -0.0133  0.0576
  940YOPC   C4A13566  11.448  10.461   8.065 -0.2416 -0.2246 -0.1746
  940YOPC   C1B13567  11.679  10.571   6.984 -0.1357  0.3527 -0.1065
  940YOPC   C2B13568  11.923  10.501   7.362 -0.0782 -0.0976  0.1552
  940YOPC   D3B13569  11.868  10.690   7.671  0.2401  0.2469 -0.1323
  940YOPC   C4B13570  12.049  10.812   7.955  0.1799 -0.1475  0.0704
  941YOPC   NC313571  10.694  10.319   6.066  0.3535  0.0618 -0.0856
  941YOPC   PO413572  10.620   9.983   6.339  0.2576  0.0523 -0.1893
  941YOPC   GL113573  10.472   9.986   6.730 -0.1473 -0.0218  0.2213
  941YOPC   GL213574  10.198  10.163   6.711 -0.1932  0.1576 -0.2077
  941YOPC   C1A13575  10.475   9.630   6.952  0.2027  0.1248 -0.0031
  941YOPC   D2A13576  10.440   9.427   7.360 -0.2207  0.1029  0.1004
  941YOPC   C3A13577  10.478   9.630   7.700  0.1668  0.1997 -0.1773
  941YOPC   C4A13578  10.620   9.716   8.085  0.1462  0.4006 -0.1335
  941YOPC   C1B13579   9.828  10.063   6.965 -0.2590 -0.1854  0.1164
  941YOPC   C2B13580   9.774  10.081   7.337  0.0299  0.0798 -0.0516
  941YOPC   D3B13581  10.106  10.109   7.696 -0.1073 -0.0336  0.1421
  941YOPC   C4B13582  10.494  10.197   7.846 -0.1755 -0.1212 -0.0287
  942YOPC   NC313583  17.685   2.394   5.769 -0.6693 -0.1424 -0.0092
  942YOPC   PO413584  17.304   2.584   5.808  0.0178  0.2474  0.1991
  942YOPC   GL113585  17.208   2.321   6.086  0.1208  0.0915 -0.0752
  942YOPC   GL213586  16.942   2.429   6.163  0.3040 -0.0646  0.0758
  942YOPC   C1A13587  17.367   2.136   6.454  0.0422  0.0766  0.2239
  942YOPC   D2A13588  17.485   1.947   6.795  0.1475  0.0336 -0.2717
  942YOPC   C3A13589  17.460   1.931   7.260  0.3226 -0.2597  0.1660
  942YOPC   C4A13590  17.209   1.927   7.624 -0.1562  0.1531  0.4362
  942YOPC   C1B13591  16.914   2.313   6.612 -0.2908  0.0358  0.2107
  942YOPC   C2B13592  17.123   2.268   7.052  0.0606  0.1822 -0.4061
  942YOPC   D3B13593  17.033   2.477   7.446 -0.1261 -0.0890  0.2027
  942YOPC   C4B13594  16.911   2.222   7.868 -0.1358 -0.0869  0.1364
  943YOPC   NC313595  15.934   8.265   6.019  0.0459  0.0917 -0.0358
  943YOPC   PO413596  16.059   8.602   6.268  0.3020 -0.1416  0.2094
  943YOPC   GL113597  16.349   8.516   6.621 -0.1219 -0.2264  0.0167
  943YOPC   GL213598  16.314   8.827   6.641 -0.0339  0.0920 -0.3421
  943YOPC   C1A13599  16.661   8.657   6.982  0.2754 -0.2803 -0.1716
  943YOPC   D2A13600  16.949   9.006   7.051 -0.0319 -0.0689  0.3226
  943YOPC   C3A13601  17.208   8.998   7.392 -0.0447  0.1669  0.1123
  943YOPC   C4A13602  17.584   9.143   7.556 -0.1203  0.2001  0.3187
  943YOPC   C1B13603  16.207   8.750   7.067  0.1295  0.1855  0.4182
  943YOPC   C2B13604  16.328   8.561   7.401 -0.0889  0.1228 -0.0544
  943YOPC   D3B13605  16.111   8.619   7.767  0.1239 -0.3519 -0.1006
  943YOPC   C4B13606  15.864   8.580   8.211  0.1166 -0.0319  0.1434
  944YOPC   NC313607   4.969   9.592   6.040  0.0956  0.1466  0.2131
  944YOPC   PO413608   4.648   9.673   6.015  0.3254 -0.0895  0.2788
  944YOPC   GL113609   4.536   9.600   6.410  0.1659  0.2090  0.0172
  944YOPC   GL213610   4.772   9.547   6.538  0.4764  0.0766 -0.3283
  944YOPC   C1A13611   4.296   9.758   6.771  0.0503  0.1390 -0.2062
  944YOPC   D2A13612   4.049   9.825   7.079  0.1899 -0.0993 -0.2506
  944YOPC   C3A13613   3.790  10.055   7.464 -0.1768 -0.1405  0.1642
  944YOPC   C4A13614   3.515  10.219   7.777  0.0352  0.0708  0.2358
  944YOPC   C1B13615   4.682   9.354   6.931  0.2898 -0.0581  0.1582
  944YOPC   C2B13616   4.557   9.205   7.349  0.0869  0.2941  0.0741
  944YOPC   D3B13617   4.582   9.312   7.730  0.0649 -0.0610 -0.3647
  944YOPC   C4B13618   4.521   9.557   8.161  0.0433  0.2700 -0.3816
  945YOPC   NC313619   9.446   8.329   6.456  0.0511  0.0927 -0.0334
  945YOPC   PO413620   9.658   8.707   6.497 -0.1033 -0.2070  0.1884
  945YOPC   GL113621   9.700   8.770   6.902  0.1062  0.1144  0.0414
  945YOPC   GL213622   9.935   8.659   6.987 -0.0797  0.2037  0.0918
  945YOPC   C1A13623   9.647   9.075   7.283 -0.3387  0.1334 -0.0458
  945YOPC   D2A13624   9.555   9.254   7.626  0.0040  0.0040  0.3514
  945YOPC   C3A13625   9.217   9.313   7.762 -0.0563  0.1511  0.4489
  945YOPC   C4A13626   8.921   9.063   7.732 -0.1853 -0.1343  0.0452
  945YOPC   C1B13627   9.731   8.568   7.414  0.1243 -0.3930  0.0764
  945YOPC   C2B13628   9.407   8.798   7.595 -0.0659 -0.2208 -0.4448
  945YOPC   D3B13629   9.355   8.935   8.056 -0.1160 -0.3840  0.1221
  945YOPC   C4B13630   9.604   9.251   8.167 -0.0951 -0.2370  0.1664
  946YOPC   NC313631  10.960   5.965   6.777 -0.0593 -0.1594  0.0662
  946YOPC   PO413632  10.588   5.834   6.397  0.0828 -0.1578  0.2975
  946YOPC   GL113633  10.510   5.836   6.784 -0.0672  0.0332 -0.2006
  946YOPC   GL213634  10.404   5.608   7.032  0.2139 -0.2202  0.1877
  946YOPC   C1A13635  10.087   5.984   7.092 -0.0628 -0.0086  0.3365
  946YOPC   D2A13636   9.689   5.855   7.123 -0.1625  0.0820 -0.1827
  946YOPC   C3A13637   9.405   5.712   6.811  0.1744  0.2946 -0.0205
  946YOPC   C4A13638   9.397   5.338   6.490  0.0278  0.1589  0.0639
  946YOPC   C1B13639  10.289   5.566   7.476  0.0488  0.1660 -0.1030
  946YOPC   C2B13640  10.368   5.802   7.752  0.0550  0.2640  0.0440
  946YOPC   D3B13641  10.054   6.019   8.006  0.3661  0.0262 -0.1293
  946YOPC   C4B13642  10.071   6.088   8.428 -0.0340 -0.2945 -0.0368
  947YOPC   NC313643   9.030  12.590   5.915 -0.0893 -0.1463 -0.1208
  947YOPC   PO413644   9.051  12.535   6.311  0.5167 -0.1130 -0.0364
  947YOPC   GL113645   9.263  12.464   6.688 -0.1743  0.2145  0.2708
  947YOPC   GL213646   9.302  12.187   6.775 -0.0774 -0.0374 -0.3786
  947YOPC   C1A13647   9.201  12.512   7.147 -0.0915  0.1058  0.0427
  947YOPC   D2A13648   9.229  12.460   7.548 -0.1189 -0.2539  0.0399
  947YOPC   C3A13649   9.146  12.383   7.954 -0.3248  0.2532 -0.1363
  947YOPC   C4A13650   9.125  12.205   8.412 -0.2165  0.0623  0.1325
  947YOPC   C1B13651   9.366  12.056   7.298 -0.2573  0.0814 -0.0626
  947YOPC   C2B13652   9.447  12.057   7.810 -0.0888 -0.0780 -0.0814
  947YOPC   D3B13653   9.518  11.718   8.054  0.0051 -0.0975  0.0135
  947YOPC   C4B13654   9.513  11.630   8.445 -0.2514 -0.1856 -0.2016
  948YOPC   NC313655   6.108  13.743   5.741  0.0574 -0.3650  0.1383
  948YOPC   PO413656   6.300  14.017   5.882 -0.2064 -0.3671 -0.3187
  948YOPC   GL113657   6.036  14.045   6.269 -0.1755  0.0460  0.1409
  948YOPC   GL213658   6.180  13.786   6.378  0.0402 -0.0134  0.0498
  948YOPC   C1A13659   5.775  14.273   6.560 -0.1607  0.1338 -0.1571
  948YOPC   D2A13660   5.733  14.276   7.052  0.2348 -0.1819  0.1526
  948YOPC   C3A13661   5.317  14.154   7.192 -0.2850 -0.0976 -0.2369
  948YOPC   C4A13662   5.060  13.942   7.557 -0.1091  0.1843 -0.3865
  948YOPC   C1B13663   6.059  13.783   6.806 -0.2987 -0.1023  0.0669
  948YOPC   C2B13664   6.039  13.925   7.299 -0.2292 -0.1890 -0.2430
  948YOPC   D3B13665   5.964  13.676   7.563  0.1876  0.0824 -0.1642
  948YOPC   C4B13666   5.759  13.344   7.647 -0.0018 -0.0593  0.4318
  949YOPC   NC313667  15.868  17.491   5.266  0.1001  0.0019 -0.0007
  949YOPC   PO413668  15.604  17.340   5.543  0.0001  0.1883 -0.0785
  949YOPC   GL113669  15.756  17.581   6.014  0.0913 -0.3168 -0.2492
  949YOPC   GL213670  15.833  17.914   6.073 -0.2806  0.2063  0.1280
  949YOPC   C1A13671  15.462  17.690   6.389  0.0304  0.2979  0.1870
  949YOPC   D2A13672  15.321  18.012   6.590  0.2605  0.2814  0.3154
  949YOPC   C3A13673  15.158  17.782   6.909  0.3600 -0.0364  0.3105
  949YOPC   C4A13674  14.789  17.524   6.972  0.3416 -0.2665 -0.2302
  949YOPC   C1B13675  15.833  18.080   6.464 -0.1916 -0.0871  0.3069
  949YOPC   C2B13676  15.679  18.494   6.599  0.1125 -0.3957  0.1004
  949YOPC   D3B13677  15.619  18.728   7.037  0.1007 -0.0008 -0.0359
  949YOPC   C4B13678  15.631  18.713   7.414  0.0417  0.0930  0.0149
  950YOPC   NC313679  12.176   0.339   6.069  0.0651 -0.0866  0.0805
  950YOPC   PO413680  11.932   0.625   6.170 -0.1329 -0.1720  0.0058
  950YOPC   GL113681  11.883   0.676   6.660  0.1616 -0.0696 -0.0602
  950YOPC   GL213682  11.952   0.976   6.515  0.1015 -0.1250 -0.2412
  950YOPC   C1A13683  11.961   0.692   7.113 -0.0634 -0.4803  0.1598
  950YOPC   D2A13684  12.196   0.765   7.439 -0.2132  0.1136  0.2961
  950YOPC   C3A13685  12.114   0.719   7.858 -0.0694  0.0850 -0.3248
  950YOPC   C4A13686  11.880   0.436   8.154  0.0238 -0.2046 -0.1431
  950YOPC   C1B13687  11.974   1.176   6.945  0.0757 -0.0614  0.1981
  950YOPC   C2B13688  12.055   1.250   7.377  0.2201  0.0260  0.3063
  950YOPC   D3B13689  11.890   1.142   7.822  0.1118  0.3703  0.3102
  950YOPC   C4B13690  12.114   1.201   8.218 -0.1564 -0.1536 -0.0352
  951YOPC   NC313691   1.241   4.657   5.905  0.3380 -0.2564 -0.0106
  951YOPC   PO413692   1.434   4.350   6.139 -0.2127 -0.2395  0.1661
  951YOPC   GL113693   1.547   4.358   6.534 -0.1382 -0.2342 -0.3531
  951YOPC   GL213694   1.691   4.346   6.687 -0.2746  0.4914  0.2082
  951YOPC   C1A13695   1.290   4.204   6.847 -0.1515  0.1802 -0.0233
  951YOPC   D2A13696   1.025   4.161   7.125  0.0555 -0.1520  0.1668
  951YOPC   C3A13697   1.201   4.135   7.531 -0.0430 -0.0027  0.1995
  951YOPC   C4A13698   1.397   4.254   7.903  0.2477  0.0242  0.0594
  951YOPC   C1B13699   1.885   4.382   7.133 -0.1373  0.1714 -0.1711
  951YOPC   C2B13700   1.888   4.295   7.506  0.1234 -0.0069 -0.2675
  951YOPC   D3B13701   1.846   4.449   7.955 -0.1491  0.1609 -0.2220
  951YOPC   C4B13702   2.167   4.531   8.280 -0.0283 -0.2268 -0.5481
  952YOPC   NC313703   9.527  13.398   5.567  0.0252 -0.0457 -0.0736
  952YOPC   PO413704   9.323  13.531   5.891 -0.1192  0.0000 -0.0975
  952YOPC   GL113705   9.402  13.369   6.326  0.3156  0.0589 -0.0274
  952YOPC   GL213706   9.303  13.573   6.604  0.0502  0.0378  0.3735
  952YOPC   C1A13707   9.763  13.418   6.577 -0.2077  0.2174 -0.0780
  952YOPC   D2A13708   9.781  13.312   7.041 -0.3764  0.1358  0.0651
  952YOPC   C3A13709   9.663  13.517   7.436  0.1897 -0.4253 -0.2829
  952YOPC   C4A13710   9.561  13.297   7.746  0.0909  0.0594  0.3153
  952YOPC   C1B13711   9.294  13.294   6.916 -0.0213 -0.0070 -0.0023
  952YOPC   C2B13712   9.150  13.073   7.287 -0.1072 -0.1868  0.0538
  952YOPC   D3B13713   9.176  13.044   7.723 -0.2133 -0.1946  0.1215
  952YOPC   C4B13714   9.153  12.853   8.172 -0.0803 -0.1902 -0.1487
  953YOPC   NC313715   5.227   6.384   6.471 -0.2449  0.1234 -0.0827
  953YOPC   PO413716   4.893   6.428   6.280 -0.0718  0.0316 -0.0739
  953YOPC   GL113717   4.765   6.414   6.747 -0.2384 -0.0627  0.1181
  953YOPC   GL213718   4.491   6.575   6.813 -0.0119 -0.1370  0.0941
  953YOPC   C1A13719   4.797   6.121   7.101  0.0900 -0.0535 -0.1625
  953YOPC   D2A13720   4.819   5.951   7.576  0.2800  0.1579  0.3600
  953YOPC   C3A13721   4.498   6.138   7.782  0.0017  0.0661  0.0255
  953YOPC   C4A13722   4.392   6.213   8.188  0.1105 -0.0883 -0.0822
  953YOPC   C1B13723   4.337   6.874   7.062  0.2500 -0.0211 -0.0858
  953YOPC   C2B13724   4.270   7.092   7.481 -0.1087  0.1683  0.4563
  953YOPC   D3B13725   3.948   6.820   7.728  0.2330 -0.3575 -0.0869
  953YOPC   C4B13726   3.748   6.745   8.085  0.2887 -0.1251 -0.2861
  954YOPC   NC313727   1.373   8.299   6.099 -0.0362 -0.1534  0.1887
  954YOPC   PO413728   1.130   8.581   5.870 -0.1072  0.0950  0.1072
  954YOPC   GL113729   1.298   8.786   6.249  0.1146  0.1965 -0.2591
  954YOPC   GL213730   1.681   8.658   6.321 -0.0166  0.0181  0.0029
  954YOPC   C1A13731   1.428   8.995   6.555 -0.2661  0.1341  0.0831
  954YOPC   D2A13732   1.628   9.174   6.865 -0.1443 -0.1812 -0.3738
  954YOPC   C3A13733   1.655   9.165   7.303 -0.1597  0.0670  0.0776
  954YOPC   C4A13734   1.609   8.983   7.726  0.3047  0.0166 -0.0667
  954YOPC   C1B13735   1.832   8.639   6.648 -0.1904 -0.0388  0.2292
  954YOPC   C2B13736   1.801   8.709   7.020 -0.1028  0.0323  0.0176
  954YOPC   D3B13737   2.059   8.646   7.384 -0.1340 -0.2474  0.1008
  954YOPC   C4B13738   2.155   8.804   7.808  0.2193 -0.4091 -0.1346
  955YOPC   NC313739  17.704   0.796   5.623 -0.2028 -0.0768 -0.1323
  955YOPC   PO413740  17.773   0.655   6.069 -0.0488 -0.2062 -0.1109
  955YOPC   GL113741  17.733   0.467   6.474 -0.1015 -0.1160 -0.1476
  955YOPC   GL213742  17.464   0.472   6.580  0.4712  0.3219  0.3924
  955YOPC   C1A13743  17.938   0.486   6.872 -0.0937  0.4410  0.0351
  955YOPC   D2A13744  18.299   0.302   7.129  0.0959 -0.0943 -0.1579
  955YOPC   C3A13745  18.442   0.571   7.527  0.2930 -0.0149 -0.0333
  955YOPC   C4A13746  18.547   1.094   7.598  0.1646 -0.0368 -0.2971
  955YOPC   C1B13747  17.384   0.350   7.013 -0.0758 -0.1680 -0.0437
  955YOPC   C2B13748  17.398   0.260   7.443  0.0776  0.3917 -0.1194
  955YOPC   D3B13749  17.286   0.635   7.757 -0.0283 -0.0494 -0.0620
  955YOPC   C4B13750  17.179   0.661   8.171 -0.0019 -0.1837 -0.1435
  956YOPC   NC313751   4.081   3.144   5.195 -0.1727 -0.1343 -0.2194
  956YOPC   PO413752   4.124   2.956   5.738  0.1888  0.1017 -0.0289
  956YOPC   GL113753   4.084   2.849   6.281  0.0623  0.2009 -0.2020
  956YOPC   GL213754   3.973   2.551   6.389  0.0739  0.2515  0.2378
  956YOPC   C1A13755   4.151   2.949   6.698  0.0057 -0.1733 -0.1016
  956YOPC   D2A13756   4.185   2.761   7.131 -0.2442  0.0700  0.0182
  956YOPC   C3A13757   4.301   2.850   7.558  0.0740 -0.0817 -0.2644
  956YOPC   C4A13758   4.582   2.674   7.816 -0.0334  0.1047 -0.0085
  956YOPC   C1B13759   3.827   2.403   6.813  0.0238  0.1760 -0.3424
  956YOPC   C2B13760   3.805   2.293   7.213  0.3196 -0.1993  0.2052
  956YOPC   D3B13761   4.048   2.403   7.545 -0.1514 -0.0367  0.3542
  956YOPC   C4B13762   4.065   2.459   7.912  0.3170  0.2202  0.1311
  957YOPC   NC313763  17.450   1.454   5.796 -0.1597 -0.0836  0.2468
  957YOPC   PO413764  17.792   1.661   6.034  0.0806  0.3279 -0.1051
  957YOPC   GL113765  17.777   1.737   6.458 -0.4508 -0.2196 -0.2128
  957YOPC   GL213766  17.761   1.503   6.525 -0.1261 -0.1152  0.1781
  957YOPC   C1A13767  18.093   1.962   6.787 -0.2651  0.1543  0.0275
  957YOPC   D2A13768  18.488   1.956   6.951  0.0474 -0.0522  0.2152
  957YOPC   C3A13769  18.422   1.983   7.418  0.0652  0.3399  0.2065
  957YOPC   C4A13770  18.693   1.767   7.700  0.2123 -0.1956  0.1601
  957YOPC   C1B13771  17.797   1.609   6.970  0.1401 -0.0819 -0.1129
  957YOPC   C2B13772  17.981   1.789   7.322 -0.1478 -0.1223 -0.2014
  957YOPC   D3B13773  17.743   1.786   7.605 -0.0206  0.1316 -0.0328
  957YOPC   C4B13774  17.653   1.531   8.007  0.3534 -0.1832 -0.1821
  958YOPC   NC313775  12.726   3.660   5.392  0.2305 -0.1904  0.1578
  958YOPC   PO413776  13.018   3.949   5.726 -0.1525 -0.1097  0.1929
  958YOPC   GL113777  12.985   4.092   6.197 -0.1456  0.0281 -0.0509
  958YOPC   GL213778  12.646   4.104   6.328  0.0348  0.0867 -0.2055
  958YOPC   C1A13779  13.135   3.998   6.591  0.4405 -0.0721  0.0557
  958YOPC   D2A13780  13.288   4.229   6.917 -0.0714  0.0454 -0.0845
  958YOPC   C3A13781  13.368   4.107   7.258 -0.0855  0.2085 -0.2315
  958YOPC   C4A13782  13.365   4.167   7.706  0.1075  0.4029 -0.2843
  958YOPC   C1B13783  12.652   4.026   6.763 -0.2226  0.0222 -0.0464
  958YOPC   C2B13784  12.910   4.003   7.032  0.2005 -0.0275 -0.2907
  958YOPC   D3B13785  12.942   4.061   7.471 -0.1730 -0.1592 -0.1704
  958YOPC   C4B13786  12.921   4.061   7.933 -0.0116 -0.4800 -0.2096
  959YOPC   NC313787   6.234  15.740   5.817 -0.1306 -0.2609 -0.2248
  959YOPC   PO413788   5.872  15.922   5.969 -0.1966 -0.4428 -0.0972
  959YOPC   GL113789   5.529  15.824   6.248  0.3108  0.2429 -0.0085
  959YOPC   GL213790   5.256  15.980   6.304  0.0903 -0.1304  0.1632
  959YOPC   C1A13791   5.538  15.486   6.509  0.1268 -0.3640  0.1845
  959YOPC   D2A13792   5.776  15.235   6.842  0.0372 -0.1061  0.0823
  959YOPC   C3A13793   5.573  15.124   7.221 -0.1340 -0.0870 -0.2460
  959YOPC   C4A13794   5.368  15.197   7.675 -0.1174 -0.3190  0.1558
  959YOPC   C1B13795   5.433  15.952   6.725  0.0681  0.0224  0.0636
  959YOPC   C2B13796   5.462  15.797   7.112  0.0606 -0.1364 -0.1287
  959YOPC   D3B13797   5.175  15.428   7.221  0.0370  0.1845 -0.1675
  959YOPC   C4B13798   4.686  15.277   7.149 -0.3525  0.1881 -0.0914
  960YOPC   NC313799  13.924  12.755   6.325 -0.3379 -0.2264 -0.2743
  960YOPC   PO413800  13.546  12.594   6.499  0.1511 -0.2748 -0.1224
  960YOPC   GL113801  13.449  12.684   6.930  0.2230  0.2882  0.0860
  960YOPC   GL213802  13.767  12.475   7.010  0.0988 -0.0929  0.1169
  960YOPC   C1A13803  13.387  12.852   7.348 -0.1247  0.3143 -0.1504
  960YOPC   D2A13804  13.443  12.683   7.729  0.1454 -0.0721  0.3198
  960YOPC   C3A13805  13.424  13.026   7.861  0.2443  0.2898 -0.0431
  960YOPC   C4A13806  13.811  13.258   8.047 -0.0086 -0.1156 -0.0656
  960YOPC   C1B13807  13.711  12.358   7.462  0.0213 -0.1118  0.1376
  960YOPC   C2B13808  13.808  12.175   7.912  0.1685  0.0142  0.3229
  960YOPC   D3B13809  13.464  12.103   8.126 -0.0683  0.1041  0.1172
  960YOPC   C4B13810  13.091  11.841   8.253  0.1731 -0.1883 -0.4142
  961YOPC   NC313811   5.645  13.372   5.140 -0.0734 -0.0490  0.1321
  961YOPC   PO413812   5.854  13.387   5.355  0.0729 -0.1656  0.0736
  961YOPC   GL113813   5.596  13.575   5.653 -0.3131 -0.1901 -0.0020
  961YOPC   GL213814   5.594  13.923   5.743 -0.2444 -0.1044  0.0471
  961YOPC   C1A13815   5.148  13.803   5.827 -0.1103  0.2305  0.2247
  961YOPC   D2A13816   4.918  14.246   6.066  0.1645  0.1672 -0.1288
  961YOPC   C3A13817   4.481  14.260   6.020 -0.2619 -0.0159 -0.0279
  961YOPC   C4A13818   4.095  13.948   5.996  0.1036  0.1472  0.0862
  961YOPC   C1B13819   5.505  14.097   6.100  0.1180  0.0048 -0.5478
  961YOPC   C2B13820   5.418  14.560   6.324 -0.2652  0.3670  0.2178
  961YOPC   D3B13821   5.459  14.635   6.825 -0.0335  0.0424  0.1104
  961YOPC   C4B13822   5.440  14.648   7.272 -0.2035 -0.2634  0.0027
  962YOPC   NC313823   5.577  10.282   5.918 -0.0889 -0.1447  0.0546
  962YOPC   PO413824   5.213  10.000   5.905  0.0838 -0.0086 -0.2482
  962YOPC   GL113825   5.255  10.031   6.393  0.0048 -0.2984 -0.0498
  962YOPC   GL213826   5.218   9.704   6.463  0.1337 -0.0680 -0.1165
  962YOPC   C1A13827   5.419   9.997   6.834  0.1195 -0.0020  0.1662
  962YOPC   D2A13828   5.320  10.069   7.160  0.0946  0.0062  0.0468
  962YOPC   C3A13829   5.427   9.698   7.345 -0.1985  0.2344 -0.0936
  962YOPC   C4A13830   5.498   9.650   7.856  0.1828 -0.0091 -0.0933
  962YOPC   C1B13831   5.192   9.525   6.862  0.0754 -0.2423 -0.0830
  962YOPC   C2B13832   5.068   9.374   7.263  0.0121  0.1545 -0.3036
  962YOPC   D3B13833   4.911   9.732   7.542 -0.4008  0.0011 -0.0771
  962YOPC   C4B13834   5.160  10.045   7.741 -0.1009 -0.1516 -0.0211
  963YOPC   NC313835   2.289   0.411   5.759  0.0600 -0.6423 -0.1241
  963YOPC   PO413836   2.347   0.858   5.693 -0.5461  0.1134 -0.0114
  963YOPC   GL113837   2.480   0.851   6.166  0.1183 -0.0805 -0.1587
  963YOPC   GL213838   2.594   0.563   6.213  0.0964 -0.0342 -0.1536
  963YOPC   C1A13839   2.491   0.819   6.598  0.0139  0.4728 -0.1207
  963YOPC   D2A13840   2.389   0.869   7.014 -0.2408  0.0736  0.3276
  963YOPC   C3A13841   2.196   0.622   7.327 -0.1578 -0.0234  0.1745
  963YOPC   C4A13842   1.726   0.678   7.411 -0.2310 -0.0251  0.1306
  963YOPC   C1B13843   2.404   0.262   6.451  0.0488 -0.2936  0.0581
  963YOPC   C2B13844   2.210  -0.135   6.510 -0.1032  0.4198  0.2895
  963YOPC   D3B13845   2.317  -0.551   6.746 -0.1181 -0.3518 -0.2445
  963YOPC   C4B13846   2.344  -1.007   6.910  0.2353  0.3033  0.1080
  964YOPC   NC313847  10.925   2.015   5.909 -0.1960  0.0377  0.0960
  964YOPC   PO413848  11.258   2.174   6.190 -0.2073 -0.3545 -0.0198
  964YOPC   GL113849  11.331   2.281   6.644  0.0760 -0.0473 -0.0639
  964YOPC   GL213850  11.684   2.308   6.670 -0.3287  0.0548 -0.0221
  964YOPC   C1A13851  11.473   2.071   7.106 -0.0823 -0.0594 -0.2183
  964YOPC   D2A13852  11.731   2.049   7.488 -0.2611  0.1500  0.1212
  964YOPC   C3A13853  11.655   2.045   7.972 -0.1855  0.1538  0.3514
  964YOPC   C4A13854  11.519   1.977   8.396 -0.3025 -0.1254  0.0592
  964YOPC   C1B13855  11.500   2.566   7.064 -0.0222 -0.0458  0.1817
  964YOPC   C2B13856  11.354   2.421   7.502  0.2906  0.1609  0.1876
  964YOPC   D3B13857  11.440   2.498   7.855 -0.0825  0.0921  0.2918
  964YOPC   C4B13858  11.416   2.561   8.222 -0.0480  0.0989  0.0475
  965YOPC   NC313859   1.750  17.257   5.738 -0.2133 -0.1808 -0.0856
  965YOPC   PO413860   1.836  17.671   5.665 -0.0982  0.1413  0.1073
  965YOPC   GL113861   1.646  17.771   6.132 -0.0757  0.1956  0.0181
  965YOPC   GL213862   1.557  17.468   6.263  0.2113  0.1269 -0.1485
  965YOPC   C1A13863   1.730  18.011   6.514 -0.3972 -0.2781 -0.3298
  965YOPC   D2A13864   1.879  17.986   6.931  0.0500 -0.2301  0.0701
  965YOPC   C3A13865   1.673  18.018   7.333  0.1091  0.0751 -0.1249
  965YOPC   C4A13866   1.831  17.972   7.691 -0.0695 -0.2060  0.1989
  965YOPC   C1B13867   1.791  17.503   6.674  0.4146 -0.0738  0.2021
  965YOPC   C2B13868   1.905  17.575   7.154  0.1656 -0.1561 -0.1706
  965YOPC   D3B13869   1.650  17.512   7.491  0.0458  0.0055 -0.0017
  965YOPC   C4B13870   1.663  17.143   7.591 -0.0292 -0.0209 -0.0976
  966YOPC   NC313871   1.887  11.728   5.634 -0.1172 -0.1966  0.0588
  966YOPC   PO413872   1.993  12.110   5.939  0.3720  0.0431  0.2214
  966YOPC   GL113873   1.958  11.932   6.264  0.1762 -0.1647  0.0341
  966YOPC   GL213874   2.232  11.694   6.438 -0.1062 -0.0892 -0.1661
  966YOPC   C1A13875   1.932  12.090   6.686  0.2980 -0.1893 -0.0389
  966YOPC   D2A13876   2.103  12.282   6.903  0.0208 -0.2538 -0.1794
  966YOPC   C3A13877   1.894  12.559   7.208 -0.2360 -0.1719 -0.1449
  966YOPC   C4A13878   1.778  12.766   7.604 -0.1563 -0.0013  0.1567
  966YOPC   C1B13879   2.296  11.796   6.804  0.2807 -0.0607  0.0213
  966YOPC   C2B13880   2.035  11.750   7.107 -0.0386  0.0003  0.1370
  966YOPC   D3B13881   1.866  12.082   7.298 -0.0124  0.0077 -0.0477
  966YOPC   C4B13882   1.704  12.198   7.673  0.3844  0.2077  0.0292
  967YOPC   NC313883   7.580   2.666   5.753 -0.3302  0.0711  0.1389
  967YOPC   PO413884   7.787   2.806   6.101  0.1896 -0.1589  0.1457
  967YOPC   GL113885   7.838   2.761   6.548 -0.0621  0.1082  0.3125
  967YOPC   GL213886   7.915   2.390   6.642 -0.1034 -0.0128 -0.4436
  967YOPC   C1A13887   8.041   3.075   6.795 -0.1830 -0.1276 -0.0685
  967YOPC   D2A13888   8.253   3.165   7.121  0.1298  0.3719  0.1733
  967YOPC   C3A13889   8.220   3.083   7.642 -0.3045  0.2113  0.1958
  967YOPC   C4A13890   8.294   3.219   8.103 -0.0974 -0.2477 -0.2194
  967YOPC   C1B13891   7.877   2.660   7.064 -0.2413 -0.0034  0.3155
  967YOPC   C2B13892   7.971   2.682   7.534  0.2943  0.0330 -0.3281
  967YOPC   D3B13893   7.796   2.531   7.893  0.3219 -0.3630 -0.1218
  967YOPC   C4B13894   7.324   2.337   8.068  0.0023 -0.2035 -0.0811
  968YOPC   NC313895  14.495   2.780   5.889  0.0143 -0.0456 -0.4149
  968YOPC   PO413896  15.052   2.808   6.007  0.0791 -0.2904  0.0235
  968YOPC   GL113897  14.769   2.860   6.300 -0.1638  0.0701  0.3343
  968YOPC   GL213898  14.981   2.894   6.503 -0.1034 -0.2561  0.4623
  968YOPC   C1A13899  14.548   2.748   6.717  0.1368 -0.1874 -0.1992
  968YOPC   D2A13900  14.463   2.602   7.109 -0.1126  0.2669  0.0454
  968YOPC   C3A13901  14.648   2.776   7.426 -0.0137 -0.0402 -0.1505
  968YOPC   C4A13902  14.536   2.909   7.832 -0.2383 -0.0358 -0.2102
  968YOPC   C1B13903  14.981   2.746   6.940 -0.2054  0.0498  0.0633
  968YOPC   C2B13904  15.207   2.760   7.307 -0.1282  0.0405  0.1824
  968YOPC   D3B13905  15.058   2.833   7.615 -0.0001  0.0201 -0.2701
  968YOPC   C4B13906  14.976   3.072   8.023 -0.1267 -0.1605 -0.0183
  969YOPC   NC313907   9.008   5.252   5.666  0.0739  0.1845  0.2986
  969YOPC   PO413908   9.031   5.095   6.107  0.1302  0.0559  0.0464
  969YOPC   GL113909   8.966   5.051   6.491  0.0750 -0.0310  0.1684
  969YOPC   GL213910   9.222   4.860   6.585  0.2630 -0.3117  0.2000
  969YOPC   C1A13911   8.862   5.386   6.821 -0.1146  0.1922  0.0654
  969YOPC   D2A13912   8.859   5.731   7.124  0.1990  0.1714 -0.1631
  969YOPC   C3A13913   8.772   5.584   7.407  0.0902  0.0550  0.0458
  969YOPC   C4A13914   8.955   5.555   7.875 -0.1352  0.1730  0.1308
  969YOPC   C1B13915   9.203   5.026   6.989 -0.1459 -0.0674 -0.0648
  969YOPC   C2B13916   9.309   5.419   7.260  0.1598 -0.0482 -0.2247
  969YOPC   D3B13917   9.431   5.402   7.712  0.0641  0.4497  0.1445
  969YOPC   C4B13918   9.878   5.403   7.894  0.0864 -0.2199 -0.1552
  970YOPC   NC313919  14.667  13.597   6.003 -0.1439  0.1916 -0.0316
  970YOPC   PO413920  15.121  13.450   6.015 -0.0774  0.1228  0.0334
  970YOPC   GL113921  15.319  13.525   6.446  0.0370  0.1161 -0.0367
  970YOPC   GL213922  15.631  13.736   6.543  0.0091 -0.0139  0.0420
  970YOPC   C1A13923  15.618  13.257   6.816 -0.1072  0.0298  0.0158
  970YOPC   D2A13924  15.970  13.352   7.111 -0.1044 -0.1406 -0.0279
  970YOPC   C3A13925  16.098  13.297   7.481  0.1125 -0.1773 -0.1411
  970YOPC   C4A13926  16.300  13.383   7.848 -0.3061  0.2092  0.1833
  970YOPC   C1B13927  15.745  13.769   6.928 -0.0394  0.1203  0.3241
  970YOPC   C2B13928  15.733  13.989   7.135  0.1383 -0.2939  0.1226
  970YOPC   D3B13929  15.917  13.768   7.566  0.0726  0.0561 -0.1455
  970YOPC   C4B13930  15.716  13.571   7.940 -0.2600 -0.0222  0.0045
  971YOPC   NC313931   7.017   9.409   5.916 -0.2290 -0.3122  0.2833
  971YOPC   PO413932   6.821   9.690   6.129  0.0263  0.1345 -0.1349
  971YOPC   GL113933   7.008   9.868   6.575  0.0795  0.4205 -0.2047
  971YOPC   GL213934   6.751   9.860   6.696  0.2616  0.1734 -0.0293
  971YOPC   C1A13935   7.147  10.006   7.009 -0.3487 -0.1483 -0.3289
  971YOPC   D2A13936   7.221   9.919   7.479  0.1724  0.0929 -0.0099
  971YOPC   C3A13937   7.482  10.205   7.827  0.0892 -0.0979 -0.0776
  971YOPC   C4A13938   7.214  10.410   8.233  0.1469 -0.0010  0.1063
  971YOPC   C1B13939   6.820   9.665   7.183  0.1907  0.0367  0.1636
  971YOPC   C2B13940   6.976   9.403   7.440 -0.2967  0.1047  0.1924
  971YOPC   D3B13941   7.028   9.461   7.806 -0.0464 -0.1183 -0.2850
  971YOPC   C4B13942   7.486   9.621   7.912 -0.0244 -0.1856  0.3189
  972YOPC   NC313943   8.352  15.766   5.852 -0.3086  0.2370 -0.0468
  972YOPC   PO413944   8.468  15.341   5.988  0.1482 -0.0026  0.1086
  972YOPC   GL113945   8.151  15.625   6.327  0.1011  0.1020  0.0827
  972YOPC   GL213946   7.846  15.515   6.419  0.1160  0.0806 -0.1662
  972YOPC   C1A13947   8.154  15.934   6.730  0.0597  0.0077  0.1221
  972YOPC   D2A13948   8.004  16.294   7.002  0.0401  0.0999 -0.0604
  972YOPC   C3A13949   7.689  16.544   6.925  0.2967 -0.2604 -0.1414
  972YOPC   C4A13950   7.555  16.735   6.625 -0.2781  0.0896 -0.0363
  972YOPC   C1B13951   7.819  15.494   6.894 -0.0467  0.3902 -0.1735
  972YOPC   C2B13952   7.859  15.461   7.377  0.0948  0.1016 -0.0145
  972YOPC   D3B13953   7.723  15.146   7.552 -0.0562 -0.0649  0.2868
  972YOPC   C4B13954   7.759  15.137   7.929  0.4886  0.3243 -0.0277
  973YOPC   NC313955   9.651   6.673   6.054  0.0674 -0.1187 -0.0399
  973YOPC   PO413956   9.459   6.866   6.370  0.0466 -0.0353  0.0478
  973YOPC   GL113957   9.338   6.910   6.812 -0.2282  0.4452 -0.0531
  973YOPC   GL213958   9.000   6.973   6.923  0.0747 -0.1400  0.1261
  973YOPC   C1A13959   9.267   6.853   7.313 -0.1057 -0.0669 -0.0029
  973YOPC   D2A13960   9.245   6.952   7.728  0.0264  0.0034  0.1010
  973YOPC   C3A13961   8.896   6.852   7.944 -0.0380  0.0676  0.1797
  973YOPC   C4A13962   8.673   6.984   8.441  0.1612  0.1648 -0.0196
  973YOPC   C1B13963   8.840   7.098   7.347 -0.2105 -0.1557 -0.1533
  973YOPC   C2B13964   8.853   7.373   7.734  0.3410  0.1819 -0.1044
  973YOPC   D3B13965   9.033   7.251   8.114 -0.2652 -0.1604  0.0787
  973YOPC   C4B13966   9.079   7.277   8.524 -0.1496 -0.0469 -0.1989
  974YOPC   NC313967   1.145   2.143   5.764  0.0443  0.4461 -0.1246
  974YOPC   PO413968   1.375   1.814   5.963 -0.0443 -0.2166 -0.0564
  974YOPC   GL113969   1.214   1.933   6.199  0.0767  0.0250  0.3854
  974YOPC   GL213970   1.214   2.225   6.310 -0.0211  0.0303  0.1907
  974YOPC   C1A13971   1.319   1.751   6.631  0.1972  0.4951  0.2442
  974YOPC   D2A13972   1.544   1.709   7.024  0.0231  0.1178  0.1917
  974YOPC   C3A13973   1.814   1.445   7.066  0.0004 -0.0169  0.0684
  974YOPC   C4A13974   2.038   1.104   7.255 -0.0360  0.1854  0.0613
  974YOPC   C1B13975   1.428   2.519   6.399 -0.0593  0.3449  0.1079
  974YOPC   C2B13976   1.517   2.781   6.713 -0.2495  0.0868  0.0711
  974YOPC   D3B13977   1.334   2.745   7.173 -0.0129 -0.1700  0.1008
  974YOPC   C4B13978   1.396   2.682   7.640  0.1396  0.0294 -0.1503
  975YOPC   NC313979   4.635   5.095   6.205  0.0633  0.0719  0.2532
  975YOPC   PO413980   4.970   5.429   6.267 -0.0882 -0.0332  0.0879
  975YOPC   GL113981   4.846   5.247   6.609 -0.1886 -0.1201 -0.2599
  975YOPC   GL213982   5.046   5.328   6.768 -0.0291 -0.0786 -0.2337
  975YOPC   C1A13983   4.553   5.168   6.968 -0.0046  0.1607  0.3164
  975YOPC   D2A13984   4.461   4.931   7.369  0.3996  0.0224  0.3871
  975YOPC   C3A13985   4.311   5.120   7.783 -0.0623 -0.0943  0.0338
  975YOPC   C4A13986   4.150   5.295   8.094  0.1032 -0.2958  0.0123
  975YOPC   C1B13987   5.013   5.065   7.075 -0.0861 -0.0189 -0.0007
  975YOPC   C2B13988   4.930   5.156   7.485  0.0395  0.0823 -0.1594
  975YOPC   D3B13989   5.263   5.127   7.819  0.1077 -0.2397  0.0632
  975YOPC   C4B13990   5.393   5.310   8.146 -0.0617  0.1687  0.3366
  976YOPC   NC313991   1.388  15.056   5.494  0.0644 -0.0868 -0.0490
  976YOPC   PO413992   1.348  15.192   5.928  0.0914  0.2297  0.4662
  976YOPC   GL113993   1.273  15.112   6.430 -0.1845  0.3425 -0.2225
  976YOPC   GL213994   1.162  15.313   6.545 -0.0930  0.1510  0.0135
  976YOPC   C1A13995   1.423  14.965   6.825 -0.0347  0.0854 -0.0373
  976YOPC   D2A13996   1.498  15.144   7.271  0.1193 -0.0048 -0.0804
  976YOPC   C3A13997   1.277  14.767   7.510 -0.1620  0.1946  0.1464
  976YOPC   C4A13998   0.997  14.625   7.717  0.2339 -0.2115  0.3664
  976YOPC   C1B13999   1.105  15.398   6.923 -0.0486 -0.0736  0.0168
  976YOPC   C2B14000   1.040  15.371   7.347 -0.0033 -0.2789  0.0446
  976YOPC   D3B14001   1.167  15.191   7.735 -0.4030  0.1352 -0.2661
  976YOPC   C4B14002   0.979  14.923   8.099 -0.2085  0.0510  0.1919
  977YOPC   NC314003   3.907   0.120   5.653  0.0660  0.1410 -0.2121
  977YOPC   PO414004   4.205   0.358   5.818 -0.0356 -0.0445  0.2021
  977YOPC   GL114005   4.112   0.531   6.197  0.0565  0.1079  0.1009
  977YOPC   GL214006   4.285   0.248   6.328 -0.1837  0.0697  0.4035
  977YOPC   C1A14007   4.003   0.725   6.495 -0.0471 -0.1204 -0.0906
  977YOPC   D2A14008   3.829   0.860   6.912 -0.1293 -0.2022  0.2017
  977YOPC   C3A14009   3.744   0.839   7.305  0.0458  0.0674  0.1875
  977YOPC   C4A14010   3.932   1.052   7.593  0.0267  0.0693  0.0785
  977YOPC   C1B14011   4.135   0.238   6.758 -0.2262 -0.1099  0.2966
  977YOPC   C2B14012   3.903   0.359   6.940 -0.1179  0.0207 -0.0524
  977YOPC   D3B14013   3.789   0.296   7.329  0.4086  0.1436  0.1228
  977YOPC   C4B14014   3.645   0.499   7.754  0.0878  0.1792  0.0977
  978YOPC   NC314015   1.615   5.678   6.000  0.3723 -0.4142  0.0028
  978YOPC   PO414016   1.179   5.526   6.159  0.1573 -0.1095 -0.1437
  978YOPC   GL114017   1.117   5.408   6.558  0.0853  0.0681  0.0861
  978YOPC   GL214018   1.292   5.290   6.711  0.0385  0.0716  0.1934
  978YOPC   C1A14019   0.900   5.497   6.882  0.0873 -0.2093  0.1345
  978YOPC   D2A14020   0.961   5.536   7.280  0.1080 -0.0308  0.0541
  978YOPC   C3A14021   0.961   5.827   7.699 -0.1197 -0.0231 -0.0159
  978YOPC   C4A14022   0.973   5.827   8.057 -0.1426  0.0369 -0.2953
  978YOPC   C1B14023   1.358   5.174   7.139  0.2189  0.1227 -0.3396
  978YOPC   C2B14024   1.433   5.231   7.539 -0.1072  0.0059  0.3252
  978YOPC   D3B14025   1.186   5.341   7.884 -0.0690  0.0623  0.2097
  978YOPC   C4B14026   0.802   5.267   8.008 -0.1580  0.0114 -0.0798
  979YOPC   NC314027   1.956   1.075   5.467 -0.0485  0.0261  0.0529
  979YOPC   PO414028   1.617   1.296   5.750 -0.1271  0.0191 -0.0112
  979YOPC   GL114029   1.685   1.503   6.169  0.0479  0.1806  0.0662
  979YOPC   GL214030   1.373   1.439   6.226  0.0266 -0.0647 -0.0161
  979YOPC   C1A14031   1.846   1.506   6.594 -0.2418 -0.1208  0.1707
  979YOPC   D2A14032   2.053   1.809   6.811  0.0335  0.3485  0.1006
  979YOPC   C3A14033   2.037   1.855   7.165 -0.3420 -0.2462  0.1563
  979YOPC   C4A14034   1.871   1.818   7.530  0.0005 -0.1619 -0.0211
  979YOPC   C1B14035   1.516   1.134   6.500  0.1988 -0.2226 -0.1138
  979YOPC   C2B14036   1.335   1.302   6.811  0.3184 -0.1831  0.0190
  979YOPC   D3B14037   1.309   1.223   7.268 -0.1624 -0.1211  0.3357
  979YOPC   C4B14038   1.379   0.941   7.634  0.1336  0.0144  0.1199
  980YOPC   NC314039   2.186   5.575   6.226 -0.0844 -0.0242  0.0960
  980YOPC   PO414040   2.556   5.442   5.957  0.0970 -0.0352 -0.2042
  980YOPC   GL114041   2.572   5.334   6.406 -0.0764 -0.1126 -0.1556
  980YOPC   GL214042   2.756   5.153   6.541  0.0491  0.3511  0.0071
  980YOPC   C1A14043   2.525   5.510   6.833 -0.1717  0.0101 -0.0311
  980YOPC   D2A14044   2.633   5.524   7.236  0.1252 -0.2327 -0.1046
  980YOPC   C3A14045   2.788   5.129   7.491  0.1055 -0.0244  0.0635
  980YOPC   C4A14046   2.701   5.065   7.877  0.1894 -0.0672  0.1092
  980YOPC   C1B14047   2.764   5.061   6.939 -0.1022  0.0052 -0.0476
  980YOPC   C2B14048   2.923   4.712   7.176 -0.1368 -0.0749 -0.4577
  980YOPC   D3B14049   2.985   4.686   7.576 -0.1298 -0.1178  0.0882
  980YOPC   C4B14050   3.029   4.563   7.933 -0.0389  0.0939  0.0200
  981YOPC   NC314051  12.971   2.986   5.948 -0.0940 -0.2096  0.0511
  981YOPC   PO414052  13.418   2.854   5.930  0.1114  0.3402 -0.0603
  981YOPC   GL114053  13.243   2.727   6.341 -0.1539  0.0024 -0.0057
  981YOPC   GL214054  13.294   2.453   6.353  0.1053 -0.0291  0.1014
  981YOPC   C1A14055  13.098   2.746   6.851 -0.2691 -0.2729 -0.0876
  981YOPC   D2A14056  12.873   2.837   7.190 -0.1236  0.0688  0.0172
  981YOPC   C3A14057  12.771   2.760   7.680  0.0223 -0.2524  0.0944
  981YOPC   C4A14058  12.752   2.835   8.078 -0.0849 -0.0564 -0.1443
  981YOPC   C1B14059  13.301   2.213   6.690  0.2570  0.0260  0.2553
  981YOPC   C2B14060  13.358   2.008   7.060 -0.2681 -0.1581  0.2453
  981YOPC   D3B14061  13.722   2.116   7.342 -0.0223 -0.0515 -0.0543
  981YOPC   C4B14062  13.915   2.036   7.755  0.2694 -0.1094 -0.0567
  982YOPC   NC314063  16.056   5.464   6.159 -0.2832  0.0227  0.2800
  982YOPC   PO414064  16.490   5.678   6.089  0.0847  0.2279 -0.3300
  982YOPC   GL114065  16.799   5.543   6.469  0.1499 -0.1558  0.0579
  982YOPC   GL214066  17.005   5.894   6.637 -0.0253 -0.2436  0.0935
  982YOPC   C1A14067  16.893   5.337   6.858  0.1721 -0.0344 -0.1080
  982YOPC   D2A14068  16.993   5.130   7.143 -0.2090 -0.0485 -0.1030
  982YOPC   C3A14069  16.939   5.304   7.479  0.0341  0.1223 -0.2594
  982YOPC   C4A14070  16.831   5.500   7.956 -0.2821 -0.0575 -0.4679
  982YOPC   C1B14071  17.061   5.783   7.118  0.3040  0.1244 -0.1156
  982YOPC   C2B14072  17.017   5.830   7.568 -0.2027  0.0713  0.0611
  982YOPC   D3B14073  17.352   5.668   7.814  0.0649 -0.2621  0.4324
  982YOPC   C4B14074  17.391   5.531   8.127 -0.0147 -0.0693 -0.3383
  983YOPC   NC314075   4.613  12.088   5.681 -0.3430  0.1543 -0.0027
  983YOPC   PO414076   4.574  12.463   5.468  0.5053 -0.0138  0.2659
  983YOPC   GL114077   4.812  12.460   5.947 -0.1414 -0.0848 -0.1237
  983YOPC   GL214078   4.477  12.340   6.122 -0.2254  0.2144  0.0171
  983YOPC   C1A14079   4.946  12.519   6.425 -0.2263  0.2157 -0.2112
  983YOPC   D2A14080   4.843  12.564   6.896  0.2721 -0.0711  0.2526
  983YOPC   C3A14081   4.923  12.792   7.191 -0.2538  0.2430  0.2193
  983YOPC   C4A14082   4.976  13.024   7.513  0.0585  0.0148  0.0857
  983YOPC   C1B14083   4.346  12.585   6.506 -0.1507 -0.2664 -0.0209
  983YOPC   C2B14084   4.196  12.754   6.840  0.1047  0.2950 -0.3155
  983YOPC   D3B14085   4.444  12.800   7.098 -0.0062  0.1519  0.0354
  983YOPC   C4B14086   4.576  12.750   7.579  0.1218 -0.1300 -0.2081
  984YOPC   NC314087   3.467  17.644   5.370 -0.0260  0.3773  0.0632
  984YOPC   PO414088   3.554  17.677   5.811 -0.1103  0.1617  0.0455
  984YOPC   GL114089   3.354  17.722   6.251  0.1227  0.0033  0.0233
  984YOPC   GL214090   2.992  17.779   6.265  0.1012  0.0197  0.0531
  984YOPC   C1A14091   3.309  17.716   6.691 -0.1905 -0.2712 -0.2074
  984YOPC   D2A14092   3.027  18.001   6.954 -0.3244  0.2840 -0.2273
  984YOPC   C3A14093   2.755  18.020   7.322  0.0196  0.0164 -0.0091
  984YOPC   C4A14094   2.877  18.008   7.835 -0.1557 -0.0655  0.0063
  984YOPC   C1B14095   2.725  17.751   6.655  0.1216  0.1643 -0.1380
  984YOPC   C2B14096   2.368  17.763   6.982  0.2252  0.1490 -0.0144
  984YOPC   D3B14097   2.262  17.917   7.362 -0.0233  0.0030 -0.2678
  984YOPC   C4B14098   2.436  18.109   7.698  0.0985 -0.1189 -0.1800
  985YOPC   NC314099   2.432  15.381   5.916 -0.2662 -0.0170 -0.0315
  985YOPC   PO414100   2.856  15.245   5.886 -0.0573 -0.2199 -0.1940
  985YOPC   GL114101   3.185  15.220   6.053  0.0858 -0.2423  0.0090
  985YOPC   GL214102   3.403  15.419   6.022 -0.3151 -0.0310 -0.0589
  985YOPC   C1A14103   3.385  15.224   6.464  0.2104 -0.0835 -0.3714
  985YOPC   D2A14104   3.571  15.133   6.781  0.0556 -0.1430  0.2098
  985YOPC   C3A14105   3.400  15.088   7.179 -0.0682  0.2675 -0.0272
  985YOPC   C4A14106   3.551  14.880   7.481 -0.0280 -0.0474 -0.1835
  985YOPC   C1B14107   3.622  15.604   6.322  0.1258 -0.1975 -0.0560
  985YOPC   C2B14108   3.624  15.756   6.824  0.1016  0.1275 -0.2179
  985YOPC   D3B14109   3.757  15.447   7.112  0.2383  0.0725 -0.1175
  985YOPC   C4B14110   3.905  15.232   7.484 -0.1560 -0.1394 -0.2257
  986YOPC   NC314111   8.620  13.106   6.199  0.2283  0.0229  0.1132
  986YOPC   PO414112   8.302  13.277   6.428  0.3160 -0.0846  0.1100
  986YOPC   GL114113   8.150  13.191   6.814  0.0815 -0.2189  0.1994
  986YOPC   GL214114   7.797  13.144   6.800  0.1379 -0.2543  0.0640
  986YOPC   C1A14115   8.113  13.501   7.167  0.1544  0.0140  0.0961
  986YOPC   D2A14116   8.058  13.474   7.479  0.5192 -0.1408 -0.2500
  986YOPC   C3A14117   8.125  13.733   7.799  0.0978  0.0397 -0.0743
  986YOPC   C4A14118   8.311  13.947   8.151  0.0997 -0.0153  0.1245
  986YOPC   C1B14119   7.845  13.088   7.242 -0.2295  0.1358  0.1264
  986YOPC   C2B14120   7.699  13.129   7.646  0.3724 -0.2541 -0.3813
  986YOPC   D3B14121   7.820  13.348   7.941  0.2054  0.1911 -0.1677
  986YOPC   C4B14122   7.735  13.657   8.150 -0.0308 -0.0279  0.1073
  987YOPC   NC314123   3.619   1.378   5.832  0.3782 -0.1607 -0.0115
  987YOPC   PO414124   3.151   1.428   5.932  0.1055  0.1159  0.2584
  987YOPC   GL114125   3.340   1.296   6.272  0.0805  0.0946 -0.0458
  987YOPC   GL214126   3.309   1.422   6.651  0.0374 -0.0671 -0.2046
  987YOPC   C1A14127   3.777   1.249   6.503  0.0987  0.0655 -0.2260
  987YOPC   D2A14128   3.880   1.347   6.897  0.0290 -0.0152  0.1427
  987YOPC   C3A14129   3.816   1.463   7.328  0.0977 -0.3304  0.1207
  987YOPC   C4A14130   3.689   1.428   7.788  0.0562  0.2071  0.0304
  987YOPC   C1B14131   3.440   1.628   6.974 -0.0981  0.0161 -0.2654
  987YOPC   C2B14132   3.433   1.899   7.359 -0.1613  0.1159 -0.0835
  987YOPC   D3B14133   3.295   1.779   7.749 -0.1615 -0.0624 -0.2003
  987YOPC   C4B14134   3.407   1.666   8.242  0.0151 -0.0809 -0.0774
  988YOPC   NC314135  11.416   8.836   6.429 -0.3011 -0.1934 -0.2708
  988YOPC   PO414136  11.039   9.132   6.454 -0.0881  0.1146  0.1146
  988YOPC   GL114137  11.116   9.213   6.835  0.1411 -0.1830 -0.0229
  988YOPC   GL214138  11.283   8.882   6.894  0.1093 -0.1238 -0.0382
  988YOPC   C1A14139  10.923   9.358   7.166 -0.1180  0.2099  0.3719
  988YOPC   D2A14140  10.987   9.399   7.540 -0.2263  0.1628  0.1906
  988YOPC   C3A14141  10.953   9.833   7.731  0.1313  0.0479 -0.0214
  988YOPC   C4A14142  11.054  10.261   7.882  0.0174  0.1428  0.2049
  988YOPC   C1B14143  11.185   8.953   7.347  0.0713 -0.1154  0.1644
  988YOPC   C2B14144  11.288   9.002   7.793  0.5360  0.1097 -0.1094
  988YOPC   D3B14145  11.250   9.364   7.981  0.0971 -0.1247  0.1467
  988YOPC   C4B14146  11.107   9.516   8.261  0.0940 -0.5223 -0.0870
  989YOPC   NC314147   8.484   8.195   6.419 -0.3607  0.1348 -0.2182
  989YOPC   PO414148   8.126   8.328   6.347 -0.1905 -0.0989  0.1249
  989YOPC   GL114149   7.880   8.479   6.630 -0.2891  0.2116  0.0521
  989YOPC   GL214150   7.705   8.729   6.520 -0.1833 -0.3346 -0.2652
  989YOPC   C1A14151   7.810   8.411   7.170  0.3876 -0.0205  0.0172
  989YOPC   D2A14152   7.885   8.517   7.544  0.3564  0.1425  0.1287
  989YOPC   C3A14153   7.877   8.760   7.844  0.1462  0.4055  0.0904
  989YOPC   C4A14154   8.130   8.875   8.184 -0.0795 -0.1912 -0.0422
  989YOPC   C1B14155   7.702   8.831   6.949  0.1066  0.0411 -0.0607
  989YOPC   C2B14156   7.692   8.924   7.382 -0.2204 -0.1518 -0.0045
  989YOPC   D3B14157   7.331   8.742   7.563  0.1215  0.1851 -0.1773
  989YOPC   C4B14158   7.068   8.457   7.778 -0.1793  0.2534  0.0336
  990YOPC   NC314159  16.087  16.303   5.747  0.1607 -0.0239  0.1274
  990YOPC   PO414160  16.163  16.671   6.062 -0.1433 -0.0189 -0.2120
  990YOPC   GL114161  16.150  16.820   6.498  0.0101  0.2411 -0.3931
  990YOPC   GL214162  16.484  16.587   6.561 -0.0789 -0.0383 -0.2244
  990YOPC   C1A14163  16.080  16.786   6.896 -0.2084  0.0529 -0.0178
  990YOPC   D2A14164  16.255  16.743   7.385 -0.0949 -0.0002 -0.1087
  990YOPC   C3A14165  16.413  17.164   7.571 -0.3532  0.0326  0.3402
  990YOPC   C4A14166  16.258  17.397   7.825  0.0109 -0.0904 -0.1561
  990YOPC   C1B14167  16.573  16.772   7.001  0.5886 -0.0530 -0.0211
  990YOPC   C2B14168  16.744  16.840   7.466  0.1464 -0.0168 -0.0941
  990YOPC   D3B14169  16.549  16.675   7.822  0.1767 -0.0568 -0.0124
  990YOPC   C4B14170  16.269  16.907   8.083  0.2352  0.0222  0.1877
  991YOPC   NC314171  13.354   9.180   6.291 -0.0863 -0.0092  0.1419
  991YOPC   PO414172  13.399   8.730   6.425 -0.1073  0.4893 -0.0326
  991YOPC   GL114173  13.424   8.516   6.799  0.1994 -0.1880 -0.1123
  991YOPC   GL214174  13.621   8.242   6.800 -0.0065 -0.0799  0.1158
  991YOPC   C1A14175  13.295   8.448   7.250 -0.1094 -0.1130  0.0789
  991YOPC   D2A14176  13.161   8.403   7.725 -0.1010  0.0856  0.0176
  991YOPC   C3A14177  13.474   8.523   7.981  0.3059  0.1917 -0.0774
  991YOPC   C4A14178  13.734   8.798   8.143  0.1090  0.0420  0.0049
  991YOPC   C1B14179  13.732   8.086   7.144  0.0282 -0.1450 -0.2379
  991YOPC   C2B14180  13.684   8.237   7.546  0.0409  0.0350 -0.1114
  991YOPC   D3B14181  13.628   7.985   7.851  0.2995  0.2240  0.3396
  991YOPC   C4B14182  13.397   7.894   8.179  0.0819 -0.1747 -0.0934
  992YOPC   NC314183   7.269  16.445   5.784 -0.1506 -0.1099 -0.1859
  992YOPC   PO414184   7.275  15.951   5.887 -0.0019 -0.2016  0.1394
  992YOPC   GL114185   7.238  15.940   6.290 -0.2480 -0.1784  0.2124
  992YOPC   GL214186   7.182  15.776   6.573 -0.0686 -0.4075 -0.1329
  992YOPC   C1A14187   7.336  16.308   6.621 -0.0510  0.1465 -0.2477
  992YOPC   D2A14188   7.388  16.219   7.044 -0.1074  0.2347 -0.2938
  992YOPC   C3A14189   7.323  16.517   7.361  0.0386  0.4207 -0.2422
  992YOPC   C4A14190   7.534  16.366   7.803  0.0080 -0.0243 -0.1556
  992YOPC   C1B14191   7.301  15.620   7.057 -0.0002  0.0151 -0.1028
  992YOPC   C2B14192   7.374  15.585   7.494 -0.0211  0.0255 -0.2735
  992YOPC   D3B14193   7.634  15.704   7.763 -0.0911  0.3950 -0.1466
  992YOPC   C4B14194   7.912  15.903   7.975 -0.0549  0.1389 -0.0302
  993YOPC   NC314195  13.625   1.653   6.193  0.0190  0.0702  0.1047
  993YOPC   PO414196  13.243   1.413   6.297  0.0467  0.0185  0.0346
  993YOPC   GL114197  13.194   1.408   6.712 -0.0634  0.1558  0.1201
  993YOPC   GL214198  12.922   1.226   6.744 -0.0006  0.0458 -0.0752
  993YOPC   C1A14199  13.325   1.498   7.061 -0.0737 -0.1838  0.0412
  993YOPC   D2A14200  13.479   1.648   7.467  0.1591 -0.0091  0.1283
  993YOPC   C3A14201  13.401   2.052   7.712  0.0845 -0.0150 -0.0994
  993YOPC   C4A14202  13.287   2.018   8.279 -0.0982  0.2796  0.3273
  993YOPC   C1B14203  13.008   1.116   7.202 -0.0064 -0.2586  0.2097
  993YOPC   C2B14204  13.090   1.185   7.600  0.3607 -0.1358 -0.2352
  993YOPC   D3B14205  13.093   1.029   7.948 -0.0035  0.1145 -0.1025
  993YOPC   C4B14206  13.390   0.752   8.275  0.0675  0.1670  0.2807
  994YOPC   NC314207  14.429  10.101   6.471  0.0420  0.4548  0.0563
  994YOPC   PO414208  14.809   9.804   6.410 -0.1430  0.0265  0.0907
  994YOPC   GL114209  14.743   9.942   6.867 -0.1502 -0.2333  0.0080
  994YOPC   GL214210  15.064   9.974   6.859 -0.1477 -0.0650 -0.0084
  994YOPC   C1A14211  14.693   9.938   7.295 -0.0201 -0.2853  0.0379
  994YOPC   D2A14212  14.650   9.915   7.697  0.0053  0.1408 -0.0419
  994YOPC   C3A14213  14.551  10.260   7.941 -0.2177 -0.1081  0.1523
  994YOPC   C4A14214  14.414  10.489   8.249  0.0094 -0.1258 -0.1194
  994YOPC   C1B14215  15.253   9.772   7.293 -0.3814 -0.0961  0.2253
  994YOPC   C2B14216  15.380   9.752   7.639  0.0576  0.4840 -0.0815
  994YOPC   D3B14217  15.166   9.735   7.986  0.1284  0.2029  0.0764
  994YOPC   C4B14218  15.165   9.800   8.427  0.0400  0.0833 -0.0829
  995YOPC   NC314219   9.626   0.984   5.677  0.1424  0.2160 -0.0206
  995YOPC   PO414220   9.606   0.660   6.019 -0.0526  0.1267  0.0595
  995YOPC   GL114221   9.865   0.418   6.420  0.0008 -0.0444 -0.0382
  995YOPC   GL214222   9.773   0.202   6.633 -0.2172  0.3747  0.0935
  995YOPC   C1A14223  10.244   0.229   6.691 -0.2860 -0.0956 -0.1833
  995YOPC   D2A14224  10.635   0.398   6.781  0.0027 -0.2063 -0.0050
  995YOPC   C3A14225  10.733   0.323   7.196  0.1097  0.1127  0.2046
  995YOPC   C4A14226  11.074   0.319   7.486  0.0787 -0.3267 -0.2083
  995YOPC   C1B14227   9.739   0.176   7.055 -0.1603  0.3026 -0.0563
  995YOPC   C2B14228   9.701   0.347   7.435 -0.1195  0.0356  0.2182
  995YOPC   D3B14229   9.346   0.544   7.571 -0.5181 -0.1800 -0.0544
  995YOPC   C4B14230   9.063   0.610   7.852  0.1183  0.0535  0.1285
  996YOPC   NC314231   3.122  13.413   5.515 -0.0579  0.0213  0.5158
  996YOPC   PO414232   3.499  13.601   5.730  0.1672 -0.0892 -0.1419
  996YOPC   GL114233   3.611  13.239   5.941  0.1590 -0.1430  0.0270
  996YOPC   GL214234   3.851  13.260   6.207  0.1380 -0.0485 -0.3325
  996YOPC   C1A14235   3.474  12.895   6.221  0.0856  0.1128  0.0384
  996YOPC   D2A14236   3.116  12.608   6.393  0.2952 -0.2311  0.0751
  996YOPC   C3A14237   3.181  12.640   6.750  0.1163 -0.1191 -0.2634
  996YOPC   C4A14238   3.149  12.331   7.100 -0.1767  0.1434 -0.0181
  996YOPC   C1B14239   3.872  13.148   6.753  0.1545  0.2254  0.1096
  996YOPC   C2B14240   4.118  13.246   7.027 -0.0804 -0.4587  0.3527
  996YOPC   D3B14241   4.370  13.286   7.351 -0.0895 -0.1139 -0.0065
  996YOPC   C4B14242   4.548  13.232   7.743  0.2205 -0.2689  0.2701
  997YOPC   NC314243   4.662   6.891   6.297  0.3876  0.1976 -0.2348
  997YOPC   PO414244   4.533   7.307   6.188  0.0975  0.1138  0.2131
  997YOPC   GL114245   4.498   7.354   6.629  0.3469 -0.2311  0.0229
  997YOPC   GL214246   4.689   7.120   6.705 -0.0835 -0.0407 -0.0220
  997YOPC   C1A14247   4.516   7.410   7.035  0.3061 -0.0195 -0.3729
  997YOPC   D2A14248   4.339   7.617   7.356 -0.1051  0.0756  0.0831
  997YOPC   C3A14249   4.324   7.529   7.795  0.0992  0.1135  0.0272
  997YOPC   C4A14250   4.164   7.638   8.246  0.0001  0.1297 -0.2148
  997YOPC   C1B14251   4.915   7.044   7.014  0.2766  0.3012  0.1333
  997YOPC   C2B14252   4.773   7.170   7.396 -0.1500 -0.2710  0.0111
  997YOPC   D3B14253   4.723   7.165   7.867  0.0701  0.1839  0.2535
  997YOPC   C4B14254   4.738   6.995   8.173  0.0721 -0.1819  0.0462
  998YOPC   NC314255   5.915  14.779   5.249 -0.1534 -0.0267  0.3206
  998YOPC   PO414256   6.082  14.978   5.557 -0.3600 -0.1736 -0.2575
  998YOPC   GL114257   6.275  15.045   5.990 -0.0158 -0.0935  0.6834
  998YOPC   GL214258   6.517  14.993   6.120 -0.0055 -0.0819 -0.1374
  998YOPC   C1A14259   6.011  15.228   6.294 -0.2562  0.0161 -0.1048
  998YOPC   D2A14260   5.985  15.626   6.511 -0.0891 -0.2574 -0.1360
  998YOPC   C3A14261   6.025  15.690   7.026  0.1524 -0.2003  0.1846
  998YOPC   C4A14262   5.853  15.723   7.355 -0.0658  0.1273  0.1559
  998YOPC   C1B14263   6.489  15.104   6.500 -0.0510  0.0828  0.2510
  998YOPC   C2B14264   6.220  15.328   6.811  0.0244  0.1067  0.0628
  998YOPC   D3B14265   6.055  15.204   7.335 -0.1474 -0.1289 -0.2902
  998YOPC   C4B14266   5.916  15.192   7.764  0.0848 -0.0588  0.0763
  999YOPC   NC314267  14.052  14.743   5.708 -0.0094 -0.1904 -0.2479
  999YOPC   PO414268  13.936  14.918   6.099  0.1807  0.1067  0.0936
  999YOPC   GL114269  13.804  14.718   6.418  0.2681 -0.3805  0.0181
  999YOPC   GL214270  13.542  14.857   6.392 -0.1684  0.1125  0.1153
  999YOPC   C1A14271  13.805  14.455   6.828 -0.0862 -0.0524  0.0643
  999YOPC   D2A14272  14.211  14.490   7.213  0.0273  0.0296 -0.3078
  999YOPC   C3A14273  14.597  14.513   6.995 -0.0191 -0.0400 -0.2074
  999YOPC   C4A14274  15.009  14.424   6.903 -0.1775 -0.1267  0.2939
  999YOPC   C1B14275  13.319  14.647   6.737 -0.0989 -0.0630 -0.3823
  999YOPC   C2B14276  13.325  14.526   7.072  0.0010 -0.1393  0.0345
  999YOPC   D3B14277  13.716  14.377   7.290  0.0439  0.1347  0.1702
  999YOPC   C4B14278  13.936  14.424   7.626 -0.1052  0.0562  0.2091
 1000YOPC   NC314279   2.677  12.774   5.731  0.1423  0.0495 -0.1927
 1000YOPC   PO414280   2.283  12.937   5.965 -0.2403 -0.1679 -0.1423
 1000YOPC   GL114281   2.117  13.024   6.411  0.0349 -0.1976 -0.2830
 1000YOPC   GL214282   2.336  13.177   6.516  0.2306  0.1534  0.3114
 1000YOPC   C1A14283   2.133  12.767   6.816 -0.1614  0.1760 -0.1694
 1000YOPC   D2A14284   2.385  12.617   7.190  0.0019 -0.0012 -0.1683
 1000YOPC   C3A14285   2.345  12.157   7.327 -0.0834 -0.0790 -0.0903
 1000YOPC   C4A14286   2.335  11.869   7.487  0.1197  0.1973  0.1047
 1000YOPC   C1B14287   2.437  13.140   6.982  0.0779 -0.1030  0.2095
 1000YOPC   C2B14288   2.744  12.962   7.259 -0.2181 -0.1102 -0.0851
 1000YOPC   D3B14289   3.240  13.073   7.409  0.0730 -0.0444 -0.1146
 1000YOPC   C4B14290   3.665  13.177   7.206 -0.0921  0.1398 -0.1358
 1001YOPC   NC314291  14.174   1.972   6.001  0.1077  0.2818 -0.2478
 1001YOPC   PO414292  14.146   2.459   5.950 -0.1939 -0.1090  0.0899
 1001YOPC   GL114293  14.192   2.493   6.374  0.0929  0.1049  0.0189
 1001YOPC   GL214294  14.253   2.764   6.335  0.2896  0.1707  0.2682
 1001YOPC   C1A14295  14.257   2.332   6.680 -0.1701 -0.1119 -0.3964
 1001YOPC   D2A14296  14.264   2.106   7.015 -0.0974  0.1031  0.0232
 1001YOPC   C3A14297  14.177   2.179   7.369 -0.0439  0.1687  0.1837
 1001YOPC   C4A14298  14.291   2.518   7.651 -0.0976 -0.2090  0.3542
 1001YOPC   C1B14299  14.086   2.998   6.690  0.1534 -0.1153  0.1605
 1001YOPC   C2B14300  13.823   3.091   7.008 -0.0305 -0.2087  0.2717
 1001YOPC   D3B14301  13.676   3.215   7.467  0.3576 -0.0418 -0.2232
 1001YOPC   C4B14302  13.558   3.181   7.874  0.1435 -0.0127  0.1166
 1002YOPC   NC314303   6.298   4.506   6.276  0.0864 -0.0113  0.0858
 1002YOPC   PO414304   6.031   4.167   6.230 -0.2310  0.1132  0.2495
 1002YOPC   GL114305   5.958   4.351   6.652 -0.0892 -0.1096 -0.1076
 1002YOPC   GL214306   5.727   4.358   6.807  0.0595  0.2295  0.4248
 1002YOPC   C1A14307   6.292   4.431   7.023  0.0199 -0.1112  0.3193
 1002YOPC   D2A14308   6.461   4.587   7.342  0.0301  0.4133  0.2065
 1002YOPC   C3A14309   6.482   4.296   7.647  0.0020  0.0158  0.2919
 1002YOPC   C4A14310   6.594   3.911   7.793 -0.3856  0.3080  0.0560
 1002YOPC   C1B14311   5.823   4.557   7.267 -0.1351 -0.2113 -0.0799
 1002YOPC   C2B14312   5.976   4.743   7.608  0.1764 -0.6387 -0.0698
 1002YOPC   D3B14313   5.751   4.851   7.924  0.1590 -0.0150  0.1519
 1002YOPC   C4B14314   5.702   4.867   8.271  0.2843  0.2240  0.2618
 1003YOPC   NC314315  16.358   0.472   5.767  0.0471 -0.1934  0.0241
 1003YOPC   PO414316  16.224   0.961   5.901  0.3799  0.0982  0.2833
 1003YOPC   GL114317  16.110   1.133   6.251  0.0787 -0.0460  0.3666
 1003YOPC   GL214318  16.453   1.206   6.314  0.0804  0.0424  0.0395
 1003YOPC   C1A14319  15.833   1.101   6.683 -0.0362 -0.2020 -0.1304
 1003YOPC   D2A14320  15.953   1.353   7.039  0.1151 -0.0456 -0.2325
 1003YOPC   C3A14321  16.102   1.065   7.293  0.4241  0.3259 -0.0716
 1003YOPC   C4A14322  16.370   0.970   7.552 -0.0326  0.1496 -0.1092
 1003YOPC   C1B14323  16.560   1.599   6.311 -0.0980 -0.0520  0.2908
 1003YOPC   C2B14324  16.531   1.944   6.554 -0.2887 -0.1275  0.2080
 1003YOPC   D3B14325  16.592   2.083   6.952 -0.0999 -0.0719 -0.2604
 1003YOPC   C4B14326  16.799   1.941   7.363  0.2056 -0.3729  0.1481
 1004YOPC   NC314327  10.628   8.773   5.943 -0.0900 -0.2103 -0.1791
 1004YOPC   PO414328  10.594   8.956   6.393 -0.2572  0.0496 -0.0834
 1004YOPC   GL114329  10.598   9.178   6.792 -0.2479 -0.2017  0.0698
 1004YOPC   GL214330  10.250   9.109   6.950 -0.2295 -0.0128  0.0215
 1004YOPC   C1A14331  10.605   8.983   7.233  0.2399  0.0518  0.1804
 1004YOPC   D2A14332  10.541   8.981   7.662 -0.0327 -0.2888 -0.0488
 1004YOPC   C3A14333  10.646   9.199   7.984 -0.3380  0.1308  0.1027
 1004YOPC   C4A14334  10.673   9.196   8.410 -0.3577 -0.2517 -0.2130
 1004YOPC   C1B14335  10.101   9.023   7.427 -0.0825 -0.0900 -0.4017
 1004YOPC   C2B14336   9.998   9.133   7.846 -0.2297 -0.0620 -0.1229
 1004YOPC   D3B14337  10.168   9.451   8.218  0.3041  0.0166  0.0870
 1004YOPC   C4B14338  10.129   9.552   8.651 -0.2719 -0.3920 -0.1374
 1005YOPC   NC314339  14.876  14.922   5.914 -0.2092  0.0922 -0.0526
 1005YOPC   PO414340  14.737  15.230   6.349 -0.1347 -0.0177 -0.1053
 1005YOPC   GL114341  14.585  15.008   6.661 -0.1295 -0.1369 -0.0097
 1005YOPC   GL214342  14.333  14.794   6.688  0.4466 -0.1255  0.2115
 1005YOPC   C1A14343  14.882  14.952   7.023 -0.2540 -0.1954  0.3407
 1005YOPC   D2A14344  14.959  14.784   7.393  0.0352  0.2550  0.0138
 1005YOPC   C3A14345  14.744  14.420   7.447 -0.1614 -0.2864 -0.2600
 1005YOPC   C4A14346  14.746  14.045   7.201 -0.0881 -0.1834  0.1373
 1005YOPC   C1B14347  14.313  15.016   7.101  0.2830 -0.0189 -0.0549
 1005YOPC   C2B14348  14.425  14.866   7.493  0.0821  0.0407 -0.1530
 1005YOPC   D3B14349  14.751  14.732   7.893  0.2115 -0.0527 -0.0705
 1005YOPC   C4B14350  14.617  14.752   8.201 -0.2468 -0.2466 -0.0800
 1006YOPC   NC314351   4.766   7.690   6.344 -0.0128 -0.0244  0.0308
 1006YOPC   PO414352   4.570   8.129   6.358 -0.1429 -0.2232 -0.1881
 1006YOPC   GL114353   4.319   8.205   6.726 -0.3718 -0.0220 -0.1073
 1006YOPC   GL214354   4.163   8.382   6.601 -0.2336 -0.1534 -0.0150
 1006YOPC   C1A14355   4.159   8.292   7.163  0.2003  0.1298 -0.3105
 1006YOPC   D2A14356   3.959   8.376   7.569  0.2071  0.2367  0.3808
 1006YOPC   C3A14357   4.277   8.344   7.886  0.1434 -0.0334  0.1949
 1006YOPC   C4A14358   4.679   8.588   8.135 -0.0955 -0.1000  0.1555
 1006YOPC   C1B14359   3.791   8.342   6.843 -0.0085 -0.1779  0.0231
 1006YOPC   C2B14360   3.674   8.531   7.255  0.1485  0.0493 -0.1190
 1006YOPC   D3B14361   3.514   8.476   7.698 -0.2032 -0.0129  0.0094
 1006YOPC   C4B14362   3.293   8.835   7.887  0.1843  0.0193 -0.1306
 1007YOPC   NC314363   9.974   4.980   5.668 -0.2920 -0.2101  0.1157
 1007YOPC   PO414364   9.945   4.887   6.054 -0.2313  0.3689 -0.1296
 1007YOPC   GL114365   9.733   4.946   6.478  0.2349 -0.2307  0.2221
 1007YOPC   GL214366   9.706   4.733   6.652 -0.3058  0.1895  0.0060
 1007YOPC   C1A14367   9.695   5.173   6.955 -0.4067 -0.0231 -0.1030
 1007YOPC   D2A14368   9.803   5.386   7.384 -0.1775 -0.0389  0.0548
 1007YOPC   C3A14369   9.770   5.762   7.587 -0.0060  0.1178 -0.0823
 1007YOPC   C4A14370  10.001   6.148   7.531 -0.3130 -0.3036 -0.2517
 1007YOPC   C1B14371   9.610   4.690   7.035  0.1238 -0.1379  0.1612
 1007YOPC   C2B14372   9.555   4.942   7.391 -0.1152 -0.3347 -0.2258
 1007YOPC   D3B14373   9.557   4.928   7.866  0.0860  0.0832 -0.0960
 1007YOPC   C4B14374   9.604   5.164   8.258 -0.1855  0.0585  0.0364
 1008YOPC   NC314375   8.816   6.297   5.684  0.1355 -0.2568  0.1171
 1008YOPC   PO414376   8.830   6.440   6.117  0.1990 -0.2708 -0.3066
 1008YOPC   GL114377   8.891   6.232   6.515 -0.1327 -0.3795 -0.0715
 1008YOPC   GL214378   8.870   5.890   6.555 -0.1089  0.1055 -0.1400
 1008YOPC   C1A14379   8.556   6.208   6.839  0.1065  0.0742  0.0885
 1008YOPC   D2A14380   8.636   6.161   7.162 -0.2218 -0.0317  0.0230
 1008YOPC   C3A14381   8.640   6.104   7.550 -0.0991 -0.1266 -0.0649
 1008YOPC   C4A14382   8.744   6.007   7.887  0.2508  0.1171 -0.1578
 1008YOPC   C1B14383   8.481   5.728   6.719  0.0814 -0.4442  0.1204
 1008YOPC   C2B14384   8.195   5.904   6.986  0.2737 -0.2783 -0.1330
 1008YOPC   D3B14385   8.065   5.985   7.420 -0.3141  0.0476 -0.0175
 1008YOPC   C4B14386   7.804   5.866   7.733  0.0511 -0.5100  0.0452
 1009YOPC   NC314387   9.717  10.750   5.672  0.0455 -0.1767 -0.0122
 1009YOPC   PO414388   9.850  10.401   5.997 -0.1105 -0.2364  0.2080
 1009YOPC   GL114389   9.805  10.506   6.442 -0.0842  0.0988 -0.2520
 1009YOPC   GL214390   9.522  10.291   6.536 -0.2258  0.0540  0.0744
 1009YOPC   C1A14391   9.927  10.562   6.756 -0.4201 -0.0251 -0.0018
 1009YOPC   D2A14392  10.136  10.470   7.082  0.1630  0.0580  0.0037
 1009YOPC   C3A14393  10.122  10.534   7.465 -0.0134  0.0753  0.0623
 1009YOPC   C4A14394  10.028  10.613   7.919  0.0584 -0.1876 -0.2229
 1009YOPC   C1B14395   9.431  10.394   6.941  0.1607 -0.1270  0.1776
 1009YOPC   C2B14396   9.627  10.583   7.280 -0.1378  0.0640  0.0235
 1009YOPC   D3B14397   9.653  10.394   7.643  0.0399  0.1988 -0.2568
 1009YOPC   C4B14398   9.660  10.106   8.026  0.2012  0.0851 -0.0589
 1010YOPC   NC314399   4.548  16.727   5.647  0.1312  0.0520  0.1366
 1010YOPC   PO414400   4.631  16.424   5.971  0.0770 -0.1066  0.0989
 1010YOPC   GL114401   4.419  16.099   6.337 -0.0462  0.1404  0.0356
 1010YOPC   GL214402   4.414  16.225   6.691 -0.1652  0.0214  0.0757
 1010YOPC   C1A14403   4.656  15.774   6.581 -0.1288  0.1121  0.1854
 1010YOPC   D2A14404   4.919  15.696   6.903 -0.1737  0.3677 -0.0296
 1010YOPC   C3A14405   4.761  15.743   7.240 -0.1188 -0.0646  0.0209
 1010YOPC   C4A14406   4.594  15.774   7.676 -0.1243 -0.0565  0.1123
 1010YOPC   C1B14407   4.330  16.358   6.980  0.0467  0.1866 -0.3893
 1010YOPC   C2B14408   4.246  16.130   7.421  0.0538 -0.3910  0.1144
 1010YOPC   D3B14409   3.874  16.221   7.592  0.0357  0.0934  0.1828
 1010YOPC   C4B14410   3.768  16.106   7.975 -0.0696 -0.3225  0.0490
 1011YOPC   NC314411   5.748  15.241   5.330  0.1373 -0.3083 -0.2755
 1011YOPC   PO414412   5.551  14.906   5.528 -0.0206 -0.2840 -0.1348
 1011YOPC   GL114413   5.325  15.020   5.870  0.2057 -0.0194 -0.2060
 1011YOPC   GL214414   4.998  14.881   5.935  0.0698 -0.2056 -0.2579
 1011YOPC   C1A14415   5.271  15.085   6.359  0.1002  0.0919  0.0622
 1011YOPC   D2A14416   5.268  15.166   6.792 -0.1168  0.1119  0.2469
 1011YOPC   C3A14417   5.072  14.943   7.157  0.0634 -0.1234  0.1307
 1011YOPC   C4A14418   4.973  14.772   7.503 -0.0454 -0.1094 -0.5165
 1011YOPC   C1B14419   4.898  14.701   6.203  0.2104  0.1220  0.1403
 1011YOPC   C2B14420   5.031  14.718   6.636 -0.0275 -0.0487 -0.1398
 1011YOPC   D3B14421   4.961  14.428   6.948 -0.0284  0.1847 -0.3729
 1011YOPC   C4B14422   4.725  14.221   7.221 -0.0524  0.2501  0.2076
 1012YOPC   NC314423  17.198   7.267   6.300 -0.0234 -0.1876  0.3917
 1012YOPC   PO414424  16.801   7.213   6.232 -0.0507  0.1885 -0.1366
 1012YOPC   GL114425  16.806   7.354   6.686  0.1772 -0.3160  0.1224
 1012YOPC   GL214426  16.899   7.633   6.753 -0.0447  0.0988 -0.2076
 1012YOPC   C1A14427  16.761   7.177   7.103 -0.1599 -0.1628 -0.0227
 1012YOPC   D2A14428  16.952   7.156   7.566 -0.0001  0.0389 -0.1624
 1012YOPC   C3A14429  16.764   7.305   7.966  0.2191  0.2516 -0.2847
 1012YOPC   C4A14430  16.483   7.015   8.134  0.0850 -0.0512  0.0687
 1012YOPC   C1B14431  16.879   7.736   7.200 -0.0965 -0.0771  0.1123
 1012YOPC   C2B14432  16.872   7.745   7.684  0.0071  0.1104  0.2343
 1012YOPC   D3B14433  16.849   8.096   7.907  0.0648  0.2271 -0.0183
 1012YOPC   C4B14434  16.732   8.246   8.301 -0.2206 -0.1705  0.1097
 1013YOPC   NC314435   0.399   6.573   6.296 -0.2836  0.2964  0.1532
 1013YOPC   PO414436  -0.089   6.703   6.399 -0.0648 -0.0885  0.0138
 1013YOPC   GL114437  -0.129   6.738   6.792 -0.2089  0.0148 -0.1328
 1013YOPC   GL214438  -0.110   7.044   6.801  0.0649  0.0045  0.0886
 1013YOPC   C1A14439  -0.284   6.793   7.226  0.0310 -0.0333 -0.1073
 1013YOPC   D2A14440  -0.179   6.712   7.589  0.0738  0.0459 -0.1603
 1013YOPC   C3A14441  -0.121   7.030   7.959 -0.2643 -0.1795  0.2924
 1013YOPC   C4A14442  -0.259   7.384   8.286 -0.0150 -0.3260  0.0835
 1013YOPC   C1B14443  -0.134   7.304   7.078  0.0001 -0.0488  0.0622
 1013YOPC   C2B14444  -0.491   7.598   7.227 -0.5799 -0.1428  0.0349
 1013YOPC   D3B14445  -0.424   7.641   7.583 -0.1773  0.3074 -0.1235
 1013YOPC   C4B14446  -0.669   7.435   7.975  0.0317  0.1302 -0.1087
 1014YOPC   NC314447  17.359  13.296   6.240 -0.0294 -0.0209 -0.0112
 1014YOPC   PO414448  17.447  12.959   6.079 -0.0053  0.1265 -0.1455
 1014YOPC   GL114449  17.347  12.801   6.410  0.2215 -0.1690  0.2591
 1014YOPC   GL214450  17.030  12.580   6.366  0.2078 -0.0579 -0.0032
 1014YOPC   C1A14451  17.411  12.701   6.844 -0.3011  0.1677  0.3062
 1014YOPC   D2A14452  17.410  12.689   7.204  0.1132  0.1445  0.1474
 1014YOPC   C3A14453  17.030  12.730   7.381 -0.0118  0.4368 -0.2928
 1014YOPC   C4A14454  16.596  12.651   7.565 -0.4607 -0.0269 -0.3890
 1014YOPC   C1B14455  16.782  12.380   6.671 -0.0861 -0.4560  0.0010
 1014YOPC   C2B14456  16.627  12.630   7.054 -0.0110  0.0959  0.0912
 1014YOPC   D3B14457  16.188  12.785   7.112 -0.3435  0.0287 -0.0314
 1014YOPC   C4B14458  16.092  12.779   7.552 -0.1334 -0.1388 -0.0028
 1015YOPC   NC314459   8.487  12.170   6.256  0.0341 -0.2245 -0.1541
 1015YOPC   PO414460   8.659  11.807   6.246  0.1157 -0.3756  0.2647
 1015YOPC   GL114461   8.596  11.668   6.656 -0.0998 -0.0866 -0.3364
 1015YOPC   GL214462   9.000  11.635   6.765  0.4075 -0.2153 -0.0780
 1015YOPC   C1A14463   8.636  11.587   7.072 -0.3834  0.0219  0.2093
 1015YOPC   D2A14464   8.777  11.499   7.397 -0.4058  0.2606  0.1026
 1015YOPC   C3A14465   8.813  11.609   7.830  0.0126 -0.2524 -0.0170
 1015YOPC   C4A14466   9.023  11.868   8.000  0.1201 -0.0464 -0.2182
 1015YOPC   C1B14467   9.194  11.588   7.056  0.0497  0.3433 -0.0898
 1015YOPC   C2B14468   9.294  11.665   7.551  0.0141  0.1158  0.0491
 1015YOPC   D3B14469   9.258  11.318   7.866  0.0367 -0.0162 -0.2193
 1015YOPC   C4B14470   9.305  11.168   8.301  0.1413  0.0795 -0.3035
 1016YOPC   NC314471  17.276   8.771   5.875  0.0169  0.0061  0.0483
 1016YOPC   PO414472  17.161   8.517   6.109  0.2025 -0.0386  0.0339
 1016YOPC   GL114473  17.308   8.349   6.468 -0.1737  0.0551 -0.1547
 1016YOPC   GL214474  17.273   8.105   6.577 -0.1087  0.4554  0.1770
 1016YOPC   C1A14475  17.106   8.466   6.827  0.1889  0.0673  0.0132
 1016YOPC   D2A14476  17.122   8.558   7.270  0.0080 -0.0906  0.0094
 1016YOPC   C3A14477  16.755   8.724   7.495 -0.1746  0.1108 -0.1143
 1016YOPC   C4A14478  16.660   8.565   7.881 -0.0150  0.1541  0.1464
 1016YOPC   C1B14479  17.389   8.079   7.065 -0.3044 -0.1971  0.2292
 1016YOPC   C2B14480  17.216   8.089   7.420 -0.0464  0.2979  0.3764
 1016YOPC   D3B14481  17.107   8.454   7.721  0.1522  0.2620  0.1962
 1016YOPC   C4B14482  17.105   8.848   7.907 -0.1764  0.2074  0.2493
 1017YOPC   NC314483   3.931   5.547   6.042  0.0349  0.1402 -0.1326
 1017YOPC   PO414484   4.408   5.679   6.132 -0.2942 -0.1450 -0.4624
 1017YOPC   GL114485   4.447   5.578   6.559  0.1719  0.3541 -0.1024
 1017YOPC   GL214486   4.613   5.671   6.765 -0.1906 -0.0675  0.0921
 1017YOPC   C1A14487   4.157   5.441   6.918  0.1190  0.2010 -0.0325
 1017YOPC   D2A14488   4.193   5.355   7.284 -0.3470 -0.1253 -0.1727
 1017YOPC   C3A14489   4.060   5.642   7.672  0.2080 -0.1066 -0.1069
 1017YOPC   C4A14490   3.975   5.829   8.112 -0.0993  0.0387  0.0216
 1017YOPC   C1B14491   4.818   5.583   7.207  0.1118 -0.1125  0.1193
 1017YOPC   C2B14492   4.581   5.514   7.580 -0.0597  0.1403 -0.0511
 1017YOPC   D3B14493   4.455   5.635   8.018 -0.0907  0.2228  0.3070
 1017YOPC   C4B14494   4.436   5.727   8.351  0.0198  0.4591 -0.2897
 1018YOPC   NC314495   9.349   0.272   6.254  0.1295 -0.1381  0.3095
 1018YOPC   PO414496   9.655  -0.006   6.059 -0.0192 -0.0270  0.1647
 1018YOPC   GL114497   9.911  -0.304   6.464  0.1875 -0.0147 -0.0368
 1018YOPC   GL214498  10.188  -0.273   6.605 -0.0944  0.2192 -0.4511
 1018YOPC   C1A14499   9.859  -0.642   6.818  0.2201  0.0921  0.0901
 1018YOPC   D2A14500   9.879  -1.018   7.038 -0.1075  0.0135  0.3699
 1018YOPC   C3A14501   9.789  -0.983   7.427 -0.0013 -0.6114 -0.1593
 1018YOPC   C4A14502   9.527  -1.158   7.686 -0.0266 -0.0020 -0.0874
 1018YOPC   C1B14503  10.058  -0.229   6.951 -0.3801  0.2068 -0.0674
 1018YOPC   C2B14504  10.004  -0.120   7.372 -0.2775 -0.0325  0.0730
 1018YOPC   D3B14505  10.110  -0.256   7.853 -0.1665  0.1557  0.0085
 1018YOPC   C4B14506   9.883  -0.400   8.195  0.2180  0.1587 -0.0272
 1019YOPC   NC314507   6.524   6.915   6.083  0.3756  0.1141 -0.0665
 1019YOPC   PO414508   6.513   6.729   6.463  0.2134  0.0655  0.0530
 1019YOPC   GL114509   6.673   6.728   6.923  0.3993  0.0248 -0.2258
 1019YOPC   GL214510   6.619   7.004   6.951 -0.1324 -0.3011  0.2536
 1019YOPC   C1A14511   6.745   6.555   7.299 -0.2241  0.1669  0.1227
 1019YOPC   D2A14512   6.712   6.400   7.765  0.0383  0.0435 -0.1140
 1019YOPC   C3A14513   6.355   6.479   8.036  0.1688  0.0147  0.0833
 1019YOPC   C4A14514   6.220   6.692   8.391  0.3507  0.2270 -0.0281
 1019YOPC   C1B14515   6.594   7.017   7.348  0.1883 -0.1029  0.0386
 1019YOPC   C2B14516   6.551   7.147   7.680 -0.1882 -0.1519  0.3846
 1019YOPC   D3B14517   6.685   6.915   8.044 -0.0263  0.1719 -0.3307
 1019YOPC   C4B14518   6.961   6.933   8.424 -0.3004  0.1569  0.0207
 1020YOPC   NC314519  15.168   5.945   6.114  0.0746  0.0358  0.2614
 1020YOPC   PO414520  15.138   5.504   6.053 -0.2412  0.5370 -0.2236
 1020YOPC   GL114521  15.429   5.523   6.417  0.1836  0.2863 -0.5678
 1020YOPC   GL214522  15.671   5.694   6.619 -0.4534 -0.0532  0.2471
 1020YOPC   C1A14523  15.285   5.586   6.893  0.1691  0.1985 -0.2170
 1020YOPC   D2A14524  15.091   5.668   7.352 -0.1206  0.6488 -0.0873
 1020YOPC   C3A14525  15.188   5.597   7.885 -0.0465 -0.1947 -0.0911
 1020YOPC   C4A14526  15.420   5.431   8.130 -0.0992  0.3230 -0.5815
 1020YOPC   C1B14527  15.949   5.818   6.900  0.4273  0.1778 -0.2372
 1020YOPC   C2B14528  16.026   5.795   7.325  0.2688  0.0848  0.1688
 1020YOPC   D3B14529  16.028   6.096   7.638 -0.0154  0.1300  0.1543
 1020YOPC   C4B14530  16.050   6.127   8.074  0.0970 -0.1324 -0.0434
 1021YOPC   NC314531  15.369  10.884   6.190  0.0571 -0.3313  0.0613
 1021YOPC   PO414532  15.407  11.304   6.329 -0.0438  0.0371 -0.1050
 1021YOPC   GL114533  15.376  11.087   6.659 -0.2950 -0.0211  0.3131
 1021YOPC   GL214534  15.549  10.899   6.776  0.0895  0.0524  0.4314
 1021YOPC   C1A14535  15.167  11.168   7.070 -0.1153  0.0573 -0.1859
 1021YOPC   D2A14536  15.313  11.279   7.518 -0.0052  0.0001  0.0051
 1021YOPC   C3A14537  15.134  11.697   7.582  0.3316 -0.0280  0.3589
 1021YOPC   C4A14538  15.044  11.765   8.034  0.0039  0.0350 -0.1111
 1021YOPC   C1B14539  15.498  10.787   7.193 -0.1005  0.0108  0.2523
 1021YOPC   C2B14540  15.471  10.802   7.635  0.2044 -0.1450  0.0255
 1021YOPC   D3B14541  15.478  11.076   7.962 -0.0629  0.0889  0.1259
 1021YOPC   C4B14542  15.516  11.150   8.428 -0.2225  0.0566 -0.1223
 1022YOPC   NC314543  12.603   7.687   6.211 -0.0383  0.0759 -0.1620
 1022YOPC   PO414544  12.909   7.322   6.158 -0.0376  0.2084  0.2525
 1022YOPC   GL114545  12.762   7.384   6.614  0.0281 -0.0405 -0.0512
 1022YOPC   GL214546  12.996   7.553   6.784 -0.0810  0.2307 -0.1052
 1022YOPC   C1A14547  12.641   7.185   7.013 -0.2298  0.3796  0.1750
 1022YOPC   D2A14548  12.413   7.038   7.224  0.0921 -0.0987  0.0384
 1022YOPC   C3A14549  12.318   7.079   7.672 -0.1914  0.0264  0.2357
 1022YOPC   C4A14550  12.306   6.914   8.059 -0.1339 -0.2712  0.2761
 1022YOPC   C1B14551  13.126   7.271   7.200 -0.1073 -0.0738  0.0931
 1022YOPC   C2B14552  13.301   7.153   7.476  0.1499 -0.3213 -0.0642
 1022YOPC   D3B14553  13.272   7.250   7.828  0.2304  0.0547 -0.2303
 1022YOPC   C4B14554  13.106   7.194   8.260 -0.0456  0.0283 -0.4639
 1023YOPC   NC314555  10.485  13.051   5.731  0.0096  0.0404 -0.0370
 1023YOPC   PO414556  10.202  12.895   5.906  0.0265 -0.0650 -0.2974
 1023YOPC   GL114557  10.288  13.031   6.257 -0.3979 -0.0208 -0.1748
 1023YOPC   GL214558  10.453  12.787   6.428 -0.0130 -0.1924  0.1458
 1023YOPC   C1A14559  10.222  13.262   6.534 -0.1345  0.1233 -0.1161
 1023YOPC   D2A14560  10.233  13.560   6.955 -0.1653  0.0191  0.1379
 1023YOPC   C3A14561  10.276  13.417   7.396  0.0086  0.0572  0.1349
 1023YOPC   C4A14562  10.058  13.438   7.686 -0.2187 -0.0397 -0.0698
 1023YOPC   C1B14563  10.600  12.979   6.769  0.3393 -0.1295 -0.3452
 1023YOPC   C2B14564  10.635  12.910   7.191  0.4185  0.2403 -0.0492
 1023YOPC   D3B14565  10.457  12.931   7.587  0.2114  0.1956 -0.3030
 1023YOPC   C4B14566  10.507  13.090   7.927  0.0588  0.0957 -0.4354
 1024YOPC   NC314567   2.751  16.668   6.333  0.1589 -0.0924  0.0490
 1024YOPC   PO414568   3.214  16.738   6.321 -0.0786  0.0410  0.0115
 1024YOPC   GL114569   2.993  16.826   6.715 -0.2195 -0.2215 -0.2322
 1024YOPC   GL214570   3.009  16.578   6.908  0.1372 -0.0012  0.1524
 1024YOPC   C1A14571   2.765  16.976   7.145  0.0674  0.0706 -0.0377
 1024YOPC   D2A14572   2.534  17.224   7.275  0.1130 -0.1306  0.2722
 1024YOPC   C3A14573   2.630  17.572   7.573 -0.0005  0.0013 -0.1588
 1024YOPC   C4A14574   2.606  17.520   8.013  0.1996 -0.4071 -0.3253
 1024YOPC   C1B14575   2.969  16.547   7.283 -0.3783  0.1960  0.0196
 1024YOPC   C2B14576   2.867  16.766   7.660 -0.2360 -0.0449  0.1685
 1024YOPC   D3B14577   3.032  16.625   8.091  0.0410 -0.0400 -0.3125
 1024YOPC   C4B14578   3.165  16.861   8.432 -0.0119 -0.0787 -0.0449
 1025YOPC   NC314579   4.361   9.473   5.694 -0.2287  0.1414 -0.1975
 1025YOPC   PO414580   4.081   9.667   5.948 -0.1672 -0.0911  0.3002
 1025YOPC   GL114581   3.977   9.749   6.350  0.0249  0.1303  0.2860
 1025YOPC   GL214582   4.062  10.047   6.328 -0.1052 -0.4455  0.0750
 1025YOPC   C1A14583   3.645   9.800   6.658  0.0123 -0.0899  0.0033
 1025YOPC   D2A14584   3.311   9.541   6.814  0.1856  0.1846 -0.1313
 1025YOPC   C3A14585   3.261   9.521   7.201  0.1469 -0.1231 -0.3274
 1025YOPC   C4A14586   3.445   9.700   7.505 -0.0106  0.2383  0.2784
 1025YOPC   C1B14587   4.248  10.234   6.689 -0.0673  0.3830  0.0734
 1025YOPC   C2B14588   4.560  10.220   7.015  0.0556 -0.3111 -0.1799
 1025YOPC   D3B14589   4.914  10.399   6.970  0.1667  0.1457  0.3098
 1025YOPC   C4B14590   5.216  10.461   6.712 -0.2650  0.0298 -0.2903
 1026YOPC   NC314591   6.917  14.005   6.001 -0.1187  0.0577  0.1454
 1026YOPC   PO414592   7.054  13.559   6.155  0.0865 -0.0207  0.2747
 1026YOPC   GL114593   7.019  13.740   6.484 -0.0772  0.0965  0.2792
 1026YOPC   GL214594   6.752  13.900   6.533  0.0219  0.0313  0.2790
 1026YOPC   C1A14595   7.136  13.774   6.881  0.0201 -0.0368  0.0788
 1026YOPC   D2A14596   6.982  13.799   7.281  0.3960 -0.1405 -0.0326
 1026YOPC   C3A14597   6.819  13.420   7.391 -0.1462  0.0383 -0.2064
 1026YOPC   C4A14598   6.770  13.300   7.780  0.1532  0.0375  0.3218
 1026YOPC   C1B14599   6.566  13.861   6.908 -0.0663  0.0995  0.1318
 1026YOPC   C2B14600   6.383  13.654   7.153 -0.0353 -0.0030  0.0604
 1026YOPC   D3B14601   6.526  13.764   7.587  0.1854 -0.3820 -0.0083
 1026YOPC   C4B14602   6.929  13.744   7.808 -0.0815 -0.1107  0.2801
 1027YOPC   NC314603   3.333  10.896   5.796 -0.2569 -0.1541 -0.1496
 1027YOPC   PO414604   3.276  11.347   5.952  0.0834  0.1529  0.1414
 1027YOPC   GL114605   3.561  11.216   6.249  0.0760 -0.2161  0.0363
 1027YOPC   GL214606   3.733  10.945   6.139 -0.2340 -0.2333 -0.0620
 1027YOPC   C1A14607   3.538  11.190   6.598  0.1500  0.2396 -0.0982
 1027YOPC   D2A14608   3.603  11.138   7.108 -0.0843  0.0943 -0.0673
 1027YOPC   C3A14609   3.413  11.115   7.437 -0.1341 -0.2596 -0.0875
 1027YOPC   C4A14610   3.159  11.162   7.677  0.0619 -0.0066  0.1455
 1027YOPC   C1B14611   3.850  10.700   6.448 -0.0984 -0.2148 -0.0344
 1027YOPC   C2B14612   3.704  10.544   6.833  0.2020 -0.1258  0.0102
 1027YOPC   D3B14613   3.910  10.317   7.050 -0.0277 -0.0299  0.0467
 1027YOPC   C4B14614   4.215  10.236   7.348 -0.1575 -0.0605  0.0131
 1028YOPC   NC314615  10.569  14.521   6.216  0.1527  0.3277  0.1396
 1028YOPC   PO414616  10.960  14.272   6.175  0.2019  0.0618 -0.1165
 1028YOPC   GL114617  10.876  14.073   6.570 -0.3318  0.3539  0.0515
 1028YOPC   GL214618  11.182  13.848   6.570  0.0883  0.2690 -0.0941
 1028YOPC   C1A14619  10.921  14.124   7.014 -0.0502 -0.0439 -0.3027
 1028YOPC   D2A14620  10.906  13.980   7.420  0.1905 -0.2259  0.1367
 1028YOPC   C3A14621  11.168  13.582   7.610  0.1651 -0.0541  0.4663
 1028YOPC   C4A14622  11.129  13.298   7.934 -0.0239  0.2367  0.1414
 1028YOPC   C1B14623  11.217  13.675   6.937  0.2386  0.2148  0.2700
 1028YOPC   C2B14624  11.344  13.414   7.147 -0.2546  0.0074 -0.0688
 1028YOPC   D3B14625  11.611  13.119   7.040 -0.1121 -0.1008 -0.0640
 1028YOPC   C4B14626  11.569  12.801   6.739 -0.1274 -0.0871 -0.0301
 1029YOPC   NC314627  15.842   7.026   5.700  0.1432  0.0092  0.0403
 1029YOPC   PO414628  15.911   6.763   6.036 -0.1332 -0.2987 -0.2188
 1029YOPC   GL114629  15.925   6.978   6.454 -0.1399 -0.1480  0.2878
 1029YOPC   GL214630  16.246   7.044   6.468  0.1665  0.0734  0.3868
 1029YOPC   C1A14631  15.933   6.834   6.851  0.3753  0.0705 -0.0069
 1029YOPC   D2A14632  16.015   6.997   7.257  0.0365 -0.1773 -0.1767
 1029YOPC   C3A14633  15.873   6.925   7.711 -0.1058 -0.0462 -0.0847
 1029YOPC   C4A14634  15.586   6.863   8.043 -0.0920 -0.2042 -0.4743
 1029YOPC   C1B14635  16.314   7.228   6.905  0.1118 -0.1556  0.1185
 1029YOPC   C2B14636  16.418   7.597   7.107  0.4182 -0.1436  0.0902
 1029YOPC   D3B14637  16.477   7.449   7.461  0.4391  0.0830  0.0129
 1029YOPC   C4B14638  16.371   7.161   7.675  0.2024  0.1521  0.0374
 1030YOPC   NC314639   5.078  11.551   5.223  0.0358  0.0696 -0.0937
 1030YOPC   PO414640   5.077  11.599   5.632 -0.1350  0.2362  0.1149
 1030YOPC   GL114641   5.078  11.654   6.108  0.2009  0.0011 -0.0376
 1030YOPC   GL214642   4.775  11.881   6.087 -0.1262 -0.2784  0.0310
 1030YOPC   C1A14643   4.941  11.664   6.573  0.0863 -0.1692  0.0211
 1030YOPC   D2A14644   4.700  11.739   6.987  0.2190 -0.2244  0.0483
 1030YOPC   C3A14645   4.711  11.851   7.394  0.1599  0.0381  0.3556
 1030YOPC   C4A14646   4.476  11.824   7.839 -0.1944 -0.1477  0.1162
 1030YOPC   C1B14647   4.623  12.107   6.547  0.2410  0.1075 -0.1569
 1030YOPC   C2B14648   4.421  12.167   6.900  0.0166 -0.0343 -0.3004
 1030YOPC   D3B14649   4.600  12.334   7.271 -0.3370  0.0755  0.0661
 1030YOPC   C4B14650   4.787  12.217   7.701 -0.2237  0.0975  0.1320
 1031YOPC   NC314651   2.967  14.324   5.274 -0.2003 -0.1002  0.0431
 1031YOPC   PO414652   3.182  14.444   5.660  0.0584  0.0694  0.1961
 1031YOPC   GL114653   3.399  14.505   6.036 -0.1123 -0.1531  0.1487
 1031YOPC   GL214654   3.429  14.752   6.062 -0.1566 -0.2273  0.0811
 1031YOPC   C1A14655   3.545  14.251   6.371  0.1697 -0.0474  0.0788
 1031YOPC   D2A14656   3.466  14.081   6.683 -0.0368 -0.1083 -0.1801
 1031YOPC   C3A14657   3.547  14.108   7.182  0.0805 -0.2533 -0.2338
 1031YOPC   C4A14658   3.666  14.404   7.566  0.0306  0.0762 -0.4453
 1031YOPC   C1B14659   3.471  14.716   6.504  0.1624 -0.1729 -0.1510
 1031YOPC   C2B14660   3.533  14.664   6.821 -0.2209  0.1313 -0.2479
 1031YOPC   D3B14661   3.852  14.672   7.185  0.1525  0.1908 -0.2394
 1031YOPC   C4B14662   4.072  14.765   7.647 -0.1796 -0.1488 -0.0550
 1032YOPC   NC314663   8.094  10.904   5.849 -0.2093 -0.0150  0.1553
 1032YOPC   PO414664   7.981  10.517   5.913  0.1161  0.0734  0.0809
 1032YOPC   GL114665   7.759  10.435   6.336  0.4305  0.2778  0.0045
 1032YOPC   GL214666   7.613  10.758   6.504 -0.1367  0.1091  0.3128
 1032YOPC   C1A14667   7.459  10.362   6.741  0.0437 -0.1261  0.0604
 1032YOPC   D2A14668   7.508  10.269   7.213  0.1440 -0.0132 -0.0174
 1032YOPC   C3A14669   7.739  10.603   7.509 -0.0935  0.0457 -0.3358
 1032YOPC   C4A14670   7.933  10.466   7.784 -0.1814 -0.3287  0.2359
 1032YOPC   C1B14671   7.733  10.720   6.961  0.3859  0.0051  0.0399
 1032YOPC   C2B14672   7.885  11.022   7.273  0.3844 -0.0867 -0.0867
 1032YOPC   D3B14673   7.968  11.008   7.672 -0.0207  0.2204 -0.1200
 1032YOPC   C4B14674   7.816  11.040   8.172 -0.2800 -0.0222  0.2278
 1033YOPC   NC314675   8.951   6.794   6.445 -0.4236  0.2262  0.2730
 1033YOPC   PO414676   9.111   7.276   6.563  0.0899  0.0715 -0.1321
 1033YOPC   GL114677   9.412   7.356   6.806  0.1415 -0.1316 -0.0679
 1033YOPC   GL214678   9.731   7.268   6.824  0.1359 -0.1934  0.2690
 1033YOPC   C1A14679   9.318   7.379   7.337 -0.0153  0.1187  0.1801
 1033YOPC   D2A14680   9.365   7.439   7.745  0.1251 -0.2315  0.1237
 1033YOPC   C3A14681   9.580   7.208   8.070 -0.0856  0.1147 -0.1038
 1033YOPC   C4A14682   9.577   7.043   8.438  0.0893  0.1084 -0.1590
 1033YOPC   C1B14683   9.714   7.014   7.134  0.1604  0.0641  0.1388
 1033YOPC   C2B14684  10.023   6.999   7.475 -0.0902 -0.1280 -0.2988
 1033YOPC   D3B14685   9.916   6.835   7.840  0.0938 -0.0065  0.0682
 1033YOPC   C4B14686   9.934   6.558   8.146 -0.1552  0.3237  0.1637
 1034YOPC   NC314687   7.556  13.423   6.187  0.0498 -0.3104 -0.1049
 1034YOPC   PO414688   7.654  13.013   6.316 -0.3201 -0.0397 -0.0105
 1034YOPC   GL114689   7.433  12.818   6.630 -0.0717 -0.0079 -0.1414
 1034YOPC   GL214690   7.249  12.607   6.513 -0.0007 -0.1789  0.0414
 1034YOPC   C1A14691   7.344  12.837   7.117  0.2287 -0.0060 -0.1555
 1034YOPC   D2A14692   7.153  13.026   7.447  0.2910 -0.0033 -0.1565
 1034YOPC   C3A14693   7.048  12.888   7.821  0.0432  0.3582 -0.1547
 1034YOPC   C4A14694   6.923  13.018   8.245  0.3596 -0.0093  0.1089
 1034YOPC   C1B14695   7.032  12.551   6.901 -0.0017 -0.1754 -0.0176
 1034YOPC   C2B14696   6.840  12.611   7.393  0.3466 -0.4661  0.2984
 1034YOPC   D3B14697   6.584  12.370   7.599  0.0351  0.0186  0.1044
 1034YOPC   C4B14698   6.289  12.406   7.868  0.1954  0.0667  0.3915
 1035YOPC   NC314699  12.298  11.471   5.824 -0.0865  0.2982 -0.1591
 1035YOPC   PO414700  12.662  11.361   5.897 -0.3081  0.1464 -0.3453
 1035YOPC   GL114701  12.843  11.552   6.283  0.0296  0.0168  0.0442
 1035YOPC   GL214702  13.093  11.710   6.316  0.2182 -0.1316  0.2640
 1035YOPC   C1A14703  12.692  11.618   6.731 -0.3346  0.1392  0.2299
 1035YOPC   D2A14704  12.479  11.450   7.054  0.3346 -0.0550  0.1573
 1035YOPC   C3A14705  12.464  11.779   7.405 -0.1536  0.0241 -0.0182
 1035YOPC   C4A14706  12.266  11.624   7.880  0.0481  0.2643  0.1604
 1035YOPC   C1B14707  13.177  11.684   6.683 -0.3068  0.1759 -0.0518
 1035YOPC   C2B14708  13.313  11.676   7.160  0.1999  0.0050  0.0878
 1035YOPC   D3B14709  13.607  11.812   7.486  0.2010  0.0366 -0.0715
 1035YOPC   C4B14710  13.944  11.789   7.704 -0.0793  0.1955 -0.0987
 1036YOPC   NC314711   7.938  16.653   5.812 -0.1037  0.0245  0.0513
 1036YOPC   PO414712   8.097  16.193   5.792 -0.0484  0.1029  0.0880
 1036YOPC   GL114713   8.161  16.126   6.183 -0.0989 -0.0324 -0.0030
 1036YOPC   GL214714   8.195  16.350   6.371 -0.0735  0.1329 -0.2101
 1036YOPC   C1A14715   7.773  16.075   6.462  0.0843  0.0379  0.3300
 1036YOPC   D2A14716   7.670  15.940   6.783 -0.3348 -0.0294 -0.2397
 1036YOPC   C3A14717   7.701  15.904   7.195  0.0396  0.3148  0.2919
 1036YOPC   C4A14718   7.719  16.124   7.422 -0.0291  0.0889  0.0263
 1036YOPC   C1B14719   8.055  16.627   6.616 -0.2811 -0.2108 -0.0201
 1036YOPC   C2B14720   8.067  16.899   6.893  0.1453 -0.0429  0.2180
 1036YOPC   D3B14721   7.806  16.835   7.269 -0.0306  0.3343  0.1695
 1036YOPC   C4B14722   7.801  16.775   7.632  0.0413  0.1817  0.1779
 1037YOPC   NC314723   4.785  10.237   5.772  0.3819 -0.0547 -0.1174
 1037YOPC   PO414724   4.442  10.588   5.845  0.2687  0.0381  0.3782
 1037YOPC   GL114725   4.488  10.388   6.235  0.2366  0.2030 -0.2216
 1037YOPC   GL214726   4.758  10.080   6.237 -0.0214  0.2467 -0.0566
 1037YOPC   C1A14727   4.798  10.496   6.492  0.0215  0.0871 -0.0442
 1037YOPC   D2A14728   4.948  10.844   6.700  0.1502  0.0223  0.0691
 1037YOPC   C3A14729   5.203  10.750   7.112 -0.1021 -0.1702 -0.0411
 1037YOPC   C4A14730   5.163  10.533   7.435  0.3015 -0.1793 -0.0470
 1037YOPC   C1B14731   4.855  10.010   6.682 -0.0493  0.0346  0.1280
 1037YOPC   C2B14732   4.847   9.819   7.087 -0.2044 -0.3874  0.0780
 1037YOPC   D3B14733   4.475   9.776   7.278  0.2345 -0.0212  0.1578
 1037YOPC   C4B14734   4.228   9.846   7.678 -0.1749 -0.0062 -0.2976
 1038YOPC   NC314735   5.288   3.856   6.071  0.0899 -0.1892 -0.1389
 1038YOPC   PO414736   5.279   3.455   6.068  0.0894  0.0590  0.1517
 1038YOPC   GL114737   5.419   3.477   6.439  0.0723  0.0012  0.0960
 1038YOPC   GL214738   5.663   3.277   6.693 -0.1128 -0.1531  0.1690
 1038YOPC   C1A14739   5.671   3.793   6.680 -0.0396 -0.1833  0.0146
 1038YOPC   D2A14740   6.076   3.931   6.853 -0.1120  0.2078 -0.1914
 1038YOPC   C3A14741   6.541   3.949   6.993  0.0231 -0.1982 -0.2362
 1038YOPC   C4A14742   7.021   3.939   6.916  0.3045  0.0051 -0.1651
 1038YOPC   C1B14743   5.742   3.445   7.072 -0.1492 -0.3269 -0.5181
 1038YOPC   C2B14744   5.586   3.460   7.473 -0.0510  0.0140  0.0399
 1038YOPC   D3B14745   5.540   3.826   7.716 -0.0130 -0.2293  0.0443
 1038YOPC   C4B14746   5.192   4.100   7.882  0.0957  0.1267  0.1136
 1039YOPC   NC314747   2.733  16.157   6.047 -0.3139 -0.2306  0.1965
 1039YOPC   PO414748   2.391  15.796   6.160  0.1811  0.0178  0.0990
 1039YOPC   GL114749   2.241  15.547   6.380 -0.0491 -0.0313  0.0953
 1039YOPC   GL214750   2.108  15.105   6.451  0.0822 -0.0799  0.2583
 1039YOPC   C1A14751   2.261  15.518   6.746 -0.0724  0.0089  0.1185
 1039YOPC   D2A14752   2.415  15.265   7.086  0.1266 -0.0595  0.1242
 1039YOPC   C3A14753   2.269  15.489   7.403 -0.3002 -0.1830 -0.1270
 1039YOPC   C4A14754   2.152  15.644   7.788 -0.0660  0.1961 -0.0325
 1039YOPC   C1B14755   1.971  14.994   6.836 -0.0483  0.0547  0.0036
 1039YOPC   C2B14756   1.976  15.092   7.293  0.1424 -0.1419  0.1998
 1039YOPC   D3B14757   1.760  14.940   7.663  0.0743 -0.0949 -0.2229
 1039YOPC   C4B14758   1.576  15.017   8.119  0.2086  0.0337  0.0603
 1040YOPC   NC314759   7.820   0.948   5.916  0.0961  0.1737 -0.0654
 1040YOPC   PO414760   7.863   1.292   6.212  0.1992 -0.0892  0.2507
 1040YOPC   GL114761   7.907   1.296   6.662  0.0468  0.0773 -0.0533
 1040YOPC   GL214762   7.909   0.975   6.842  0.1379  0.3930  0.0778
 1040YOPC   C1A14763   8.127   1.406   7.006 -0.1096  0.0640  0.1480
 1040YOPC   D2A14764   8.351   1.428   7.385  0.1539  0.5106  0.1490
 1040YOPC   C3A14765   8.317   1.088   7.578  0.0555  0.2895 -0.1806
 1040YOPC   C4A14766   8.488   0.870   7.879  0.0776  0.1180  0.0472
 1040YOPC   C1B14767   7.840   1.100   7.271 -0.1358  0.1373 -0.2561
 1040YOPC   C2B14768   7.694   1.091   7.768 -0.2154 -0.1950 -0.2377
 1040YOPC   D3B14769   7.563   0.815   7.982  0.0147  0.0658 -0.1332
 1040YOPC   C4B14770   7.228   0.741   8.274 -0.2493 -0.2636  0.0091
 1041YOPC   NC314771   8.126   2.467   6.183  0.1180  0.1271 -0.0509
 1041YOPC   PO414772   7.929   2.082   6.247  0.0682 -0.0387 -0.1407
 1041YOPC   GL114773   7.990   1.895   6.742  0.1484  0.0490 -0.0655
 1041YOPC   GL214774   7.727   1.745   6.736  0.1665  0.2178  0.2165
 1041YOPC   C1A14775   8.154   1.885   7.099 -0.2609  0.0572  0.2955
 1041YOPC   D2A14776   8.531   1.843   7.269  0.1297 -0.4174  0.1340
 1041YOPC   C3A14777   8.492   1.867   7.652  0.0450 -0.0701  0.2340
 1041YOPC   C4A14778   8.544   1.581   7.891  0.2797  0.3341 -0.0379
 1041YOPC   C1B14779   7.734   1.645   7.155  0.0440  0.0501 -0.0470
 1041YOPC   C2B14780   7.925   1.771   7.562  0.2900 -0.0370  0.0733
 1041YOPC   D3B14781   8.088   1.453   7.855  0.1976 -0.0058  0.0659
 1041YOPC   C4B14782   8.190   1.356   8.236 -0.2221  0.2491  0.0234
 1042YOPC   NC314783   7.167   7.515   6.275 -0.3785 -0.0602  0.0517
 1042YOPC   PO414784   7.615   7.522   6.491 -0.1862  0.2144 -0.0023
 1042YOPC   GL114785   7.864   7.349   6.913  0.1627  0.2613 -0.0516
 1042YOPC   GL214786   8.046   7.078   6.908  0.0166 -0.0846  0.0692
 1042YOPC   C1A14787   7.850   7.352   7.408 -0.0470  0.1276  0.1421
 1042YOPC   D2A14788   7.975   7.526   7.768 -0.1329 -0.1585 -0.1353
 1042YOPC   C3A14789   7.996   7.666   8.136  0.2778  0.0370 -0.2094
 1042YOPC   C4A14790   7.957   7.917   8.371 -0.0142 -0.3456 -0.3274
 1042YOPC   C1B14791   8.403   6.914   7.119 -0.0776  0.2063 -0.1842
 1042YOPC   C2B14792   8.732   6.635   7.150 -0.1218  0.1283  0.3503
 1042YOPC   D3B14793   8.967   6.535   7.532 -0.1585  0.0725  0.0050
 1042YOPC   C4B14794   9.110   6.333   7.958  0.0288  0.0636 -0.0576
 1043YOPC   NC314795   2.088  16.172   5.883 -0.0394  0.1624  0.2118
 1043YOPC   PO414796   2.370  16.462   6.088 -0.0989 -0.0452 -0.1209
 1043YOPC   GL114797   2.506  16.226   6.480 -0.1902 -0.1551  0.1173
 1043YOPC   GL214798   2.637  15.878   6.628  0.0771  0.1774  0.1912
 1043YOPC   C1A14799   2.525  16.314   6.919  0.0252 -0.2241 -0.0718
 1043YOPC   D2A14800   2.492  16.454   7.320 -0.0388  0.0671  0.0306
 1043YOPC   C3A14801   2.388  16.842   7.516  0.0618 -0.2685  0.1111
 1043YOPC   C4A14802   2.413  17.060   7.861  0.1986 -0.0555 -0.0874
 1043YOPC   C1B14803   2.660  15.701   7.063 -0.0989 -0.1411  0.0113
 1043YOPC   C2B14804   2.749  15.616   7.539 -0.0919  0.3685  0.2418
 1043YOPC   D3B14805   3.022  15.594   7.885 -0.0528  0.0004 -0.0077
 1043YOPC   C4B14806   3.347  15.569   8.037  0.1742 -0.0777  0.0545
 1044YOPC   NC314807  16.841  14.508   6.085  0.0858  0.1503 -0.1525
 1044YOPC   PO414808  17.173  14.317   6.243 -0.0383  0.1373 -0.1054
 1044YOPC   GL114809  16.972  13.952   6.447  0.2170 -0.0037 -0.0913
 1044YOPC   GL214810  16.737  13.915   6.478 -0.2781  0.0883  0.1542
 1044YOPC   C1A14811  16.987  13.561   6.723 -0.0608 -0.0151  0.2102
 1044YOPC   D2A14812  17.206  13.263   6.715 -0.3885  0.1259 -0.2430
 1044YOPC   C3A14813  17.461  13.162   7.061  0.1664  0.1011 -0.0110
 1044YOPC   C4A14814  17.260  13.158   7.487 -0.2039 -0.1724  0.2301
 1044YOPC   C1B14815  16.720  13.967   6.963 -0.3247 -0.1277 -0.1395
 1044YOPC   C2B14816  16.742  14.231   7.222  0.0442 -0.0761 -0.3144
 1044YOPC   D3B14817  16.831  14.159   7.676  0.1054 -0.1190  0.0835
 1044YOPC   C4B14818  17.043  14.070   8.100  0.0191  0.2072  0.0258
 1045YOPC   NC314819   8.913   4.632   6.189  0.0707  0.3305  0.0308
 1045YOPC   PO414820   8.432   4.606   6.041 -0.0439  0.1375 -0.0543
 1045YOPC   GL114821   8.511   4.461   6.453 -0.0248 -0.1265  0.2760
 1045YOPC   GL214822   8.535   4.714   6.640 -0.0681 -0.2189  0.1481
 1045YOPC   C1A14823   8.538   4.168   6.827 -0.3802 -0.1204 -0.2112
 1045YOPC   D2A14824   8.363   3.936   7.144  0.2530 -0.1309 -0.0605
 1045YOPC   C3A14825   8.314   4.034   7.616 -0.2609 -0.1573  0.1414
 1045YOPC   C4A14826   8.254   4.342   7.930 -0.0787  0.0650 -0.0126
 1045YOPC   C1B14827   8.696   4.844   6.933 -0.0375  0.0079  0.2405
 1045YOPC   C2B14828   8.768   5.096   7.288  0.1399 -0.0519  0.3178
 1045YOPC   D3B14829   8.985   4.987   7.660 -0.1380 -0.0342  0.0203
 1045YOPC   C4B14830   9.143   5.155   8.067 -0.0823 -0.1166  0.2286
 1046YOPC   NC314831  11.987  10.636   6.145 -0.0987  0.0425  0.0578
 1046YOPC   PO414832  12.235  11.032   6.062  0.0052  0.0226  0.1629
 1046YOPC   GL114833  12.310  11.205   6.425 -0.1393 -0.3843  0.0773
 1046YOPC   GL214834  12.080  11.434   6.545  0.5085 -0.1058 -0.0994
 1046YOPC   C1A14835  12.539  11.081   6.720  0.2254 -0.0045  0.0513
 1046YOPC   D2A14836  12.932  11.099   6.692  0.0423  0.4118  0.2342
 1046YOPC   C3A14837  12.970  11.326   7.018  0.0084  0.1414  0.1106
 1046YOPC   C4A14838  12.833  11.358   7.412  0.0270 -0.0473  0.0612
 1046YOPC   C1B14839  11.840  11.422   6.964  0.1005 -0.1879  0.2944
 1046YOPC   C2B14840  11.632  11.319   7.281  0.0546  0.1047  0.0034
 1046YOPC   D3B14841  11.095  11.241   7.394 -0.2360  0.1073 -0.0617
 1046YOPC   C4B14842  10.878  10.998   7.047  0.0805  0.1721 -0.0154
 1047YOPC   NC314843  12.221  12.498   5.929 -0.1150  0.0288  0.0165
 1047YOPC   PO414844  12.631  12.499   6.211  0.3377  0.0480  0.2214
 1047YOPC   GL114845  12.562  12.630   6.551 -0.1545  0.1471 -0.4475
 1047YOPC   GL214846  12.578  12.951   6.638 -0.0281 -0.1237 -0.2119
 1047YOPC   C1A14847  12.331  12.580   6.976  0.0833  0.0068  0.1548
 1047YOPC   D2A14848  12.140  12.360   7.178  0.2467 -0.2686  0.0020
 1047YOPC   C3A14849  12.159  12.254   7.525 -0.1468  0.1165  0.0520
 1047YOPC   C4A14850  12.417  12.111   7.724  0.0919  0.3761  0.0539
 1047YOPC   C1B14851  12.656  13.164   7.104 -0.0029  0.1988 -0.0079
 1047YOPC   C2B14852  12.988  13.207   7.346 -0.0156  0.2016 -0.0749
 1047YOPC   D3B14853  12.995  12.916   7.708 -0.2135 -0.2332 -0.4866
 1047YOPC   C4B14854  12.775  12.820   8.089 -0.2278 -0.0979 -0.1739
 1048YOPC   NC314855   4.136  10.397   5.509 -0.1001 -0.2059 -0.1916
 1048YOPC   PO414856   3.706  10.470   5.557 -0.2426 -0.1097  0.2019
 1048YOPC   GL114857   3.472  10.457   5.992 -0.4034 -0.1904 -0.2603
 1048YOPC   GL214858   3.506  10.144   6.276  0.3074  0.3221  0.2875
 1048YOPC   C1A14859   3.373  10.692   6.395 -0.2623  0.0202  0.0636
 1048YOPC   D2A14860   3.304  10.816   6.773  0.2696 -0.0066 -0.0348
 1048YOPC   C3A14861   3.438  10.654   7.281  0.1142  0.2090 -0.1822
 1048YOPC   C4A14862   3.881  10.612   7.467  0.4310  0.0955  0.0396
 1048YOPC   C1B14863   3.362  10.206   6.654 -0.0043 -0.0336  0.0373
 1048YOPC   C2B14864   3.419  10.009   7.054  0.2975 -0.1830 -0.1104
 1048YOPC   D3B14865   3.176  10.159   7.401  0.0274 -0.1685  0.1019
 1048YOPC   C4B14866   2.978  10.303   7.798  0.4943 -0.0944 -0.1964
 1049YOPC   NC314867  17.768   5.717   6.096  0.0177 -0.0722  0.1640
 1049YOPC   PO414868  18.177   5.492   6.071 -0.0529 -0.1134 -0.0681
 1049YOPC   GL114869  18.068   5.434   6.508  0.1388  0.0699  0.1348
 1049YOPC   GL214870  18.303   5.288   6.631 -0.1013 -0.0586  0.3452
 1049YOPC   C1A14871  17.924   5.390   6.971 -0.3589 -0.2104  0.0008
 1049YOPC   D2A14872  17.997   5.393   7.452  0.1445 -0.1632  0.0708
 1049YOPC   C3A14873  17.819   5.169   7.769  0.1005  0.2269 -0.1119
 1049YOPC   C4A14874  17.589   5.113   8.259 -0.1303 -0.5053  0.2119
 1049YOPC   C1B14875  18.372   5.358   7.153  0.0461  0.2228 -0.1251
 1049YOPC   C2B14876  18.457   5.430   7.563  0.0703  0.0749 -0.2817
 1049YOPC   D3B14877  18.380   5.668   7.889 -0.0148 -0.1268  0.1434
 1049YOPC   C4B14878  18.345   5.914   8.290  0.4226 -0.3029 -0.5791
 1050YOPC   NC314879   3.462   6.702   5.498 -0.1684  0.0072  0.0712
 1050YOPC   PO414880   3.188   6.854   5.797  0.0008  0.2019 -0.1945
 1050YOPC   GL114881   3.326   6.875   6.184 -0.1877 -0.1233 -0.2008
 1050YOPC   GL214882   3.589   6.969   6.398 -0.2822  0.0004 -0.1072
 1050YOPC   C1A14883   3.339   6.572   6.622  0.4120  0.1552 -0.0406
 1050YOPC   D2A14884   3.569   6.463   6.991 -0.0306  0.1508  0.0199
 1050YOPC   C3A14885   3.572   6.524   7.491 -0.3179  0.0902 -0.0978
 1050YOPC   C4A14886   3.487   6.343   7.844 -0.1264  0.0233 -0.1076
 1050YOPC   C1B14887   3.620   7.008   6.837  0.2798 -0.5020  0.2141
 1050YOPC   C2B14888   3.522   7.283   7.204  0.0689 -0.0024 -0.2470
 1050YOPC   D3B14889   3.477   7.011   7.588 -0.3462  0.2202  0.1016
 1050YOPC   C4B14890   3.193   6.826   7.705 -0.0801  0.0929 -0.0313
 1051YOPC   NC314891  11.089  12.429   6.079  0.0494  0.2060 -0.0503
 1051YOPC   PO414892  10.752  12.309   6.329 -0.0862  0.1143  0.2380
 1051YOPC   GL114893  10.852  12.084   6.690 -0.1139  0.0329  0.0822
 1051YOPC   GL214894  11.095  11.819   6.615 -0.2142  0.0047 -0.1516
 1051YOPC   C1A14895  10.960  11.996   7.080  0.3247  0.0856  0.2806
 1051YOPC   D2A14896  11.061  12.123   7.546 -0.2130 -0.0465  0.6142
 1051YOPC   C3A14897  10.900  12.223   7.973 -0.0941 -0.3714  0.3279
 1051YOPC   C4A14898  10.623  12.418   8.309  0.0494 -0.1358 -0.1264
 1051YOPC   C1B14899  10.710  11.579   6.782  0.0480  0.0745 -0.0215
 1051YOPC   C2B14900  10.695  11.493   7.167  0.0453 -0.1505 -0.2055
 1051YOPC   D3B14901  10.835  11.611   7.574  0.1441 -0.0105 -0.1733
 1051YOPC   C4B14902  10.944  11.669   7.988  0.3431 -0.2552 -0.0005
 1052YOPC   NC314903  11.768  16.785   6.067 -0.1776  0.0307  0.2657
 1052YOPC   PO414904  11.697  16.937   6.505  0.1491  0.1751 -0.1552
 1052YOPC   GL114905  11.709  16.938   6.921 -0.2689  0.1041 -0.1143
 1052YOPC   GL214906  12.032  16.811   6.934 -0.1763 -0.2000 -0.1592
 1052YOPC   C1A14907  11.748  16.975   7.290  0.2670  0.2232 -0.0871
 1052YOPC   D2A14908  11.704  17.029   7.688  0.0011  0.0857 -0.1533
 1052YOPC   C3A14909  11.606  17.111   8.117 -0.0116 -0.2365 -0.3717
 1052YOPC   C4A14910  11.197  17.145   8.341 -0.0790 -0.2514 -0.2840
 1052YOPC   C1B14911  12.068  16.618   7.297  0.1525  0.1340 -0.2377
 1052YOPC   C2B14912  12.269  16.345   7.627  0.2138 -0.2991 -0.1424
 1052YOPC   D3B14913  12.373  16.490   8.039 -0.0017  0.0641 -0.2390
 1052YOPC   C4B14914  12.309  16.641   8.432 -0.1080  0.2488 -0.2681
 1053YOPC   NC314915  15.192  11.751   6.376 -0.1872  0.1982  0.1488
 1053YOPC   PO414916  15.204  12.135   6.535  0.1392 -0.2013  0.1541
 1053YOPC   GL114917  14.818  12.048   6.771  0.0373 -0.0713  0.0266
 1053YOPC   GL214918  14.731  12.284   6.903 -0.0946 -0.2821  0.1913
 1053YOPC   C1A14919  14.616  11.890   7.179 -0.1160 -0.0271 -0.0245
 1053YOPC   D2A14920  14.798  12.058   7.623  0.3157  0.1144 -0.1569
 1053YOPC   C3A14921  15.002  12.182   7.744 -0.1083 -0.0892 -0.2616
 1053YOPC   C4A14922  15.106  12.499   8.019 -0.0430 -0.0680 -0.4064
 1053YOPC   C1B14923  14.872  12.422   7.264  0.2032 -0.2186 -0.2024
 1053YOPC   C2B14924  14.759  12.658   7.644 -0.2067 -0.2401  0.1275
 1053YOPC   D3B14925  14.877  12.942   8.064  0.3472 -0.0089  0.0100
 1053YOPC   C4B14926  14.796  13.081   8.490 -0.1693  0.0269 -0.2923
 1054YOPC   NC314927  14.300  15.301   6.150  0.4714 -0.0083 -0.1413
 1054YOPC   PO414928  14.512  15.740   6.150  0.0575 -0.2155  0.1593
 1054YOPC   GL114929  14.769  16.021   6.504 -0.2034 -0.0158  0.4028
 1054YOPC   GL214930  14.496  16.300   6.597  0.2709 -0.0128  0.0754
 1054YOPC   C1A14931  14.930  16.065   6.940  0.0612  0.2630  0.0041
 1054YOPC   D2A14932  15.053  15.950   7.393 -0.0495  0.0459  0.3651
 1054YOPC   C3A14933  14.886  15.893   7.627  0.1583  0.2695  0.0715
 1054YOPC   C4A14934  14.606  15.654   7.907  0.2792 -0.0758  0.0869
 1054YOPC   C1B14935  14.580  16.494   6.988  0.3050  0.4007  0.1975
 1054YOPC   C2B14936  14.722  16.347   7.316  0.0720 -0.0079  0.1563
 1054YOPC   D3B14937  14.804  16.380   7.703  0.0470  0.0982  0.4387
 1054YOPC   C4B14938  14.906  16.508   8.058  0.0338 -0.0677  0.1605
 1055YOPC   NC314939  13.971  16.475   5.880 -0.3113 -0.1642 -0.0122
 1055YOPC   PO414940  14.315  16.662   6.185  0.0923  0.0768 -0.3442
 1055YOPC   GL114941  14.301  16.778   6.692 -0.2039 -0.1481  0.2070
 1055YOPC   GL214942  14.642  16.915   6.695 -0.0379  0.3092  0.0875
 1055YOPC   C1A14943  14.363  16.994   7.155  0.3047 -0.3355 -0.2760
 1055YOPC   D2A14944  14.433  17.026   7.502  0.0979  0.1048 -0.0555
 1055YOPC   C3A14945  14.105  17.029   7.739 -0.0447  0.0463  0.2221
 1055YOPC   C4A14946  14.118  16.998   8.222 -0.2937 -0.1228 -0.0569
 1055YOPC   C1B14947  14.399  17.284   6.688  0.2114 -0.0779 -0.1838
 1055YOPC   C2B14948  14.304  17.613   7.021  0.0417 -0.0730  0.0762
 1055YOPC   D3B14949  14.423  17.569   7.441 -0.1861 -0.0606  0.1348
 1055YOPC   C4B14950  14.512  17.840   7.694  0.0545 -0.0900 -0.0590
 1056YOPC   NC314951  11.439  14.096   6.171  0.1914 -0.0012 -0.1318
 1056YOPC   PO414952  11.740  14.481   6.319 -0.0319  0.0678  0.0415
 1056YOPC   GL114953  11.831  14.564   6.758 -0.0372  0.1418 -0.1981
 1056YOPC   GL214954  12.232  14.424   6.838 -0.0511  0.1458 -0.0926
 1056YOPC   C1A14955  11.857  14.502   7.209 -0.0064 -0.0929 -0.5911
 1056YOPC   D2A14956  11.697  14.597   7.655 -0.0936  0.0673  0.1261
 1056YOPC   C3A14957  11.794  14.999   7.792  0.2173 -0.1388 -0.0697
 1056YOPC   C4A14958  11.886  15.335   8.149  0.4394 -0.1197 -0.1380
 1056YOPC   C1B14959  12.118  14.120   7.114  0.0397  0.0518 -0.0825
 1056YOPC   C2B14960  11.977  13.968   7.493  0.0862 -0.0202 -0.0993
 1056YOPC   D3B14961  12.120  14.294   7.790 -0.1390  0.3199 -0.1423
 1056YOPC   C4B14962  12.084  14.531   8.169 -0.1372  0.1374 -0.0590
 1057YOPC   NC314963  15.650   1.752   5.386  0.0195 -0.2852  0.0830
 1057YOPC   PO414964  15.740   1.789   5.866  0.0228  0.0042 -0.0693
 1057YOPC   GL114965  16.102   1.742   6.126  0.0197 -0.1659 -0.1331
 1057YOPC   GL214966  15.953   1.975   6.332 -0.0694  0.1686  0.3568
 1057YOPC   C1A14967  16.135   1.597   6.580  0.2121  0.0798  0.1882
 1057YOPC   D2A14968  16.262   1.716   6.961 -0.1679 -0.0109  0.1791
 1057YOPC   C3A14969  16.421   1.452   7.279 -0.0564  0.0455  0.0307
 1057YOPC   C4A14970  16.759   1.466   7.442 -0.0181 -0.1428 -0.1492
 1057YOPC   C1B14971  16.077   2.100   6.688  0.1103 -0.0772 -0.0171
 1057YOPC   C2B14972  16.127   2.167   7.139  0.3158  0.1776  0.0725
 1057YOPC   D3B14973  16.287   2.017   7.450  0.0185  0.2819 -0.0831
 1057YOPC   C4B14974  16.554   1.846   7.759  0.0186  0.1339 -0.0539
 1058YOPC   NC314975   3.507  14.769   4.847 -0.0508 -0.1035  0.0811
 1058YOPC   PO414976   3.531  14.603   5.287  0.0190  0.1829 -0.1203
 1058YOPC   GL114977   3.825  14.689   5.724 -0.3582  0.0127 -0.1143
 1058YOPC   GL214978   3.766  14.992   5.846  0.2766  0.0655  0.0013
 1058YOPC   C1A14979   4.076  14.563   6.045 -0.0245  0.1077 -0.0586
 1058YOPC   D2A14980   4.047  14.262   6.369  0.1568  0.3198 -0.0761
 1058YOPC   C3A14981   4.366  13.881   6.422 -0.0731  0.0947 -0.0458
 1058YOPC   C4A14982   4.727  13.778   6.072 -0.1666  0.0380 -0.0415
 1058YOPC   C1B14983   3.845  14.970   6.328  0.3460 -0.2504 -0.0551
 1058YOPC   C2B14984   4.006  14.809   6.676 -0.2440  0.0020  0.0387
 1058YOPC   D3B14985   3.912  14.362   6.827  0.1475  0.2353  0.0427
 1058YOPC   C4B14986   4.132  14.254   7.270 -0.2952 -0.3225 -0.1350
 1059YOPC   NC314987  12.785  13.082   6.131  0.2302 -0.0997 -0.2263
 1059YOPC   PO414988  13.143  13.318   6.115  0.0066  0.1544  0.1112
 1059YOPC   GL114989  13.070  13.431   6.477 -0.3014 -0.0823  0.3622
 1059YOPC   GL214990  13.258  13.632   6.590  0.0685  0.0854 -0.0316
 1059YOPC   C1A14991  12.914  13.506   6.897 -0.0482  0.1158  0.0527
 1059YOPC   D2A14992  12.941  13.702   7.409 -0.0211 -0.0563  0.0719
 1059YOPC   C3A14993  12.808  13.531   7.686  0.0407  0.0790  0.0398
 1059YOPC   C4A14994  12.894  13.313   8.028  0.1158 -0.1574 -0.0900
 1059YOPC   C1B14995  13.515  13.688   6.828 -0.1029  0.0948 -0.1910
 1059YOPC   C2B14996  13.670  13.926   7.094  0.1315 -0.1312 -0.1007
 1059YOPC   D3B14997  13.814  13.883   7.470 -0.3511 -0.1211  0.2218
 1059YOPC   C4B14998  13.848  13.796   7.887  0.0446 -0.1116 -0.1851
 1060YOPC   NC314999   6.205  13.071   5.510 -0.1421 -0.0604 -0.3338
 1060YOPC   PO415000   6.393  13.349   5.673  0.0506  0.0835  0.0254
 1060YOPC   GL115001   6.124  13.350   6.105  0.0755 -0.0327 -0.0127
 1060YOPC   GL215002   5.812  13.588   6.083  0.0978 -0.4915 -0.1412
 1060YOPC   C1A15003   6.207  13.339   6.567  0.1128  0.0254 -0.0854
 1060YOPC   D2A15004   6.531  13.428   6.567  0.0777 -0.0834 -0.2002
 1060YOPC   C3A15005   6.785  13.414   6.824 -0.0144  0.3363 -0.0341
 1060YOPC   C4A15006   7.061  13.244   6.966  0.2397 -0.1649 -0.0101
 1060YOPC   C1B15007   5.683  13.688   6.540  0.1258 -0.0532 -0.2524
 1060YOPC   C2B15008   5.602  13.837   6.953 -0.1387  0.0201  0.1159
 1060YOPC   D3B15009   5.475  13.638   7.328 -0.0198  0.0585  0.1844
 1060YOPC   C4B15010   5.216  13.405   7.605 -0.0861 -0.1728  0.3309
 1061YOPC   NC315011  11.361  15.695   6.355  0.3438 -0.1919 -0.1888
 1061YOPC   PO415012  11.030  15.862   6.601  0.1625 -0.0179 -0.0825
 1061YOPC   GL115013  10.934  15.834   6.948 -0.2124 -0.2130 -0.1495
 1061YOPC   GL215014  11.243  15.909   7.105 -0.0582  0.0318 -0.3937
 1061YOPC   C1A15015  10.748  15.843   7.385  0.0327  0.0207 -0.0367
 1061YOPC   D2A15016  10.525  15.769   7.678 -0.2190  0.0682  0.0716
 1061YOPC   C3A15017  10.525  15.922   7.995 -0.0007 -0.1567  0.0165
 1061YOPC   C4A15018  10.801  16.234   8.173 -0.1250  0.1235  0.0288
 1061YOPC   C1B15019  11.347  16.060   7.471 -0.0748  0.1381  0.3407
 1061YOPC   C2B15020  11.281  16.187   7.883  0.1006 -0.1810  0.0388
 1061YOPC   D3B15021  11.550  15.863   8.129 -0.1592  0.0371  0.0936
 1061YOPC   C4B15022  11.509  15.581   8.467 -0.3214  0.1333  0.2866
 1062YOPC   NC315023  17.029   6.777   6.229  0.4071  0.1020  0.1748
 1062YOPC   PO415024  16.743   6.492   6.111  0.0600  0.0012  0.0126
 1062YOPC   GL115025  16.919   6.419   6.522  0.2141  0.3432  0.3692
 1062YOPC   GL215026  16.908   6.802   6.729 -0.1491 -0.3268  0.1297
 1062YOPC   C1A15027  16.783   6.249   6.940 -0.1543 -0.1483 -0.1091
 1062YOPC   D2A15028  16.820   6.316   7.387 -0.1158 -0.0573  0.3191
 1062YOPC   C3A15029  17.022   6.319   7.765  0.0231 -0.0614 -0.1212
 1062YOPC   C4A15030  17.040   5.992   8.105 -0.0262 -0.3718  0.1575
 1062YOPC   C1B15031  17.085   6.688   7.041  0.1321  0.2954  0.0189
 1062YOPC   C2B15032  17.148   6.733   7.452 -0.1810 -0.1650 -0.0980
 1062YOPC   D3B15033  17.098   6.798   7.962  0.0488 -0.1114  0.0887
 1062YOPC   C4B15034  17.030   7.063   8.326 -0.0353 -0.1636 -0.0370
 1063YOPC   NC315035  14.882   1.010   6.244 -0.2212  0.0491 -0.2439
 1063YOPC   PO415036  14.519   0.741   6.344 -0.0906  0.2933  0.0472
 1063YOPC   GL115037  14.698   0.623   6.689  0.0329 -0.1463  0.0968
 1063YOPC   GL215038  14.534   0.751   6.890 -0.0084 -0.0106 -0.1522
 1063YOPC   C1A15039  15.023   0.422   6.974 -0.1310 -0.0393  0.0467
 1063YOPC   D2A15040  15.095   0.387   7.259 -0.1059 -0.2205 -0.2280
 1063YOPC   C3A15041  15.412   0.392   7.563 -0.0173  0.4386 -0.1341
 1063YOPC   C4A15042  15.709   0.247   7.866  0.1209  0.0610 -0.1016
 1063YOPC   C1B15043  14.590   0.524   7.224 -0.5061  0.0866  0.0514
 1063YOPC   C2B15044  14.670   0.537   7.636  0.0955 -0.0672  0.2253
 1063YOPC   D3B15045  14.639   0.296   8.027  0.2092  0.1296  0.1660
 1063YOPC   C4B15046  14.674  -0.108   8.215  0.0131 -0.1165  0.3877
 1064YOPC   NC315047  13.876  11.687   5.725  0.3155 -0.1836  0.0201
 1064YOPC   PO415048  13.550  11.390   5.846 -0.0540  0.1111 -0.2752
 1064YOPC   GL115049  13.509  11.449   6.272 -0.0749 -0.1161 -0.1548
 1064YOPC   GL215050  13.371  11.142   6.403  0.0351 -0.2459  0.0548
 1064YOPC   C1A15051  13.702  11.703   6.666 -0.0381 -0.0102 -0.1853
 1064YOPC   D2A15052  13.812  11.915   7.010  0.0851 -0.3671 -0.3230
 1064YOPC   C3A15053  14.136  11.663   7.255  0.2654 -0.0007  0.1010
 1064YOPC   C4A15054  14.471  11.700   7.588 -0.2780  0.3466 -0.0104
 1064YOPC   C1B15055  13.469  11.285   6.849 -0.0522  0.1096  0.4348
 1064YOPC   C2B15056  13.794  11.322   7.032 -0.1709 -0.3782  0.0205
 1064YOPC   D3B15057  13.726  11.310   7.435 -0.2214  0.4080  0.0907
 1064YOPC   C4B15058  13.713  11.361   7.894 -0.0178 -0.1800 -0.1032
 1065YOPC   NC315059   8.811   7.726   6.495  0.1737  0.1083  0.0544
 1065YOPC   PO415060   8.483   7.663   6.354 -0.0930 -0.2136 -0.0145
 1065YOPC   GL115061   8.310   7.807   6.679 -0.0876 -0.1804 -0.3953
 1065YOPC   GL215062   8.608   7.831   6.883  0.0708  0.0484  0.2131
 1065YOPC   C1A15063   7.933   7.931   6.962 -0.0375  0.1053  0.0100
 1065YOPC   D2A15064   7.990   7.951   7.408  0.1081 -0.2156 -0.0518
 1065YOPC   C3A15065   8.014   8.025   7.775 -0.0417  0.1333 -0.1477
 1065YOPC   C4A15066   7.887   8.323   8.100  0.1757 -0.0351 -0.0473
 1065YOPC   C1B15067   8.298   7.587   7.118  0.0618  0.1309  0.0001
 1065YOPC   C2B15068   8.326   7.254   7.461 -0.0290 -0.1137  0.0157
 1065YOPC   D3B15069   8.383   7.281   7.903  0.2514 -0.0556  0.1679
 1065YOPC   C4B15070   8.624   7.475   8.153 -0.2852  0.0375 -0.0294
 1066YOPC   NC315071  15.709   1.122   5.903  0.2108 -0.1159  0.0262
 1066YOPC   PO415072  15.357   1.241   6.054 -0.1754 -0.1364 -0.2330
 1066YOPC   GL115073  15.354   1.236   6.477 -0.0885  0.2646 -0.0004
 1066YOPC   GL215074  15.086   1.377   6.554  0.0151  0.2351 -0.1630
 1066YOPC   C1A15075  15.447   1.372   6.870  0.1024 -0.1413 -0.1465
 1066YOPC   D2A15076  15.468   1.296   7.246 -0.2119 -0.1116  0.1823
 1066YOPC   C3A15077  15.765   1.300   7.564  0.2555 -0.1081  0.0769
 1066YOPC   C4A15078  15.899   1.318   8.057 -0.0577 -0.1012  0.2896
 1066YOPC   C1B15079  15.001   1.421   7.086 -0.2022 -0.3630 -0.2487
 1066YOPC   C2B15080  14.861   1.416   7.409 -0.3944 -0.2917 -0.0287
 1066YOPC   D3B15081  14.933   1.235   7.821 -0.1804  0.1902 -0.2181
 1066YOPC   C4B15082  14.647   1.312   8.167  0.0129 -0.0716  0.0706
 1067YOPC   NC315083  15.636  13.282   6.149 -0.0398  0.4580 -0.0718
 1067YOPC   PO415084  15.992  13.619   6.049  0.0461  0.1828 -0.1798
 1067YOPC   GL115085  16.005  13.427   6.479 -0.1349 -0.1907  0.0656
 1067YOPC   GL215086  16.395  13.462   6.478  0.1167  0.1091 -0.2965
 1067YOPC   C1A15087  16.047  13.044   6.685 -0.0380 -0.2148 -0.1587
 1067YOPC   D2A15088  15.818  12.781   6.799  0.1061 -0.0710  0.0014
 1067YOPC   C3A15089  15.769  12.490   7.218  0.0738 -0.0497  0.0674
 1067YOPC   C4A15090  15.719  12.510   7.754 -0.0589  0.1902 -0.1518
 1067YOPC   C1B15091  16.541  13.294   6.878 -0.3057  0.3237 -0.1175
 1067YOPC   C2B15092  16.532  13.117   7.311  0.1451  0.0386  0.1214
 1067YOPC   D3B15093  16.832  13.091   7.783  0.1233  0.2204  0.1573
 1067YOPC   C4B15094  16.931  12.721   7.936 -0.1263 -0.0198 -0.1489
 1068YOPC   NC315095   0.730   5.726   6.006  0.0727  0.1080  0.1776
 1068YOPC   PO415096   0.483   6.039   6.219  0.0857 -0.0864  0.1400
 1068YOPC   GL115097   0.209   5.982   6.459  0.0351  0.1599 -0.0323
 1068YOPC   GL215098   0.115   6.254   6.669  0.1920 -0.0177  0.1634
 1068YOPC   C1A15099   0.332   5.789   6.829  0.3767 -0.0901  0.0151
 1068YOPC   D2A15100   0.610   5.835   7.116 -0.0713  0.0859 -0.1049
 1068YOPC   C3A15101   0.368   5.836   7.395  0.0875 -0.1725 -0.1002
 1068YOPC   C4A15102   0.300   6.125   7.811 -0.1844 -0.1481 -0.2381
 1068YOPC   C1B15103   0.107   6.346   7.093  0.0681  0.1573 -0.0840
 1068YOPC   C2B15104   0.127   6.386   7.408  0.0863  0.2785 -0.3453
 1068YOPC   D3B15105   0.257   6.637   7.838  0.1406  0.2532 -0.0324
 1068YOPC   C4B15106   0.587   6.723   8.090  0.0754  0.0637 -0.0029
 1069YOPC   NC315107   3.473  15.984   5.842  0.1962 -0.1268  0.0107
 1069YOPC   PO415108   3.826  16.192   5.954 -0.1385  0.2456 -0.0904
 1069YOPC   GL115109   3.802  16.105   6.331  0.2588 -0.2078 -0.0026
 1069YOPC   GL215110   3.892  16.337   6.594  0.0136  0.0533 -0.0933
 1069YOPC   C1A15111   4.027  15.873   6.612 -0.1231 -0.0055  0.0008
 1069YOPC   D2A15112   4.249  15.822   7.000 -0.2386  0.0073  0.5047
 1069YOPC   C3A15113   4.269  15.580   7.353 -0.1954 -0.0808  0.0626
 1069YOPC   C4A15114   4.405  15.334   7.662 -0.0221  0.0541 -0.2799
 1069YOPC   C1B15115   3.882  16.266   7.072  0.2871 -0.0409  0.1958
 1069YOPC   C2B15116   3.849  15.878   7.280  0.2058  0.0835  0.0104
 1069YOPC   D3B15117   3.953  15.694   7.712  0.1133 -0.2611  0.0126
 1069YOPC   C4B15118   4.271  15.626   8.043  0.0392 -0.0669 -0.3644
 1070YOPC   NC315119   5.012   1.571   5.952  0.0057 -0.1376 -0.2410
 1070YOPC   PO415120   5.165   1.181   5.894  0.2198  0.1264  0.0008
 1070YOPC   GL115121   5.357   1.289   6.225 -0.0271  0.2543 -0.0489
 1070YOPC   GL215122   5.492   1.039   6.385  0.1011  0.1097  0.1386
 1070YOPC   C1A15123   5.485   1.492   6.638 -0.0061  0.0244  0.3553
 1070YOPC   D2A15124   5.649   1.578   6.981  0.0167  0.1952  0.2208
 1070YOPC   C3A15125   5.599   1.718   7.440 -0.3689  0.3483  0.0766
 1070YOPC   C4A15126   5.714   1.644   7.854  0.2217 -0.1797 -0.0023
 1070YOPC   C1B15127   5.700   0.671   6.658  0.0996  0.0652 -0.2424
 1070YOPC   C2B15128   5.899   0.398   7.036  0.1876  0.0938 -0.1687
 1070YOPC   D3B15129   5.710   0.261   7.406  0.1956 -0.2517  0.0610
 1070YOPC   C4B15130   5.641  -0.065   7.738 -0.2096  0.0040  0.1488
 1071YOPC   NC315131  13.844   7.555   6.419  0.1377  0.0119  0.0352
 1071YOPC   PO415132  13.952   7.941   6.530  0.0857 -0.0404 -0.4261
 1071YOPC   GL115133  14.162   8.048   6.855  0.1027  0.1656 -0.0066
 1071YOPC   GL215134  14.315   8.248   6.742 -0.0792 -0.0847  0.0194
 1071YOPC   C1A15135  14.201   8.209   7.275 -0.3304  0.1243  0.3356
 1071YOPC   D2A15136  14.227   8.320   7.661  0.1352 -0.0229 -0.0800
 1071YOPC   C3A15137  13.927   8.381   7.986  0.0377 -0.1985  0.2472
 1071YOPC   C4A15138  13.691   8.346   8.428 -0.1138  0.1200  0.1401
 1071YOPC   C1B15139  14.686   8.356   6.938 -0.0828 -0.4362 -0.3122
 1071YOPC   C2B15140  14.649   8.451   7.341  0.3000 -0.0136  0.1401
 1071YOPC   D3B15141  14.756   8.294   7.677  0.0109  0.2297  0.2152
 1071YOPC   C4B15142  14.891   8.268   8.127  0.2495  0.1287 -0.1517
 1072YOPC   NC315143   1.692  16.975   6.193 -0.0573  0.1435 -0.1174
 1072YOPC   PO415144   1.273  17.049   6.008 -0.0435 -0.3142  0.1078
 1072YOPC   GL115145   1.095  17.049   6.468  0.1145 -0.2851  0.2218
 1072YOPC   GL215146   1.023  16.837   6.711 -0.0933 -0.0421 -0.0517
 1072YOPC   C1A15147   1.424  17.196   6.787  0.1157 -0.1032  0.2346
 1072YOPC   D2A15148   1.466  17.087   7.121 -0.1105  0.2846  0.0451
 1072YOPC   C3A15149   1.055  16.882   7.285 -0.0917 -0.1783 -0.2183
 1072YOPC   C4A15150   0.821  16.906   7.586 -0.1116  0.0692 -0.0259
 1072YOPC   C1B15151   0.684  16.670   6.970 -0.5079  0.3212  0.1641
 1072YOPC   C2B15152   0.449  16.588   7.358 -0.1427  0.2492  0.0218
 1072YOPC   D3B15153   0.463  16.171   7.607  0.1045 -0.2067  0.0509
 1072YOPC   C4B15154   0.723  16.036   7.960 -0.0539 -0.1975  0.0892
 1073YOPC   NC315155  11.271   7.539   6.267 -0.1456  0.1503  0.1447
 1073YOPC   PO415156  11.272   7.935   6.316  0.1435 -0.0597 -0.1264
 1073YOPC   GL115157  11.498   7.805   6.632  0.2401 -0.0218 -0.2996
 1073YOPC   GL215158  11.735   7.580   6.624  0.1668  0.0646 -0.5293
 1073YOPC   C1A15159  11.627   8.020   6.970  0.0569 -0.1217 -0.0129
 1073YOPC   D2A15160  11.633   7.962   7.410 -0.1211  0.1583 -0.1577
 1073YOPC   C3A15161  11.545   8.201   7.703  0.1060 -0.4588 -0.1036
 1073YOPC   C4A15162  11.616   8.226   8.143 -0.0230 -0.2520  0.1243
 1073YOPC   C1B15163  11.765   7.575   7.105  0.4379 -0.1728  0.1418
 1073YOPC   C2B15164  11.586   7.492   7.578  0.2539 -0.1890 -0.1556
 1073YOPC   D3B15165  11.911   7.403   7.830  0.2246 -0.3610  0.0890
 1073YOPC   C4B15166  12.361   7.479   7.943 -0.0203 -0.2517 -0.1044
 1074YOPC   NC315167  12.853   1.643   6.066 -0.0454 -0.2235 -0.0053
 1074YOPC   PO415168  12.630   1.994   6.183 -0.0893 -0.2261 -0.3640
 1074YOPC   GL115169  12.361   2.023   6.634 -0.1675 -0.2206  0.2409
 1074YOPC   GL215170  12.053   1.964   6.718  0.1491 -0.1048  0.1811
 1074YOPC   C1A15171  12.448   2.044   7.051 -0.2813  0.1306  0.1654
 1074YOPC   D2A15172  12.460   1.841   7.394  0.0532  0.0030 -0.1299
 1074YOPC   C3A15173  12.647   1.825   7.736  0.1353 -0.0521 -0.1193
 1074YOPC   C4A15174  12.817   1.895   8.111 -0.0770 -0.0432 -0.1637
 1074YOPC   C1B15175  11.963   2.292   7.086  0.0155  0.0453  0.1169
 1074YOPC   C2B15176  11.924   2.565   7.461  0.1314 -0.0560 -0.2748
 1074YOPC   D3B15177  11.973   2.406   7.945 -0.0403 -0.1172  0.0255
 1074YOPC   C4B15178  11.844   2.363   8.430 -0.0141 -0.1214  0.1942
 1075YOPC   NC315179   1.156   1.344   5.750  0.2092  0.1909  0.0216
 1075YOPC   PO415180   0.739   1.238   5.870  0.0373  0.5241 -0.2327
 1075YOPC   GL115181   0.904   1.278   6.268  0.0711 -0.0420  0.0072
 1075YOPC   GL215182   0.901   1.552   6.442 -0.0021 -0.0971  0.0082
 1075YOPC   C1A15183   0.871   1.121   6.676  0.2923 -0.0463  0.1250
 1075YOPC   D2A15184   0.862   0.956   7.046  0.0944 -0.1021 -0.1087
 1075YOPC   C3A15185   1.012   0.758   7.368  0.0168  0.0492 -0.2586
 1075YOPC   C4A15186   0.973   0.651   7.837 -0.1571  0.0526 -0.0257
 1075YOPC   C1B15187   0.928   1.585   6.863  0.1020 -0.2484 -0.4112
 1075YOPC   C2B15188   0.867   1.456   7.295  0.2107 -0.1323 -0.2086
 1075YOPC   D3B15189   1.066   1.341   7.720 -0.0182 -0.0027  0.0147
 1075YOPC   C4B15190   0.954   1.076   8.066 -0.2961 -0.0137  0.1580
 1076YOPC   NC315191   9.384  15.260   6.183  0.3755 -0.0259 -0.2891
 1076YOPC   PO415192   9.112  14.885   6.328 -0.0319  0.0061  0.0971
 1076YOPC   GL115193   9.302  14.883   6.642  0.2686  0.0137  0.0530
 1076YOPC   GL215194   9.447  14.605   6.703 -0.0951 -0.0117 -0.2089
 1076YOPC   C1A15195   9.194  14.925   7.109  0.0838 -0.1036  0.0820
 1076YOPC   D2A15196   9.266  14.820   7.472  0.0779 -0.0183 -0.3133
 1076YOPC   C3A15197   9.449  14.833   7.913 -0.2676  0.2718  0.0114
 1076YOPC   C4A15198   9.581  15.060   8.316 -0.0636  0.1598 -0.0764
 1076YOPC   C1B15199   9.570  14.324   7.076 -0.3572  0.3511  0.0752
 1076YOPC   C2B15200   9.659  14.416   7.481 -0.0870  0.1573 -0.2925
 1076YOPC   D3B15201   9.530  14.339   7.883 -0.0315  0.0099 -0.1174
 1076YOPC   C4B15202   9.297  14.452   8.229 -0.3050  0.4482 -0.1648
 1077YOPC   NC315203   0.308   0.449   6.249 -0.0259  0.2654 -0.0016
 1077YOPC   PO415204   0.771   0.208   6.133 -0.0497  0.0950 -0.1917
 1077YOPC   GL115205   0.966   0.203   6.467 -0.1988 -0.1126  0.3318
 1077YOPC   GL215206   0.701   0.330   6.604  0.1186  0.3156  0.4623
 1077YOPC   C1A15207   1.316   0.356   6.659 -0.1736  0.1444 -0.1105
 1077YOPC   D2A15208   1.631   0.640   6.508 -0.1554  0.1160  0.1650
 1077YOPC   C3A15209   1.947   0.560   6.838 -0.0479 -0.1771 -0.1326
 1077YOPC   C4A15210   2.394   0.379   6.916  0.1897 -0.1675 -0.3833
 1077YOPC   C1B15211   0.911   0.392   6.942  0.0086 -0.2216  0.4636
 1077YOPC   C2B15212   1.331   0.418   7.127 -0.1171 -0.0012  0.0983
 1077YOPC   D3B15213   1.335   0.422   7.593  0.1946 -0.4668 -0.0611
 1077YOPC   C4B15214   1.542   0.487   7.863  0.1414 -0.0115  0.0621
 1078YOPC   NC315215  10.898   0.574   5.972 -0.1324 -0.0946 -0.0482
 1078YOPC   PO415216  10.584   0.961   6.081  0.0108  0.2886 -0.2759
 1078YOPC   GL115217  10.449   1.137   6.611  0.0923 -0.4277 -0.0432
 1078YOPC   GL215218  10.106   1.123   6.614 -0.1477  0.1078  0.4836
 1078YOPC   C1A15219  10.557   1.269   6.977 -0.2852  0.1549 -0.3110
 1078YOPC   D2A15220  10.596   1.187   7.396 -0.1088  0.1187 -0.1981
 1078YOPC   C3A15221  10.440   1.129   7.794 -0.1677  0.0682  0.0887
 1078YOPC   C4A15222  10.309   0.834   8.079 -0.1332  0.3118  0.3318
 1078YOPC   C1B15223  10.239   0.738   6.672  0.1173  0.2819 -0.3067
 1078YOPC   C2B15224   9.980   0.632   6.939  0.1516 -0.4684  0.0422
 1078YOPC   D3B15225  10.226   0.295   7.250  0.2457  0.0293 -0.0428
 1078YOPC   C4B15226  10.263   0.231   7.584 -0.0952  0.2446 -0.2792
 1079YOPC   NC315227   5.034   4.378   6.119 -0.1787 -0.1539  0.1055
 1079YOPC   PO415228   4.825   3.944   6.151 -0.3903 -0.0529  0.0149
 1079YOPC   GL115229   4.778   4.081   6.577  0.2053 -0.3146  0.1545
 1079YOPC   GL215230   4.836   4.363   6.561  0.1330 -0.4013 -0.2463
 1079YOPC   C1A15231   4.748   4.085   7.004 -0.2359  0.1388  0.0227
 1079YOPC   D2A15232   4.901   4.032   7.452 -0.1790  0.1059 -0.2255
 1079YOPC   C3A15233   4.736   4.238   7.749 -0.1390 -0.1629  0.0032
 1079YOPC   C4A15234   4.730   4.442   8.153 -0.1868 -0.0586  0.1572
 1079YOPC   C1B15235   4.805   4.645   6.963 -0.0891 -0.0099 -0.0839
 1079YOPC   C2B15236   4.792   4.534   7.343  0.1325 -0.0324  0.0444
 1079YOPC   D3B15237   4.749   4.791   7.778 -0.1959 -0.0805  0.1542
 1079YOPC   C4B15238   4.765   5.120   8.039  0.0177 -0.2757 -0.0012
 1080YOPC   NC315239  17.652  16.919   5.304 -0.0071 -0.1028  0.1450
 1080YOPC   PO415240  17.786  16.826   5.737 -0.2351 -0.0511 -0.0558
 1080YOPC   GL115241  17.525  16.648   6.192 -0.4555 -0.0251  0.0931
 1080YOPC   GL215242  17.350  16.959   6.317 -0.0150 -0.1442 -0.1933
 1080YOPC   C1A15243  17.651  16.476   6.590  0.1021  0.1255  0.0842
 1080YOPC   D2A15244  17.571  16.454   6.990 -0.0930 -0.0836  0.1160
 1080YOPC   C3A15245  17.917  16.240   7.222  0.1126  0.1263 -0.3259
 1080YOPC   C4A15246  18.314  16.089   7.144  0.2273 -0.0425  0.2290
 1080YOPC   C1B15247  17.441  17.166   6.676  0.1591 -0.0636  0.1730
 1080YOPC   C2B15248  17.656  17.394   6.882 -0.0926 -0.1217 -0.0024
 1080YOPC   D3B15249  17.675  17.295   7.268  0.4771 -0.0421 -0.0385
 1080YOPC   C4B15250  17.695  17.271   7.644 -0.2361  0.0720  0.0655
 1081YOPC   NC315251  12.202   2.064   5.956  0.1373 -0.0075  0.1984
 1081YOPC   PO415252  12.004   2.229   6.279 -0.1783 -0.1637  0.1923
 1081YOPC   GL115253  12.163   2.493   6.601  0.2920  0.1555 -0.1520
 1081YOPC   GL215254  12.087   2.771   6.417 -0.1100 -0.1546  0.0347
 1081YOPC   C1A15255  11.991   2.821   6.983  0.0790  0.2633 -0.0943
 1081YOPC   D2A15256  11.688   3.084   7.143  0.0155 -0.1693  0.1153
 1081YOPC   C3A15257  11.567   2.869   7.558  0.0138  0.0566 -0.0891
 1081YOPC   C4A15258  11.771   2.855   8.007 -0.0840 -0.0268 -0.1153
 1081YOPC   C1B15259  12.024   3.192   6.613  0.0437 -0.0193  0.1441
 1081YOPC   C2B15260  11.808   3.531   6.864 -0.1087 -0.0945  0.0277
 1081YOPC   D3B15261  11.875   3.490   7.379 -0.2197 -0.2744  0.0265
 1081YOPC   C4B15262  11.766   3.294   7.747  0.3220 -0.0622  0.1688
 1082YOPC   NC315263  12.210  13.497   6.035  0.1172  0.1320 -0.2821
 1082YOPC   PO415264  11.931  13.161   5.894  0.1704  0.0892  0.1194
 1082YOPC   GL115265  11.700  13.410   6.152  0.0578  0.0001 -0.1823
 1082YOPC   GL215266  11.503  13.651   6.179 -0.3360  0.2009  0.0450
 1082YOPC   C1A15267  11.547  13.439   6.628  0.0939  0.0629  0.0808
 1082YOPC   D2A15268  11.219  13.204   6.692  0.1378 -0.1737  0.0041
 1082YOPC   C3A15269  11.096  12.989   6.966 -0.0053 -0.0375  0.2735
 1082YOPC   C4A15270  11.110  13.002   7.387 -0.0898 -0.1889 -0.0570
 1082YOPC   C1B15271  11.201  13.404   6.223  0.1603 -0.1418 -0.0594
 1082YOPC   C2B15272  10.928  13.112   6.328  0.4149  0.0349 -0.2973
 1082YOPC   D3B15273  11.025  12.782   6.544  0.3606 -0.2319 -0.3221
 1082YOPC   C4B15274  10.840  12.557   6.889  0.1667 -0.0353 -0.1043
 1083YOPC   NC315275  14.891   4.995   6.120 -0.1185  0.1889 -0.1036
 1083YOPC   PO415276  15.309   4.746   6.262  0.0531  0.1260  0.1928
 1083YOPC   GL115277  14.982   4.768   6.620 -0.4156  0.1032 -0.1724
 1083YOPC   GL215278  14.615   4.780   6.615  0.1095 -0.0281 -0.0891
 1083YOPC   C1A15279  14.903   4.736   7.027 -0.0415 -0.0841  0.3634
 1083YOPC   D2A15280  14.747   4.667   7.458 -0.1211 -0.1594 -0.0136
 1083YOPC   C3A15281  14.953   4.613   7.887  0.0239  0.0519  0.1094
 1083YOPC   C4A15282  14.898   4.384   8.268  0.0554 -0.2407 -0.1815
 1083YOPC   C1B15283  14.418   4.730   7.085  0.0025  0.1603  0.1566
 1083YOPC   C2B15284  14.257   4.426   7.349 -0.0821  0.1103 -0.3148
 1083YOPC   D3B15285  14.163   4.574   7.828  0.0330  0.2747 -0.0290
 1083YOPC   C4B15286  14.501   4.741   8.020 -0.2696 -0.1339  0.0064
 1084ERGO   ROH15287  13.399   3.742   6.338  0.0117  0.1122  0.0458
 1084ERGO    R115288  13.517   3.636   6.572 -0.2429 -0.0269  0.1141
 1084ERGO    R215289  13.701   3.777   6.722  0.0859 -0.3599  0.0255
 1084ERGO    R315290  13.529   3.722   6.925 -0.0539  0.1676  0.0653
 1084ERGO    R415291  13.776   3.805   7.059  0.2510 -0.5226  0.0053
 1084ERGO    R515292  13.665   3.621   7.094 -0.2950 -0.2180  0.0510
 1084ERGO    C115293  13.657   3.771   7.445  0.2157 -0.1222  0.0310
 1084ERGO    C215294  13.599   3.736   7.860  0.1010 -0.1095  0.4174
 1085ERGO   ROH15295   6.932   2.383   6.717  0.0168 -0.1625 -0.1555
 1085ERGO    R115296   6.984   2.293   6.980  0.0069 -0.0875 -0.1288
 1085ERGO    R215297   6.937   2.033   7.060 -0.0529 -0.0433 -0.0422
 1085ERGO    R315298   7.197   2.043   7.136 -0.0475 -0.0882 -0.0504
 1085ERGO    R415299   7.071   1.860   7.327 -0.1685  0.2151  0.1903
 1085ERGO    R515300   7.190   2.036   7.376 -0.0684  0.2226 -0.0316
 1085ERGO    C115301   7.395   1.768   7.554 -0.2307  0.3234  0.3179
 1085ERGO    C215302   7.580   1.564   7.800 -0.3102  0.0146  0.1537
 1086ERGO   ROH15303  10.668  13.518   6.396 -0.2008 -0.1755 -0.0909
 1086ERGO    R115304  10.806  13.544   6.642 -0.1687 -0.0123 -0.1214
 1086ERGO    R215305  10.691  13.661   6.865 -0.2126 -0.0236 -0.1165
 1086ERGO    R315306  10.761  13.426   6.983 -0.0320  0.0463 -0.0883
 1086ERGO    R415307  10.664  13.592   7.203 -0.1975 -0.0593 -0.1248
 1086ERGO    R515308  10.855  13.490   7.193 -0.1257  0.1136 -0.0839
 1086ERGO    C115309  10.713  13.331   7.510 -0.0191 -0.0145 -0.1031
 1086ERGO    C215310  10.704  13.515   7.800  0.0703 -0.1009 -0.1119
 1087ERGO   ROH15311   5.147   5.722   8.900 -0.0849 -0.0209  0.1118
 1087ERGO    R115312   4.954   5.774   9.100 -0.2011  0.1624 -0.0429
 1087ERGO    R215313   5.015   5.773   9.370 -0.4755 -0.2025  0.0305
 1087ERGO    R315314   4.905   6.022   9.363  0.0044  0.0245  0.1272
 1087ERGO    R415315   4.846   5.921   9.632 -0.3008 -0.0159  0.0402
 1087ERGO    R515316   4.702   6.000   9.488 -0.0937  0.3485  0.0277
 1087ERGO    C115317   4.644   6.241   9.778  0.2515  0.3058  0.1366
 1087ERGO    C215318   4.414   6.226  10.038 -0.2281  0.1434 -0.4039
 1088ERGO   ROH15319  11.119  16.438   6.994 -0.0686 -0.0824  0.1660
 1088ERGO    R115320  10.967  16.316   7.199 -0.0794 -0.0851  0.1554
 1088ERGO    R215321  10.966  16.409   7.459 -0.1460 -0.0489  0.1377
 1088ERGO    R315322  10.697  16.414   7.422 -0.1423 -0.1130  0.0943
 1088ERGO    R415323  10.731  16.372   7.710 -0.1700  0.1590  0.1483
 1088ERGO    R515324  10.612  16.249   7.574 -0.1404  0.0148  0.2419
 1088ERGO    C115325  10.341  16.355   7.821 -0.1804  0.2199  0.1137
 1088ERGO    C215326  10.230  16.317   8.166 -0.1394  0.1174  0.1689
 1089ERGO   ROH15327  16.467  17.190   6.680 -0.0688 -0.1124 -0.1197
 1089ERGO    R115328  16.322  17.307   6.893  0.0074  0.0391 -0.1501
 1089ERGO    R215329  16.049  17.273   6.923  0.0024  0.1486 -0.0886
 1089ERGO    R315330  16.120  17.188   7.172  0.0113  0.2425 -0.0582
 1089ERGO    R415331  15.834  17.256   7.193 -0.0660 -0.0238 -0.1526
 1089ERGO    R515332  15.996  17.331   7.320 -0.1707  0.1455 -0.1113
 1089ERGO    C115333  15.775  17.166   7.584 -0.0975 -0.0360 -0.1614
 1089ERGO    C215334  15.664  17.162   7.836 -0.0900  0.2170 -0.1028
 1090ERGO   ROH15335  12.030  13.112   6.659 -0.2573  0.2101  0.1465
 1090ERGO    R115336  12.154  13.018   6.896 -0.1737  0.3010  0.1394
 1090ERGO    R215337  12.125  13.146   7.139 -0.3610  0.2079  0.1667
 1090ERGO    R315338  12.045  12.899   7.222 -0.0743  0.0868  0.0968
 1090ERGO    R415339  12.104  13.046   7.470 -0.3588  0.1321  0.1441
 1090ERGO    R515340  12.184  12.852   7.411 -0.0818  0.2414  0.1439
 1090ERGO    C115341  12.016  12.757   7.740 -0.0884 -0.0256  0.0653
 1090ERGO    C215342  11.910  12.715   8.054  0.0621  0.1264  0.1046
 1091ERGO   ROH15343   4.351   4.146   8.320  0.0438 -0.1391 -0.2162
 1091ERGO    R115344   4.491   3.911   8.249  0.0273 -0.2058 -0.0296
 1091ERGO    R215345   4.743   3.917   8.137 -0.0334 -0.3038 -0.1562
 1091ERGO    R315346   4.804   3.750   8.343  0.0865 -0.0828 -0.0067
 1091ERGO    R415347   5.008   3.695   8.139 -0.0178 -0.2865 -0.0736
 1091ERGO    R515348   4.878   3.549   8.236  0.0368 -0.1963  0.1577
 1091ERGO    C115349   5.220   3.410   8.334  0.1039 -0.0690  0.1147
 1091ERGO    C215350   5.499   3.246   8.495  0.0095 -0.0070  0.3045
 1092ERGO   ROH15351   6.388   8.475   6.711 -0.0481  0.0547 -0.1037
 1092ERGO    R115352   6.188   8.499   6.911  0.0176  0.0695 -0.0405
 1092ERGO    R215353   6.107   8.286   7.067  0.1038  0.0937  0.0333
 1092ERGO    R315354   6.169   8.455   7.271  0.1473  0.1474 -0.0225
 1092ERGO    R415355   6.056   8.218   7.402  0.4922  0.0339  0.0866
 1092ERGO    R515356   5.991   8.424   7.429  0.3243 -0.0237  0.1518
 1092ERGO    C115357   6.083   8.336   7.788  0.7591  0.0494  0.0654
 1092ERGO    C215358   6.180   8.495   8.162 -0.2955 -0.1310 -0.0810
 1093ERGO   ROH15359   1.240   4.705   6.763 -0.0009 -0.0646  0.0174
 1093ERGO    R115360   1.211   4.645   7.038  0.1457 -0.1166  0.0219
 1093ERGO    R215361   1.420   4.550   7.192  0.2713  0.0162 -0.0684
 1093ERGO    R315362   1.355   4.761   7.351  0.1794 -0.0485 -0.0178
 1093ERGO    R415363   1.480   4.569   7.532  0.1233 -0.1080 -0.0335
 1093ERGO    R515364   1.286   4.663   7.557  0.0991 -0.1370 -0.0835
 1093ERGO    C115365   1.455   4.779   7.878 -0.0492 -0.2410  0.0345
 1093ERGO    C215366   1.550   4.709   8.266  0.0571 -0.1148 -0.1183
 1094ERGO   ROH15367   9.222   6.423   6.900 -0.2104  0.1890  0.1836
 1094ERGO    R115368   9.131   6.274   7.123 -0.0179 -0.1376  0.0523
 1094ERGO    R215369   9.231   6.025   7.187  0.4641  0.0145 -0.0547
 1094ERGO    R315370   9.276   6.140   7.429  0.1174 -0.0300  0.0346
 1094ERGO    R415371   9.295   5.853   7.479  0.4512 -0.0234 -0.0748
 1094ERGO    R515372   9.168   5.994   7.585  0.1804 -0.2352 -0.1146
 1094ERGO    C115373   9.374   5.861   7.877  0.1181 -0.0873 -0.0028
 1094ERGO    C215374   9.426   5.590   8.147 -0.2127  0.1519  0.0467
 1095ERGO   ROH15375  13.743   2.653   6.667  0.1332 -0.2636  0.2467
 1095ERGO    R115376  13.546   2.678   6.868  0.0551 -0.0432  0.1480
 1095ERGO    R215377  13.485   2.472   7.042 -0.2522  0.0252  0.1342
 1095ERGO    R315378  13.536   2.660   7.232 -0.1416 -0.0143  0.1434
 1095ERGO    R415379  13.352   2.470   7.362 -0.1266  0.0170  0.1862
 1095ERGO    R515380  13.327   2.687   7.346 -0.0858  0.0183  0.2286
 1095ERGO    C115381  13.324   2.646   7.726  0.0502 -0.0249  0.2251
 1095ERGO    C215382  13.321   2.739   8.096  0.2408  0.0767  0.0167
 1096ERGO   ROH15383   2.048   5.830   6.628  0.1874 -0.2144  0.0156
 1096ERGO    R115384   2.129   5.743   6.885  0.0439 -0.1749  0.0753
 1096ERGO    R215385   2.256   5.909   7.065  0.0235 -0.1712  0.0876
 1096ERGO    R315386   2.054   5.832   7.229 -0.0775 -0.0562  0.0192
 1096ERGO    R415387   2.269   5.919   7.410 -0.0020 -0.3912  0.0959
 1096ERGO    R515388   2.165   5.727   7.414 -0.2075 -0.2859 -0.0302
 1096ERGO    C115389   2.087   5.852   7.766 -0.1117 -0.4115  0.0365
 1096ERGO    C215390   2.035   5.787   8.072  0.0866 -0.1701  0.0472
 1097ERGO   ROH15391  16.130  16.306   6.381  0.1622 -0.0639 -0.0542
 1097ERGO    R115392  16.101  16.296   6.662  0.2181 -0.1381 -0.0499
 1097ERGO    R215393  16.255  16.131   6.822  0.4112 -0.0157 -0.0990
 1097ERGO    R315394  16.311  16.363   6.952  0.2033  0.0231 -0.0774
 1097ERGO    R415395  16.429  16.153   7.120  0.4923  0.1285 -0.1569
 1097ERGO    R515396  16.289  16.308   7.184  0.3470 -0.0383 -0.0813
 1097ERGO    C115397  16.583  16.384   7.415  0.3442  0.2485 -0.1703
 1097ERGO    C215398  16.865  16.358   7.569 -0.2007  0.3480 -0.1002
 1098ERGO   ROH15399  14.574   4.257   6.422 -0.0873  0.0952 -0.0146
 1098ERGO    R115400  14.647   4.155   6.676 -0.0448  0.0541 -0.0439
 1098ERGO    R215401  14.828   4.283   6.841 -0.0399  0.0401 -0.0439
 1098ERGO    R315402  14.625   4.266   7.022 -0.0129 -0.0170 -0.0178
 1098ERGO    R415403  14.869   4.224   7.179  0.0630  0.4989  0.0315
 1098ERGO    R515404  14.694   4.093   7.173  0.2325  0.2488  0.1903
 1098ERGO    C115405  14.703   4.173   7.546  0.1482  0.7123  0.1000
 1098ERGO    C215406  14.668   4.182   7.849  0.2220  0.1125 -0.1671
 1099ERGO   ROH15407  15.375   6.072   6.553  0.0118 -0.1287 -0.0151
 1099ERGO    R115408  15.504   6.084   6.805  0.0513 -0.2605 -0.0284
 1099ERGO    R215409  15.402   6.228   7.017  0.2574 -0.0935 -0.0406
 1099ERGO    R315410  15.424   5.991   7.147 -0.0427 -0.1069 -0.0075
 1099ERGO    R415411  15.483   6.192   7.351  0.4216 -0.1522 -0.0855
 1099ERGO    R515412  15.607   6.022   7.298  0.1130 -0.3705 -0.1350
 1099ERGO    C115413  15.550   5.948   7.668  0.2355 -0.1990 -0.0806
 1099ERGO    C215414  15.648   5.849   7.937  0.0742 -0.1240  0.2123
 1100ERGO   ROH15415  16.232   9.752   6.733 -0.0920 -0.0487 -0.1071
 1100ERGO    R115416  16.330   9.618   6.962 -0.0264  0.0432 -0.0827
 1100ERGO    R215417  16.430   9.751   7.182 -0.1191  0.1323 -0.1039
 1100ERGO    R315418  16.246   9.602   7.316 -0.0343  0.0429 -0.0824
 1100ERGO    R415419  16.389   9.751   7.525 -0.1259  0.1826 -0.1030
 1100ERGO    R515420  16.360   9.535   7.516  0.0083  0.1545 -0.0617
 1100ERGO    C115421  16.192   9.610   7.850 -0.0501  0.1281 -0.0824
 1100ERGO    C215422  16.020   9.600   8.091  0.0780 -0.1192 -0.2600
 1101ERGO   ROH15423   7.287  11.890   6.651  0.0220  0.0209  0.0096
 1101ERGO    R115424   7.301  11.730   6.885 -0.1328  0.0250  0.0220
 1101ERGO    R215425   7.439  11.809   7.111 -0.0827 -0.0772  0.0258
 1101ERGO    R315426   7.201  11.763   7.233 -0.1327  0.1350  0.0124
 1101ERGO    R415427   7.402  11.699   7.436 -0.1984 -0.0256  0.0309
 1101ERGO    R515428   7.240  11.570   7.369 -0.3065  0.1078  0.0277
 1101ERGO    C115429   7.157  11.592   7.741 -0.3126  0.2037  0.0214
 1101ERGO    C215430   7.002  11.622   8.105  0.3438  0.1371  0.0025
 1102ERGO   ROH15431   2.080  16.450   6.700 -0.2425  0.0243 -0.1044
 1102ERGO    R115432   1.938  16.502   6.939 -0.1152  0.1963 -0.0652
 1102ERGO    R215433   2.001  16.381   7.179 -0.2510  0.0503 -0.1068
 1102ERGO    R315434   2.015  16.637   7.268  0.1599  0.0159 -0.0509
 1102ERGO    R415435   1.976  16.476   7.510 -0.4031  0.0278 -0.1103
 1102ERGO    R515436   1.856  16.646   7.447 -0.0148  0.2852 -0.2085
 1102ERGO    C115437   1.975  16.772   7.787 -0.1059 -0.0176 -0.0599
 1102ERGO    C215438   2.044  16.714   8.143 -0.0913 -0.0712 -0.0428
 1103ERGO   ROH15439   0.269   9.936   6.782  0.3215  0.4732  0.2180
 1103ERGO    R115440   0.215   9.769   7.004 -0.0078  0.2491 -0.0207
 1103ERGO    R215441   0.287   9.837   7.262  0.1036 -0.2484  0.0902
 1103ERGO    R315442   0.023   9.793   7.313  0.0096  0.1701 -0.0040
 1103ERGO    R415443   0.155   9.762   7.573 -0.1132 -0.1603  0.0210
 1103ERGO    R515444   0.022   9.618   7.476 -0.3299  0.0990 -0.0762
 1103ERGO    C115445  -0.169   9.677   7.801 -0.3277  0.2838 -0.1078
 1103ERGO    C215446  -0.197   9.611   8.065  0.0043 -0.0342 -0.1377
 1104ERGO   ROH15447   0.374   1.377   6.199 -0.1263  0.3217 -0.0311
 1104ERGO    R115448   0.458   1.335   6.467 -0.0102  0.3677 -0.0603
 1104ERGO    R215449   0.427   1.526   6.664 -0.2015  0.2880 -0.0154
 1104ERGO    R315450   0.300   1.324   6.794  0.0798  0.1002 -0.0226
 1104ERGO    R415451   0.426   1.483   7.007 -0.2086  0.3287 -0.0098
 1104ERGO    R515452   0.448   1.268   6.975  0.1337  0.3507  0.0176
 1104ERGO    C115453   0.306   1.269   7.329  0.0514  0.1762 -0.0132
 1104ERGO    C215454   0.208   1.413   7.670 -0.0395  0.0008  0.0529
 1105ERGO   ROH15455   4.088  11.201   6.396 -0.2847  0.0619  0.0937
 1105ERGO    R115456   4.050  11.224   6.676 -0.1770  0.0133  0.1129
 1105ERGO    R215457   3.981  11.009   6.835  0.0027 -0.0394  0.1216
 1105ERGO    R315458   4.201  11.084   6.976  0.0249  0.0603  0.0349
 1105ERGO    R415459   4.049  10.916   7.161  0.0587  0.1805  0.1740
 1105ERGO    R515460   4.121  11.118   7.199  0.0612  0.2084  0.0264
 1105ERGO    C115461   4.295  10.933   7.483  0.1123  0.4021  0.1232
 1105ERGO    C215462   4.481  10.973   7.674  0.2385 -0.1689  0.0482
 1106ERGO   ROH15463   1.211   5.901   6.485 -0.0125  0.0550 -0.0403
 1106ERGO    R115464   1.172   6.090   6.692  0.0345  0.0717 -0.0471
 1106ERGO    R215465   1.034   6.031   6.924  0.0333  0.1095 -0.0395
 1106ERGO    R315466   1.262   6.119   7.044  0.0557  0.0701 -0.0521
 1106ERGO    R415467   1.079   6.062   7.265  0.0922  0.0030 -0.0369
 1106ERGO    R515468   1.185   6.249   7.230  0.0884  0.0139  0.0021
 1106ERGO    C115469   1.318   6.162   7.577  0.1474 -0.0960 -0.0472
 1106ERGO    C215470   1.289   6.235   7.928 -0.3192 -0.1228  0.1194
 1107ERGO   ROH15471   8.489   1.689   8.650  0.0369 -0.3180  0.0286
 1107ERGO    R115472   8.444   1.605   8.916 -0.0018 -0.2187  0.0541
 1107ERGO    R215473   8.637   1.476   9.066 -0.0157 -0.1440  0.1384
 1107ERGO    R315474   8.587   1.676   9.243 -0.0644 -0.0789  0.0515
 1107ERGO    R415475   8.673   1.450   9.409  0.0042  0.0192  0.1492
 1107ERGO    R515476   8.490   1.565   9.432 -0.0264 -0.0215  0.1044
 1107ERGO    C115477   8.647   1.623   9.775 -0.0299  0.1753  0.0739
 1107ERGO    C215478   8.760   1.701  10.114 -0.1566 -0.1266  0.1120
 1108ERGO   ROH15479  15.152   0.854   6.616  0.1145  0.2028 -0.0393
 1108ERGO    R115480  15.127   0.986   6.865 -0.1676  0.0909 -0.0043
 1108ERGO    R215481  14.930   0.923   7.049 -0.1326 -0.2676 -0.0870
 1108ERGO    R315482  15.141   0.893   7.216 -0.1377  0.0042 -0.0272
 1108ERGO    R415483  14.907   0.869   7.389 -0.1853 -0.5941 -0.1388
 1108ERGO    R515484  15.075   1.004   7.417 -0.4479 -0.2819  0.0419
 1108ERGO    C115485  15.093   0.810   7.745 -0.2209 -0.5291 -0.1129
 1108ERGO    C215486  15.106   0.513   7.987  0.1949 -0.0647  0.1225
 1109ERGO   ROH15487   5.204  12.220   6.141  0.0199  0.1403  0.0804
 1109ERGO    R115488   5.164  12.078   6.382 -0.3397  0.1315  0.0216
 1109ERGO    R215489   5.340  12.094   6.595 -0.3102 -0.3648  0.0456
 1109ERGO    R315490   5.115  12.161   6.733 -0.1771  0.1147  0.0493
 1109ERGO    R415491   5.328  12.160   6.934 -0.1650 -0.3326  0.0453
 1109ERGO    R515492   5.140  12.051   6.944 -0.4047  0.0600  0.0509
 1109ERGO    C115493   5.111  12.260   7.261  0.0445  0.1364  0.0485
 1109ERGO    C215494   5.275  12.397   7.548  0.0355  0.0467 -0.2087
 1110ERGO   ROH15495  13.587  15.363  10.054  0.2522  0.1102  0.0773
 1110ERGO    R115496  13.579  15.379   9.772  0.0845  0.0510  0.0771
 1110ERGO    R215497  13.473  15.597   9.638  0.0947  0.0685  0.0943
 1110ERGO    R315498  13.716  15.599   9.516  0.0219 -0.0637 -0.0552
 1110ERGO    R415499  13.542  15.757   9.340  0.0415  0.1767  0.1400
 1110ERGO    R515500  13.664  15.586   9.282 -0.1341  0.1075 -0.0314
 1110ERGO    C115501  13.810  15.853   9.051 -0.0580  0.1155  0.0264
 1110ERGO    C215502  13.881  15.961   8.770 -0.3977  0.2082  0.1502
 1111ERGO   ROH15503   1.905   7.208   6.745 -0.0346  0.3609 -0.0622
 1111ERGO    R115504   1.860   7.279   7.016 -0.2181  0.0369 -0.0025
 1111ERGO    R215505   1.705   7.127   7.186  0.2051 -0.5384 -0.1004
 1111ERGO    R315506   1.927   7.132   7.342  0.2169 -0.0379 -0.1179
 1111ERGO    R415507   1.714   7.240   7.512 -0.0228 -0.5103 -0.1018
 1111ERGO    R515508   1.905   7.334   7.469 -0.2282 -0.0748 -0.1178
 1111ERGO    C115509   1.928   7.310   7.849 -0.1443 -0.0241 -0.1191
 1111ERGO    C215510   1.908   7.345   8.119  0.0248 -0.1218  0.0148
 1112ERGO   ROH15511  17.193   4.215   6.388  0.0455  0.0630 -0.0852
 1112ERGO    R115512  17.094   4.154   6.646  0.0478  0.0333 -0.0914
 1112ERGO    R215513  17.256   4.056   6.848  0.0830  0.1675 -0.0544
 1112ERGO    R315514  17.155   4.267   6.986 -0.0771  0.1210 -0.0970
 1112ERGO    R415515  17.263   4.088   7.192  0.2954  0.3566 -0.0743
 1112ERGO    R515516  17.061   4.170   7.184  0.1842  0.1055  0.0254
 1112ERGO    C115517  17.173   4.305   7.522  0.2686  0.4231 -0.1259
 1112ERGO    C215518  17.193   4.367   7.823 -0.3823  0.2277  0.0420
 1113ERGO   ROH15519  14.727   4.771   8.491 -0.0055 -0.3359 -0.1071
 1113ERGO    R115520  14.766   4.619   8.726 -0.1132 -0.3494 -0.0980
 1113ERGO    R215521  14.970   4.670   8.905 -0.0128 -0.5487 -0.1543
 1113ERGO    R315522  14.766   4.681   9.085  0.0425 -0.3056 -0.1055
 1113ERGO    R415523  15.008   4.654   9.249  0.0527 -0.5925 -0.1631
 1113ERGO    R515524  14.830   4.528   9.257 -0.0968 -0.3827 -0.1210
 1113ERGO    C115525  14.839   4.655   9.617  0.1428 -0.3899 -0.1225
 1113ERGO    C215526  14.878   4.613  10.009  0.0632  0.1308  0.1323
 1114ERGO   ROH15527   5.550   2.021   6.575  0.0839  0.0408 -0.1377
 1114ERGO    R115528   5.687   2.154   6.784  0.0134 -0.0077 -0.0603
 1114ERGO    R215529   5.556   2.276   6.994 -0.0545 -0.1325 -0.0299
 1114ERGO    R315530   5.717   2.117   7.145 -0.0338 -0.1498 -0.0699
 1114ERGO    R415531   5.583   2.293   7.338 -0.0625 -0.2180 -0.0249
 1114ERGO    R515532   5.798   2.262   7.318 -0.0568 -0.1823 -0.0306
 1114ERGO    C115533   5.750   2.153   7.680 -0.0478 -0.2841 -0.0596
 1114ERGO    C215534   5.844   2.114   7.981 -0.1727 -0.1504  0.0305
 1115ERGO   ROH15535  15.099  10.649   6.906 -0.0185 -0.0924  0.0038
 1115ERGO    R115536  14.996  10.543   7.148  0.0564 -0.0792  0.0406
 1115ERGO    R215537  15.069  10.296   7.246  0.0404 -0.0955 -0.0027
 1115ERGO    R315538  15.130  10.438   7.470  0.1612 -0.1233 -0.0155
 1115ERGO    R415539  15.040  10.177   7.569 -0.0121 -0.0648  0.0048
 1115ERGO    R515540  14.963  10.373   7.628  0.1262 -0.0034  0.0035
 1115ERGO    C115541  15.079  10.242   7.967  0.0708 -0.0729 -0.0027
 1115ERGO    C215542  15.273  10.233   8.233 -0.1265  0.0321  0.0525
 1116ERGO   ROH15543   8.649  16.384   6.601  0.2026  0.3445  0.0185
 1116ERGO    R115544   8.459  16.428   6.806  0.1629  0.1056  0.0350
 1116ERGO    R215545   8.490  16.327   7.061  0.3656  0.2279  0.0597
 1116ERGO    R315546   8.455  16.586   7.133 -0.0353  0.2006 -0.0115
 1116ERGO    R415547   8.408  16.434   7.379  0.3035  0.1927  0.0561
 1116ERGO    R515548   8.274  16.581   7.290  0.0248 -0.0500  0.0558
 1116ERGO    C115549   8.329  16.741   7.633 -0.1090  0.1468 -0.0129
 1116ERGO    C215550   8.264  16.848   8.028 -0.3692 -0.1420 -0.1755
 1117ERGO   ROH15551  15.963   7.504   6.591  0.1392  0.0776  0.2005
 1117ERGO    R115552  15.849   7.349   6.798  0.0187 -0.0890  0.0139
 1117ERGO    R215553  15.861   7.423   7.064  0.0618 -0.4104  0.1114
 1117ERGO    R315554  15.591   7.393   7.051  0.0416 -0.1994  0.0540
 1117ERGO    R415555  15.660   7.334   7.331 -0.0968 -0.1158  0.0938
 1117ERGO    R515556  15.545   7.207   7.195 -0.1571 -0.0869  0.1313
 1117ERGO    C115557  15.289   7.254   7.474 -0.2081  0.2539  0.0297
 1117ERGO    C215558  15.132   7.080   7.725 -0.0846  0.0938 -0.6513
 1118ERGO   ROH15559   0.944  12.406   6.693 -0.4971 -0.1213  0.0055
 1118ERGO    R115560   0.818  12.458   6.941 -0.4738 -0.2944  0.0541
 1118ERGO    R215561   0.796  12.267   7.140 -0.0855 -0.3108  0.0829
 1118ERGO    R315562   0.914  12.460   7.291 -0.3217 -0.1042  0.0139
 1118ERGO    R415563   0.750  12.308   7.480  0.0587 -0.4119  0.1162
 1118ERGO    R515564   0.746  12.523   7.449 -0.3409 -0.4075  0.1254
 1118ERGO    C115565   0.835  12.512   7.820 -0.0790 -0.2768  0.0709
 1118ERGO    C215566   1.059  12.633   8.183 -0.1764 -0.0904  0.0417
 1119ERGO   ROH15567   8.177  15.032   6.336  0.1537 -0.1786  0.0681
 1119ERGO    R115568   8.123  15.136   6.594  0.2329  0.0118  0.0113
 1119ERGO    R215569   7.995  14.988   6.790 -0.0034  0.2626  0.0588
 1119ERGO    R315570   8.214  15.053   6.937  0.0567  0.0452  0.0660
 1119ERGO    R415571   8.004  15.006   7.135  0.0830 -0.0017  0.0719
 1119ERGO    R515572   8.129  15.184   7.118  0.1625 -0.0517  0.1832
 1119ERGO    C115573   8.215  15.077   7.473  0.1898 -0.3598  0.0862
 1119ERGO    C215574   8.223  14.994   7.888 -0.2925  0.0131 -0.1176
 1120ERGO   ROH15575   6.077   6.721   6.730 -0.1459  0.1471  0.1249
 1120ERGO    R115576   6.031   6.636   6.996 -0.1140  0.1360  0.1268
 1120ERGO    R215577   6.224   6.652   7.193 -0.0887  0.1219  0.1023
 1120ERGO    R315578   6.031   6.789   7.326 -0.0680  0.1203  0.1344
 1120ERGO    R415579   6.228   6.719   7.532 -0.0955  0.0102  0.1250
 1120ERGO    R515580   6.014   6.677   7.538 -0.1055  0.0542  0.0973
 1120ERGO    C115581   6.049   6.886   7.855 -0.0800 -0.0563  0.1683
 1120ERGO    C215582   6.163   7.081   8.070  0.1920 -0.4503  0.1960
 1121ERGO   ROH15583   9.735   7.689   7.190  0.0978  0.3153  0.0929
 1121ERGO    R115584   9.832   7.483   7.357 -0.1002  0.1564  0.0160
 1121ERGO    R215585  10.048   7.518   7.526  0.0974 -0.1900 -0.1571
 1121ERGO    R315586   9.873   7.431   7.715  0.1033  0.0959 -0.0144
 1121ERGO    R415587  10.097   7.544   7.867  0.4593 -0.3278 -0.1948
 1121ERGO    R515588  10.013   7.344   7.889  0.1128 -0.1866 -0.1548
 1121ERGO    C115589   9.962   7.477   8.243  0.6756 -0.1397 -0.0827
 1121ERGO    C215590   9.959   7.499   8.587  0.4633  0.0055  0.1471
 1122ERGO   ROH15591   1.805  13.468   6.417  0.1106 -0.0588  0.0375
 1122ERGO    R115592   1.806  13.392   6.690 -0.1742 -0.0044  0.0562
 1122ERGO    R215593   2.034  13.401   6.846 -0.2545 -0.3180  0.1922
 1122ERGO    R315594   1.877  13.552   7.008 -0.1277 -0.0436  0.0670
 1122ERGO    R415595   2.130  13.523   7.154 -0.1973 -0.2792  0.1599
 1122ERGO    R515596   1.931  13.477   7.229 -0.2849 -0.0027  0.1236
 1122ERGO    C115597   2.038  13.737   7.487 -0.0449  0.0009  0.0236
 1122ERGO    C215598   2.087  13.696   7.757 -0.5283 -0.1481 -0.2862
 1123ERGO   ROH15599  11.377   5.528   6.907 -0.1090 -0.0749 -0.0554
 1123ERGO    R115600  11.334   5.343   7.116 -0.1246 -0.0016  0.0065
 1123ERGO    R215601  11.489   5.336   7.344 -0.0526 -0.0128 -0.0431
 1123ERGO    R315602  11.250   5.358   7.470 -0.0026  0.1279  0.0305
 1123ERGO    R415603  11.439   5.283   7.682 -0.0031 -0.0906 -0.0472
 1123ERGO    R515604  11.252   5.182   7.632 -0.0945  0.0697 -0.0315
 1123ERGO    C115605  11.184   5.273   7.997  0.0726 -0.0039  0.0196
 1123ERGO    C215606  11.235   5.540   8.250 -0.3628 -0.1101  0.0455
 1124ERGO   ROH15607  17.441   6.285   6.487 -0.2294  0.5333 -0.0758
 1124ERGO    R115608  17.385   6.358   6.755 -0.1941  0.2311  0.0157
 1124ERGO    R215609  17.259   6.187   6.933  0.0658 -0.0666 -0.0845
 1124ERGO    R315610  17.478   6.238   7.085  0.0763  0.0292 -0.1285
 1124ERGO    R415611  17.271   6.164   7.277  0.1483 -0.0839 -0.0870
 1124ERGO    R515612  17.392   6.344   7.281  0.0645 -0.0229 -0.1022
 1124ERGO    C115613  17.483   6.197   7.621  0.2065 -0.0040 -0.1296
 1124ERGO    C215614  17.530   6.141   7.941  0.0089 -0.0004  0.1967
 1125ERGO   ROH15615   2.447   4.569   6.817 -0.1441 -0.1348  0.0659
 1125ERGO    R115616   2.433   4.687   7.074 -0.0493 -0.0855  0.0475
 1125ERGO    R215617   2.286   4.578   7.281  0.0357 -0.0474  0.1206
 1125ERGO    R315618   2.522   4.592   7.414  0.0827 -0.0124  0.0363
 1125ERGO    R415619   2.323   4.533   7.622  0.1159  0.1762  0.1433
 1125ERGO    R515620   2.467   4.697   7.622  0.1626  0.1491 -0.0155
 1125ERGO    C115621   2.567   4.521   7.945  0.2067  0.3392  0.0772
 1125ERGO    C215622   2.655   4.383   8.312 -0.1521 -0.2117  0.1510
 1126ERGO   ROH15623   0.508  13.511   6.617 -0.0479 -0.0046  0.0536
 1126ERGO    R115624   0.603  13.499   6.884  0.0053 -0.0699  0.0330
 1126ERGO    R215625   0.494  13.651   7.087  0.1661  0.0219  0.0593
 1126ERGO    R315626   0.465  13.409   7.209  0.0084  0.0429  0.0640
 1126ERGO    R415627   0.451  13.604   7.427  0.1763  0.0435  0.0629
 1126ERGO    R515628   0.584  13.432   7.415  0.0480 -0.0483  0.0465
 1126ERGO    C115629   0.399  13.350   7.739  0.0343  0.0758  0.0694
 1126ERGO    C215630   0.218  13.442   8.033 -0.0375  0.2747  0.1245
 1127ERGO   ROH15631  17.341  14.176   6.720  0.0216 -0.0956  0.0589
 1127ERGO    R115632  17.286  14.122   6.992  0.2338 -0.2238  0.0782
 1127ERGO    R215633  17.485  14.090   7.180  0.3783  0.1210 -0.0138
 1127ERGO    R315634  17.349  14.285   7.312  0.0744 -0.1356  0.0676
 1127ERGO    R415635  17.524  14.166   7.515  0.6157  0.3320 -0.0861
 1127ERGO    R515636  17.308  14.193   7.529  0.5504 -0.1637  0.1608
 1127ERGO    C115637  17.420  14.394   7.833  0.4688  0.2139 -0.0519
 1127ERGO    C215638  17.399  14.563   8.012 -0.0933 -0.0152 -0.1424
 1128ERGO   ROH15639   6.904  17.349   6.637 -0.0670 -0.0742 -0.0284
 1128ERGO    R115640   6.836  17.388   6.909  0.0974 -0.0480  0.0091
 1128ERGO    R215641   6.638  17.243   7.036  0.0569  0.0843  0.0934
 1128ERGO    R315642   6.836  17.188   7.214  0.1067 -0.0735 -0.0069
 1128ERGO    R415643   6.588  17.130   7.359  0.1274  0.1595  0.1318
 1128ERGO    R515644   6.749  17.262   7.424  0.2817  0.0265  0.0345
 1128ERGO    C115645   6.745  17.013   7.714  0.2151  0.0554  0.0601
 1128ERGO    C215646   6.787  16.954   8.026 -0.2324 -0.0671  0.1403
 1129ERGO   ROH15647  15.224   9.785  10.687  0.0103  0.2279 -0.0037
 1129ERGO    R115648  15.175   9.833  10.412  0.1015  0.1666 -0.0311
 1129ERGO    R215649  15.378   9.847  10.226  0.1579  0.0305  0.0161
 1129ERGO    R315650  15.232   9.656  10.099  0.1143  0.0505  0.0366
 1129ERGO    R415651  15.357   9.810   9.883  0.0063  0.1062  0.0167
 1129ERGO    R515652  15.144   9.767   9.906  0.0206  0.0876  0.1011
 1129ERGO    C115653  15.207   9.608   9.564 -0.1229  0.1691  0.0363
 1129ERGO    C215654  15.150   9.532   9.240  0.0602 -0.0209 -0.1543
 1130ERGO   ROH15655  16.385   4.656   6.504  0.3780  0.2041  0.1380
 1130ERGO    R115656  16.257   4.642   6.756  0.2583  0.1250  0.0726
 1130ERGO    R215657  16.280   4.424   6.923  0.1949  0.0862  0.0202
 1130ERGO    R315658  16.359   4.611   7.104  0.0895  0.0392  0.1178
 1130ERGO    R415659  16.147   4.460   7.240  0.0997 -0.1061  0.0041
 1130ERGO    R515660  16.156   4.676   7.214  0.0306 -0.0826  0.0967
 1130ERGO    C115661  16.144   4.656   7.594 -0.0548 -0.2621  0.0864
 1130ERGO    C215662  16.321   4.658   7.890 -0.0923  0.1126 -0.0065
 1131ERGO   ROH15663   9.512   2.645   6.663 -0.0519 -0.2345 -0.2256
 1131ERGO    R115664   9.403   2.495   6.877 -0.1545 -0.0732 -0.1644
 1131ERGO    R215665   9.560   2.364   7.063 -0.2443 -0.2014 -0.1854
 1131ERGO    R315666   9.413   2.507   7.241 -0.0434 -0.0094 -0.1675
 1131ERGO    R415667   9.578   2.330   7.406 -0.2239 -0.2169 -0.1872
 1131ERGO    R515668   9.361   2.351   7.415 -0.2071  0.0510 -0.1540
 1131ERGO    C115669   9.450   2.446   7.774 -0.0233 -0.0457 -0.1714
 1131ERGO    C215670   9.471   2.391   8.121  0.0840 -0.1087 -0.1678
 1132ERGO   ROH15671   8.977   9.539   6.468 -0.2959 -0.3516  0.0366
 1132ERGO    R115672   9.180   9.503   6.662 -0.2023 -0.2414 -0.0401
 1132ERGO    R215673   9.302   9.715   6.791 -0.2116 -0.1729 -0.1460
 1132ERGO    R315674   9.225   9.580   7.014 -0.0742 -0.1394 -0.0775
 1132ERGO    R415675   9.398   9.795   7.113 -0.0939 -0.0598 -0.2084
 1132ERGO    R515676   9.420   9.583   7.155 -0.0118 -0.0444 -0.1627
 1132ERGO    C115677   9.383   9.716   7.510  0.1034  0.0376 -0.1804
 1132ERGO    C215678   9.313   9.834   7.817  0.0135 -0.0792  0.1244
 1133ERGO   ROH15679  11.581  11.760   6.516  0.2599  0.0262 -0.0042
 1133ERGO    R115680  11.664  11.915   6.738  0.1959 -0.0721  0.0872
 1133ERGO    R215681  11.487  12.004   6.931  0.1334 -0.1021  0.0327
 1133ERGO    R315682  11.661  11.881   7.100  0.0275 -0.1953  0.0777
 1133ERGO    R415683  11.528  12.085   7.264  0.1396 -0.0626  0.0240
 1133ERGO    R515684  11.743  12.058   7.240  0.1321 -0.2183  0.0555
 1133ERGO    C115685  11.714  12.017   7.618  0.0438 -0.1271  0.0612
 1133ERGO    C215686  11.949  11.971   7.935 -0.3808  0.1048  0.1541
 1134ERGO   ROH15687  16.532  16.342   8.781 -0.1076 -0.0398 -0.1880
 1134ERGO    R115688  16.402  16.369   9.031  0.0059 -0.1218 -0.1199
 1134ERGO    R215689  16.183  16.533   9.069  0.1114 -0.0228  0.0665
 1134ERGO    R315690  16.070  16.306   9.166  0.0223 -0.0201 -0.0280
 1134ERGO    R415691  15.864  16.511   9.200  0.1606  0.0873  0.2078
 1134ERGO    R515692  15.942  16.378   9.354  0.1584 -0.0631  0.0845
 1134ERGO    C115693  15.572  16.285   9.368  0.1057  0.1535  0.2013
 1134ERGO    C215694  15.339  16.275   9.649 -0.0105 -0.1595  0.2049
 1135ERGO   ROH15695   7.165   6.787   7.058 -0.1776  0.1105  0.1216
 1135ERGO    R115696   7.239   6.584   7.241 -0.1910  0.0372  0.0458
 1135ERGO    R215697   7.463   6.425   7.204 -0.1835  0.0596  0.0039
 1135ERGO    R315698   7.525   6.512   7.454 -0.2117 -0.0430  0.0474
 1135ERGO    R415699   7.759   6.357   7.369 -0.1574  0.0783 -0.0349
 1135ERGO    R515700   7.645   6.329   7.552 -0.1474 -0.0531 -0.0458
 1135ERGO    C115701   7.990   6.399   7.699 -0.1687 -0.0072 -0.0166
 1135ERGO    C215702   8.203   6.113   7.854 -0.4385 -0.1412 -0.1608
 1136ERGO   ROH15703  10.347   5.037   6.930 -0.2364  0.0998  0.2077
 1136ERGO    R115704  10.195   5.087   7.164 -0.4062 -0.0196  0.1243
 1136ERGO    R215705  10.032   4.895   7.279 -0.0583 -0.2622  0.2248
 1136ERGO    R315706  10.177   4.953   7.502 -0.2302  0.2069  0.2261
 1136ERGO    R415707   9.959   4.783   7.598  0.1071 -0.2158  0.2799
 1136ERGO    R515708  10.014   4.979   7.675 -0.3380 -0.0339  0.1661
 1136ERGO    C115709  10.053   4.772   7.992  0.0419  0.2516  0.3133
 1136ERGO    C215710   9.817   4.596   8.070 -0.0206 -0.0171 -0.0292
 1137ERGO   ROH15711   0.403   6.633   6.836  0.2648 -0.2946  0.0683
 1137ERGO    R115712   0.389   6.845   7.022  0.5024 -0.1720 -0.0487
 1137ERGO    R215713   0.191   6.861   7.215  0.2759  0.3575 -0.3050
 1137ERGO    R315714   0.403   6.881   7.384  0.1160 -0.0497 -0.0403
 1137ERGO    R415715   0.189   7.032   7.515  0.2024  0.2755 -0.2579
 1137ERGO    R515716   0.390   7.104   7.470  0.3876 -0.0457  0.0032
 1137ERGO    C115717   0.386   7.150   7.849  0.0095 -0.1544  0.0181
 1137ERGO    C215718   0.284   7.300   8.163 -0.1627  0.0967  0.2167
 1138ERGO   ROH15719  12.221   4.947   6.882  0.1791 -0.0184  0.0312
 1138ERGO    R115720  12.171   4.776   7.102 -0.0200 -0.0244 -0.0165
 1138ERGO    R215721  12.355   4.734   7.303 -0.0542 -0.3179 -0.0392
 1138ERGO    R315722  12.149   4.810   7.463  0.0493 -0.1049 -0.0051
 1138ERGO    R415723  12.356   4.714   7.648 -0.0289 -0.3467 -0.0416
 1138ERGO    R515724  12.149   4.648   7.640 -0.1040 -0.1190 -0.0188
 1138ERGO    C115725  12.163   4.774   8.000  0.0828 -0.1635 -0.0110
 1138ERGO    C215726  12.072   5.052   8.209  0.2708  0.2896 -0.0213
 1139ERGO   ROH15727  13.016  16.908   6.725 -0.1273  0.1750  0.1188
 1139ERGO    R115728  13.013  16.872   7.005  0.0187  0.0581  0.1065
 1139ERGO    R215729  13.160  16.676   7.132  0.0916  0.0156 -0.0514
 1139ERGO    R315730  13.255  16.886   7.277  0.1555 -0.0441 -0.0069
 1139ERGO    R415731  13.199  16.677   7.475  0.0736 -0.0825 -0.0494
 1139ERGO    R515732  13.125  16.882   7.478  0.1386 -0.0507 -0.0113
 1139ERGO    C115733  13.311  16.874   7.811  0.1232 -0.1955 -0.0064
 1139ERGO    C215734  13.306  16.764   8.032  0.0506 -0.1391 -0.0660
 1140ERGO   ROH15735   0.437  11.268   6.794 -0.3068 -0.3202  0.0248
 1140ERGO    R115736   0.523  11.147   7.035 -0.1191 -0.1738  0.0347
 1140ERGO    R215737   0.731  11.246   7.186 -0.1010  0.0088 -0.1061
 1140ERGO    R315738   0.547  11.242   7.385 -0.0029 -0.0169 -0.0150
 1140ERGO    R415739   0.797  11.160   7.514  0.0345 -0.1563 -0.1752
 1140ERGO    R515740   0.607  11.053   7.519  0.0014 -0.0953 -0.1278
 1140ERGO    C115741   0.662  11.106   7.892  0.2054 -0.2764 -0.1299
 1140ERGO    C215742   0.793  11.188   8.263  0.1698 -0.0430 -0.1369
 1141ERGO   ROH15743   8.981  16.979  10.081  0.0076  0.1464 -0.0626
 1141ERGO    R115744   8.950  16.858   9.827  0.3580  0.1058 -0.0911
 1141ERGO    R215745   8.756  16.938   9.648  0.0698 -0.4472 -0.0432
 1141ERGO    R315746   8.968  16.964   9.480 -0.0123  0.2685 -0.0665
 1141ERGO    R415747   8.732  17.000   9.308 -0.1947 -0.6253 -0.0610
 1141ERGO    R515748   8.896  16.859   9.277  0.3317 -0.0668 -0.0299
 1141ERGO    C115749   8.918  17.061   8.953 -0.4260 -0.0568 -0.0932
 1141ERGO    C215750   8.944  17.224   8.629  0.2783 -0.0798 -0.0575
 1142ERGO   ROH15751  10.158  11.540   6.551 -0.0059  0.1692 -0.0010
 1142ERGO    R115752  10.074  11.462   6.810  0.0725 -0.0910 -0.0518
 1142ERGO    R215753  10.243  11.335   6.988  0.2237  0.0177 -0.1157
 1142ERGO    R315754  10.170  11.539   7.153 -0.0513 -0.1684  0.0005
 1142ERGO    R415755  10.280  11.334   7.332  0.5145 -0.0066 -0.1442
 1142ERGO    R515756  10.084  11.429   7.348  0.3276 -0.3999  0.0461
 1142ERGO    C115757  10.233  11.524   7.687  0.4255 -0.1957 -0.0517
 1142ERGO    C215758  10.382  11.453   8.023  0.1307 -0.1274  0.1096
 1143ERGO   ROH15759   6.494   4.819   6.691  0.1554  0.1003  0.0201
 1143ERGO    R115760   6.488   4.893   6.964  0.0594 -0.0328  0.0554
 1143ERGO    R215761   6.427   5.150   7.047  0.1853 -0.0336  0.1493
 1143ERGO    R315762   6.241   5.022   7.199  0.0184  0.0133 -0.0124
 1143ERGO    R415763   6.259   5.291   7.314  0.1300 -0.0490  0.1230
 1143ERGO    R515764   6.280   5.102   7.421 -0.0503 -0.1151  0.0481
 1143ERGO    C115765   5.986   5.254   7.611 -0.0588 -0.0140 -0.0441
 1143ERGO    C215766   5.723   5.396   7.739  0.2041  0.1554  0.1238
 1144ERGO   ROH15767   4.335  10.822   6.325  0.0263  0.0159  0.0532
 1144ERGO    R115768   4.362  10.873   6.602 -0.0618  0.0066  0.0639
 1144ERGO    R215769   4.277  10.695   6.796  0.1723 -0.1484  0.0274
 1144ERGO    R315770   4.533  10.719   6.884  0.1383  0.1925  0.0470
 1144ERGO    R415771   4.380  10.645   7.122  0.2402 -0.2007 -0.0018
 1144ERGO    R515772   4.513  10.816   7.102 -0.0210  0.0235  0.1103
 1144ERGO    C115773   4.680  10.638   7.395  0.2479  0.0888 -0.0004
 1144ERGO    C215774   4.682  10.285   7.520  0.1978 -0.1358 -0.1315
 1145ERGO   ROH15775  12.089  10.785   6.663 -0.0308 -0.2425  0.1571
 1145ERGO    R115776  12.097  10.992   6.857  0.2173 -0.1163  0.0186
 1145ERGO    R215777  11.979  10.967   7.105  0.0480  0.2494 -0.0180
 1145ERGO    R315778  12.227  11.033   7.194  0.1226 -0.1044  0.0543
 1145ERGO    R415779  12.054  11.060   7.429 -0.0077  0.5663 -0.0932
 1145ERGO    R515780  12.189  11.212   7.349  0.3493  0.2007 -0.2245
 1145ERGO    C115781  12.331  11.177   7.701  0.0298  0.4188 -0.0691
 1145ERGO    C215782  12.565  11.252   7.839 -0.0870  0.2938  0.1300
 1146ERGO   ROH15783  14.950  11.570   6.908 -0.0534  0.0538  0.0454
 1146ERGO    R115784  15.127  11.722   7.069 -0.0025  0.1012 -0.0537
 1146ERGO    R215785  15.226  11.967   6.990 -0.0810  0.1119 -0.1270
 1146ERGO    R315786  15.124  12.050   7.228  0.0157  0.1173 -0.0877
 1146ERGO    R415787  15.343  12.237   7.172 -0.0343  0.1406 -0.1997
 1146ERGO    R515788  15.316  12.119   7.354  0.0624  0.1520 -0.1788
 1146ERGO    C115789  15.316  12.471   7.502  0.0837  0.1623 -0.2050
 1146ERGO    C215790  15.287  12.850   7.586 -0.5182  0.0927 -0.0102
 1147ERGO   ROH15791  16.516   0.608   6.187 -0.1448 -0.2683 -0.1396
 1147ERGO    R115792  16.479   0.693   6.454 -0.1381 -0.1007 -0.1906
 1147ERGO    R215793  16.229   0.741   6.561 -0.1459 -0.1772 -0.1718
 1147ERGO    R315794  16.311   0.565   6.751  0.0037  0.0064 -0.0634
 1147ERGO    R415795  16.115   0.736   6.887 -0.0860 -0.0303 -0.1481
 1147ERGO    R515796  16.320   0.695   6.952 -0.0474  0.1498 -0.1532
 1147ERGO    C115797  16.126   0.569   7.256  0.0894  0.2276 -0.0326
 1147ERGO    C215798  15.929   0.431   7.454 -0.1388 -0.0212  0.0143
 1148ERGO   ROH15799  13.964   8.565   6.894 -0.2504  0.3215 -0.3206
 1148ERGO    R115800  13.820   8.557   7.137  0.1867  0.1287 -0.0518
 1148ERGO    R215801  13.927   8.644   7.378  0.4121  0.5691 -0.2838
 1148ERGO    R315802  13.703   8.798   7.383  0.0257  0.0280 -0.0342
 1148ERGO    R415803  13.790   8.787   7.661  0.4846  0.4166 -0.1729
 1148ERGO    R515804  13.592   8.738   7.586  0.4822 -0.1150  0.1719
 1148ERGO    C115805  13.500   9.015   7.831  0.1640 -0.1801  0.1258
 1148ERGO    C215806  13.363   9.184   8.102  0.2737 -0.0413  0.1209
 1149ERGO   ROH15807  13.076   8.019   6.962  0.1679 -0.1356  0.0581
 1149ERGO    R115808  13.190   7.888   7.185  0.0832 -0.1429  0.0969
 1149ERGO    R215809  13.203   8.006   7.435 -0.0057 -0.1498  0.1020
 1149ERGO    R315810  13.076   7.778   7.513 -0.0371 -0.1490  0.0549
 1149ERGO    R415811  13.140   7.916   7.763 -0.1928 -0.1041  0.0796
 1149ERGO    R515812  13.191   7.711   7.712 -0.1464 -0.1118  0.1352
 1149ERGO    C115813  12.984   7.651   8.027 -0.3313 -0.0767  0.0223
 1149ERGO    C215814  12.787   7.588   8.188  0.3804  0.0731 -0.3475
 1150ERGO   ROH15815   3.992   3.409   6.547 -0.1872 -0.2027  0.1124
 1150ERGO    R115816   3.945   3.476   6.818 -0.1917 -0.1919  0.1086
 1150ERGO    R215817   4.002   3.303   7.026 -0.0017 -0.1058  0.1291
 1150ERGO    R315818   4.146   3.513   7.119 -0.1631  0.0372  0.0636
 1150ERGO    R415819   4.101   3.345   7.355  0.0550  0.0183  0.0970
 1150ERGO    R515820   4.055   3.557   7.336 -0.1424 -0.0217  0.0855
 1150ERGO    C115821   4.294   3.567   7.633 -0.0635  0.2248  0.0169
 1150ERGO    C215822   4.650   3.713   7.743  0.0911  0.0064  0.2398
 1151ERGO   ROH15823   6.273  16.789   9.736  0.0606  0.1232 -0.0553
 1151ERGO    R115824   6.361  16.982   9.549  0.0413  0.1337 -0.0539
 1151ERGO    R215825   6.307  16.963   9.278  0.2598 -0.0038 -0.0932
 1151ERGO    R315826   6.205  17.213   9.314  0.0225 -0.0756 -0.2482
 1151ERGO    R415827   6.190  17.167   9.025  0.2899 -0.1695 -0.2423
 1151ERGO    R515828   6.283  17.337   9.125  0.0679 -0.0640 -0.2179
 1151ERGO    C115829   6.026  17.520   8.911  0.0845 -0.3333 -0.4745
 1151ERGO    C215830   5.812  17.464   8.671  0.3073  0.1899 -0.1079
 1152ERGO   ROH15831  11.461  10.207   6.608  0.1190 -0.0482  0.2665
 1152ERGO    R115832  11.334  10.043   6.801  0.0343  0.0023  0.2541
 1152ERGO    R215833  11.254  10.138   7.048 -0.1677  0.0918  0.1540
 1152ERGO    R315834  11.014  10.036   6.973 -0.0862 -0.0171  0.0347
 1152ERGO    R415835  10.998  10.055   7.265 -0.3075  0.1712  0.0213
 1152ERGO    R515836  10.960   9.878   7.144 -0.1714  0.0789  0.1023
 1152ERGO    C115837  10.623   9.912   7.321 -0.3123  0.1153 -0.1678
 1152ERGO    C215838  10.275  10.020   7.245  0.1832 -0.0768 -0.2876
 1153ERGO   ROH15839   1.665   5.692   6.495 -0.0269 -0.2082 -0.0563
 1153ERGO    R115840   1.592   5.824   6.734 -0.0577 -0.1152 -0.1157
 1153ERGO    R215841   1.434   5.704   6.928  0.0233 -0.0891 -0.0284
 1153ERGO    R315842   1.641   5.771   7.091  0.0164  0.0958 -0.0944
 1153ERGO    R415843   1.423   5.699   7.273  0.1176 -0.0194 -0.0243
 1153ERGO    R515844   1.537   5.884   7.275 -0.0159  0.0617 -0.0943
 1153ERGO    C115845   1.610   5.758   7.628  0.1659  0.1947 -0.0840
 1153ERGO    C215846   1.552   5.812   7.977  0.1475 -0.1474 -0.2358
 1154ERGO   ROH15847   3.666  13.728   6.331  0.0850 -0.2528 -0.0007
 1154ERGO    R115848   3.755  13.620   6.577 -0.0997 -0.2463  0.0701
 1154ERGO    R215849   3.962  13.732   6.723 -0.0101 -0.4124  0.0736
 1154ERGO    R315850   3.777  13.733   6.923 -0.0649 -0.1183  0.0262
 1154ERGO    R415851   4.023  13.826   7.050  0.0210 -0.3939  0.0628
 1154ERGO    R515852   3.897  13.662   7.116 -0.2075 -0.2160  0.0796
 1154ERGO    C115853   3.886  13.882   7.427 -0.0123 -0.1071  0.0119
 1154ERGO    C215854   3.751  13.836   7.738 -0.1911  0.0543  0.1269
 1155ERGO   ROH15855  15.610  17.266   9.858  0.0114 -0.1514 -0.1077
 1155ERGO    R115856  15.531  17.250   9.587  0.0407  0.0389 -0.1287
 1155ERGO    R215857  15.517  17.472   9.423  0.3145  0.1189 -0.0468
 1155ERGO    R315858  15.680  17.324   9.263  0.1808 -0.0014 -0.0749
 1155ERGO    R415859  15.527  17.493   9.078  0.1473 -0.0065 -0.0603
 1155ERGO    R515860  15.546  17.275   9.071  0.0620 -0.0202  0.0086
 1155ERGO    C115861  15.686  17.366   8.727 -0.0755 -0.1923 -0.0945
 1155ERGO    C215862  15.693  17.397   8.354  0.0111 -0.0466 -0.2818
 1156ERGO   ROH15863   8.974  14.515   6.644 -0.0046 -0.4177  0.0140
 1156ERGO    R115864   8.907  14.421   6.903 -0.1041 -0.1117  0.1042
 1156ERGO    R215865   9.098  14.351   7.090 -0.1758 -0.1340  0.1699
 1156ERGO    R315866   8.964  14.528   7.246  0.0014  0.1505  0.0075
 1156ERGO    R415867   9.119  14.367   7.434 -0.4050 -0.0567  0.1816
 1156ERGO    R515868   8.905  14.403   7.441 -0.3574  0.3097  0.0095
 1156ERGO    C115869   9.005  14.543   7.781 -0.3720  0.2552  0.0359
 1156ERGO    C215870   8.912  14.745   8.029 -0.0369  0.3573  0.2364
 1157ERGO   ROH15871  10.372  17.167   6.757 -0.0485  0.0381  0.0572
 1157ERGO    R115872  10.335  17.287   7.010 -0.1566  0.0534  0.0342
 1157ERGO    R215873  10.165  17.182   7.201 -0.0317 -0.0853  0.0665
 1157ERGO    R315874  10.386  17.193   7.358 -0.0314  0.1828  0.0530
 1157ERGO    R415875  10.161  17.200   7.546 -0.0489 -0.2890  0.0780
 1157ERGO    R515876  10.326  17.343   7.535 -0.2705 -0.0081  0.1441
 1157ERGO    C115877  10.366  17.221   7.894 -0.0588 -0.1562  0.0721
 1157ERGO    C215878  10.284  17.154   8.225 -0.3441 -0.1990 -0.0036
 1158ERGO   ROH15879   0.754   4.614   7.320  0.4480 -0.0426 -0.0874
 1158ERGO    R115880   0.802   4.490   7.570  0.3161 -0.1137 -0.0960
 1158ERGO    R215881   0.600   4.382   7.724  0.1951  0.1004 -0.0966
 1158ERGO    R315882   0.755   4.159   7.714 -0.0513 -0.0741 -0.1179
 1158ERGO    R415883   0.623   4.147   7.976  0.3196  0.3131  0.0947
 1158ERGO    R515884   0.837   4.134   7.937  0.2544  0.0545 -0.2134
 1158ERGO    C115885   0.782   3.800   8.113  0.1608  0.2733  0.1861
 1158ERGO    C215886   0.835   3.568   8.275  0.3858  0.1951 -0.1339
 1159ERGO   ROH15887  13.936  15.217   6.540  0.0974 -0.1339  0.0441
 1159ERGO    R115888  13.781  15.138   6.764 -0.0067  0.1523  0.0767
 1159ERGO    R215889  13.837  14.911   6.911 -0.3533  0.0822  0.1082
 1159ERGO    R315890  13.838  15.086   7.119 -0.0471  0.1217  0.0788
 1159ERGO    R415891  13.840  14.821   7.245 -0.2670  0.1384  0.1229
 1159ERGO    R515892  13.699  14.982   7.285 -0.0712  0.3018  0.1743
 1159ERGO    C115893  13.842  14.933   7.635  0.0708  0.2083  0.1039
 1159ERGO    C215894  13.793  14.734   7.980  0.0328 -0.0259 -0.0794
 1160ERGO   ROH15895   6.457   5.971  10.269  0.0561  0.0717  0.0340
 1160ERGO    R115896   6.410   5.945   9.991  0.0554  0.0265  0.0390
 1160ERGO    R215897   6.324   6.156   9.834  0.0677  0.0011  0.0054
 1160ERGO    R315898   6.543   6.093   9.686  0.0623 -0.0342  0.0109
 1160ERGO    R415899   6.330   6.134   9.489  0.1610  0.4108 -0.0252
 1160ERGO    R515900   6.457   5.958   9.507 -0.0125  0.2578 -0.1852
 1160ERGO    C115901   6.538   6.062   9.149  0.2103  0.6164 -0.0377
 1160ERGO    C215902   6.592   6.236   8.881  0.2879 -0.1170  0.0455
 1161ERGO   ROH15903   8.116   0.135   9.993 -0.1418 -0.1875 -0.1979
 1161ERGO    R115904   8.121   0.275   9.747 -0.1286 -0.1644 -0.1837
 1161ERGO    R215905   8.275   0.500   9.707 -0.3036 -0.0282 -0.0799
 1161ERGO    R315906   8.370   0.359   9.495 -0.0622  0.0733 -0.0436
 1161ERGO    R415907   8.391   0.640   9.413 -0.4150  0.1057 -0.0620
 1161ERGO    R515908   8.292   0.480   9.303 -0.1796 -0.0428 -0.0740
 1161ERGO    C115909   8.548   0.588   9.043 -0.2534  0.2790 -0.0177
 1161ERGO    C215910   8.851   0.691   8.840 -0.1170  0.2912 -0.0898
 1162ERGO   ROH15911   0.240  17.105   6.597  0.1240 -0.0616  0.0365
 1162ERGO    R115912   0.376  17.112   6.845  0.0064  0.1688  0.0976
 1162ERGO    R215913   0.280  17.251   7.064 -0.3686 -0.0470  0.0805
 1162ERGO    R315914   0.306  17.010   7.188  0.0502 -0.0242  0.0503
 1162ERGO    R415915   0.267  17.202   7.406 -0.2518 -0.1135  0.0759
 1162ERGO    R515916   0.430  17.059   7.387 -0.0088  0.1604  0.0426
 1162ERGO    C115917   0.283  16.948   7.721  0.2093 -0.1311  0.0449
 1162ERGO    C215918   0.093  16.903   7.930 -0.2567 -0.1720 -0.1261
 1163ERGO   ROH15919   1.635   3.393   6.672  0.2067 -0.0339 -0.0593
 1163ERGO    R115920   1.676   3.297   6.935  0.0106 -0.1372 -0.0650
 1163ERGO    R215921   1.646   3.458   7.158  0.2435 -0.1145 -0.0528
 1163ERGO    R315922   1.476   3.262   7.237 -0.0966  0.1527 -0.0967
 1163ERGO    R415923   1.570   3.383   7.487  0.4173 -0.2837 -0.0491
 1163ERGO    R515924   1.576   3.171   7.435 -0.0746 -0.2616 -0.2816
 1163ERGO    C115925   1.365   3.155   7.752  0.1992 -0.1314 -0.0881
 1163ERGO    C215926   1.179   3.140   8.030  0.2718 -0.0566 -0.1809
 1164ERGO   ROH15927  14.225  11.882   8.104  0.0562 -0.1352  0.0664
 1164ERGO    R115928  14.195  11.819   8.378  0.0209 -0.1023  0.0685
 1164ERGO    R215929  14.401  11.845   8.561 -0.0185 -0.0426  0.0941
 1164ERGO    R315930  14.220  11.997   8.695 -0.0647 -0.0573  0.0522
 1164ERGO    R415931  14.403  11.899   8.902  0.1415  0.2778  0.0485
 1164ERGO    R515932  14.185  11.880   8.901  0.1479  0.1017  0.1874
 1164ERGO    C115933  14.233  12.072   9.227  0.1913  0.4505 -0.0175
 1164ERGO    C215934  14.169  12.123   9.574  0.0979 -0.2410  0.0125
 1165ERGO   ROH15935   7.930  12.664   6.961 -0.3782 -0.1773 -0.1099
 1165ERGO    R115936   7.769  12.577   7.176 -0.1731 -0.2034  0.0380
 1165ERGO    R215937   7.870  12.532   7.429  0.0414 -0.0704 -0.0116
 1165ERGO    R315938   7.674  12.704   7.504  0.0009 -0.1520  0.0662
 1165ERGO    R415939   7.730  12.546   7.745  0.2227 -0.0436  0.0682
 1165ERGO    R515940   7.535  12.576   7.651  0.1564 -0.1697  0.1876
 1165ERGO    C115941   7.463  12.717   7.998  0.2904 -0.1046  0.1877
 1165ERGO    C215942   7.455  12.911   8.269 -0.1175 -0.2498  0.0388
 1166ERGO   ROH15943   1.614   4.952   6.717  0.0578  0.1999 -0.0735
 1166ERGO    R115944   1.687   4.827   6.960 -0.0196  0.1496 -0.0764
 1166ERGO    R215945   1.929   4.874   7.084 -0.0071  0.0238 -0.0589
 1166ERGO    R315946   1.771   4.934   7.297  0.0101  0.0866 -0.0627
 1166ERGO    R415947   2.032   4.867   7.414  0.0067  0.0474 -0.0621
 1166ERGO    R515948   1.840   4.779   7.467 -0.0135  0.0927 -0.0437
 1166ERGO    C115949   1.943   4.919   7.806  0.0309  0.1201 -0.0676
 1166ERGO    C215950   2.159   4.937   7.941 -0.1847 -0.1319 -0.2423
 1167ERGO   ROH15951   9.024   4.347   6.588  0.0299 -0.0182 -0.1541
 1167ERGO    R115952   9.051   4.501   6.824  0.1664  0.0647 -0.2218
 1167ERGO    R215953   8.934   4.428   7.064  0.0919  0.2775 -0.1881
 1167ERGO    R315954   9.188   4.452   7.158  0.1154  0.0856 -0.1984
 1167ERGO    R415955   9.017   4.521   7.386  0.1808 -0.0221 -0.1215
 1167ERGO    R515956   9.179   4.642   7.304  0.2234 -0.0297 -0.0423
 1167ERGO    C115957   9.304   4.598   7.662  0.2545 -0.3767 -0.0923
 1167ERGO    C215958   9.174   4.635   8.063 -0.1205 -0.4562  0.0333
 1168ERGO   ROH15959   8.115   9.029   6.463 -0.0070  0.0716  0.0018
 1168ERGO    R115960   8.099   8.943   6.732 -0.0292  0.1078  0.0125
 1168ERGO    R215961   8.237   8.722   6.826 -0.1108  0.0614  0.0318
 1168ERGO    R315962   8.329   8.900   7.010 -0.0322  0.0479  0.0049
 1168ERGO    R415963   8.218   8.680   7.168 -0.0500  0.0874  0.0382
 1168ERGO    R515964   8.169   8.891   7.187  0.0044  0.0970  0.0378
 1168ERGO    C115965   8.294   8.821   7.541  0.0590  0.0898  0.0166
 1168ERGO    C215966   8.440   8.915   7.801 -0.1122 -0.3182  0.3045
 1169ERGO   ROH15967  13.930  16.557   6.523 -0.1981  0.2573  0.0352
 1169ERGO    R115968  13.894  16.496   6.797 -0.0554  0.3188  0.0668
 1169ERGO    R215969  14.069  16.337   6.938 -0.1361  0.1249 -0.0701
 1169ERGO    R315970  14.077  16.551   7.107  0.2509  0.1213 -0.0698
 1169ERGO    R415971  14.193  16.330   7.261 -0.3620 -0.1941  0.0151
 1169ERGO    R515972  14.027  16.458   7.322 -0.1231  0.2117 -0.0979
 1169ERGO    C115973  14.272  16.525   7.607 -0.1301 -0.3833  0.0649
 1169ERGO    C215974  14.354  16.639   7.938  0.1044 -0.3590  0.0887
 1170ERGO   ROH15975   7.821  13.631   6.704 -0.1531 -0.1078 -0.1003
 1170ERGO    R115976   7.641  13.687   6.916 -0.1486 -0.1272 -0.0907
 1170ERGO    R215977   7.481  13.493   7.030 -0.1045 -0.1513 -0.0642
 1170ERGO    R315978   7.597  13.579   7.260 -0.1014 -0.1125 -0.0807
 1170ERGO    R415979   7.348  13.449   7.346  0.0104 -0.2920 -0.0348
 1170ERGO    R515980   7.413  13.651   7.396 -0.1122 -0.2582 -0.0190
 1170ERGO    C115981   7.380  13.504   7.746  0.0803 -0.3375 -0.0332
 1170ERGO    C215982   7.309  13.344   8.043  0.2209 -0.2909 -0.0763
 1171ERGO   ROH15983  12.854   2.408   6.579  0.3541  0.0960  0.1296
 1171ERGO    R115984  12.795   2.357   6.851  0.2261  0.1533  0.1122
 1171ERGO    R215985  12.924   2.162   6.998 -0.0614 -0.0282  0.1260
 1171ERGO    R315986  12.974   2.369   7.168  0.1720 -0.1051  0.1557
 1171ERGO    R415987  12.916   2.140   7.343 -0.2522 -0.0387  0.1225
 1171ERGO    R515988  12.819   2.336   7.348  0.0339  0.1134  0.0849
 1171ERGO    C115989  12.958   2.321   7.703 -0.1442 -0.1170  0.1483
 1171ERGO    C215990  13.003   2.322   8.022 -0.1003  0.0136 -0.3212
 1172ERGO   ROH15991  17.074  11.238   6.854 -0.0586  0.1427 -0.0317
 1172ERGO    R115992  16.954  11.138   7.090 -0.0983  0.2672  0.0029
 1172ERGO    R215993  17.078  10.952   7.252 -0.3857 -0.1492 -0.2229
 1172ERGO    R315994  17.030  11.137   7.446  0.2191 -0.1454 -0.0596
 1172ERGO    R415995  17.019  10.878   7.585 -0.6505 -0.2496 -0.2904
 1172ERGO    R515996  16.866  11.034   7.587 -0.1434  0.2720 -0.1639
 1172ERGO    C115997  16.940  11.009   7.960 -0.2370 -0.3045 -0.1764
 1172ERGO    C215998  17.028  11.021   8.278  0.0531 -0.1004 -0.0639
 1173ERGO   ROH15999   7.937   5.617   6.649 -0.0528  0.1573 -0.1461
 1173ERGO    R116000   7.824   5.563   6.903 -0.0858  0.0226 -0.1872
 1173ERGO    R216001   7.866   5.324   7.037 -0.0537 -0.0323 -0.2762
 1173ERGO    R316002   7.947   5.489   7.237 -0.1227 -0.0912 -0.2009
 1173ERGO    R416003   7.850   5.251   7.375 -0.0272 -0.1721 -0.3057
 1173ERGO    R516004   7.788   5.456   7.412 -0.1034 -0.2214 -0.2176
 1173ERGO    C116005   7.917   5.363   7.758 -0.0766 -0.3087 -0.2523
 1173ERGO    C216006   8.059   5.451   8.111  0.1595 -0.2769 -0.3430
 1174ERGO   ROH16007   1.613  11.086   6.665  0.0197 -0.0438  0.1122
 1174ERGO    R116008   1.514  10.880   6.832  0.1063 -0.0784  0.1218
 1174ERGO    R216009   1.681  10.709   6.973  0.1790  0.0295  0.1716
 1174ERGO    R316010   1.533  10.793   7.185  0.0974 -0.0229  0.1355
 1174ERGO    R416011   1.717  10.595   7.297  0.0184 -0.0841  0.1504
 1174ERGO    R516012   1.500  10.596   7.317  0.0113 -0.0613  0.0552
 1174ERGO    C116013   1.600  10.607   7.685 -0.1518 -0.1994  0.1042
 1174ERGO    C216014   1.501  10.580   7.989 -0.0537  0.0322  0.2420
 1175ERGO   ROH16015   9.596  15.973   6.810  0.0753 -0.1476  0.0001
 1175ERGO    R116016   9.394  15.985   7.007  0.0618 -0.1020 -0.0173
 1175ERGO    R216017   9.236  15.767   7.072  0.0820 -0.0934  0.0436
 1175ERGO    R316018   9.324  15.819   7.324  0.0550 -0.0023  0.0353
 1175ERGO    R416019   9.056  15.707   7.361  0.1063 -0.1443  0.0489
 1175ERGO    R516020   9.129  15.896   7.440  0.0067 -0.0858  0.0184
 1175ERGO    C116021   9.033  15.721   7.765  0.0952 -0.0885  0.0441
 1175ERGO    C216022   8.789  15.659   8.052 -0.0434  0.1782  0.2936
 1176ERGO   ROH16023  15.571   1.819   6.624 -0.0832 -0.0609 -0.0208
 1176ERGO    R116024  15.729   1.807   6.858  0.0049 -0.0934 -0.0806
 1176ERGO    R216025  15.692   1.979   7.071  0.1916 -0.0134 -0.1064
 1176ERGO    R316026  15.673   1.747   7.213  0.1091  0.0325 -0.0430
 1176ERGO    R416027  15.722   1.955   7.415  0.1966  0.0616 -0.1019
 1176ERGO    R516028  15.836   1.771   7.387  0.1228  0.0130 -0.0569
 1176ERGO    C116029  15.722   1.724   7.748  0.1219  0.1484 -0.0398
 1176ERGO    C216030  15.638   1.761   8.075  0.0112 -0.2519 -0.2381
 1177ERGO   ROH16031  15.139   3.401   6.562  0.0588  0.0566 -0.0295
 1177ERGO    R116032  15.030   3.278   6.792  0.2295 -0.0586 -0.0098
 1177ERGO    R216033  15.178   3.236   7.022  0.2426  0.3561  0.0603
 1177ERGO    R316034  14.973   3.371   7.140 -0.0836 -0.0039 -0.0718
 1177ERGO    R416035  15.143   3.282   7.363 -0.1255  0.1956  0.0493
 1177ERGO    R516036  14.929   3.247   7.340 -0.0598 -0.1433 -0.1484
 1177ERGO    C116037  14.930   3.435   7.672 -0.6459 -0.2360 -0.0811
 1177ERGO    C216038  15.227   3.554   7.910  0.1529 -0.2426  0.0427
 1178ERGO   ROH16039  14.253  10.892   6.909 -0.1768 -0.2176 -0.0203
 1178ERGO    R116040  14.184  11.020   7.152 -0.0569 -0.0728 -0.0625
 1178ERGO    R216041  14.203  10.895   7.397 -0.2070 -0.0224 -0.0268
 1178ERGO    R316042  14.355  11.111   7.460  0.0201 -0.1627 -0.0778
 1178ERGO    R416043  14.186  11.068   7.696 -0.1229  0.1455 -0.1170
 1178ERGO    R516044  14.207  11.253   7.584  0.1332  0.0703 -0.2024
 1178ERGO    C116045  14.319  11.372   7.929  0.1394  0.1117 -0.2174
 1178ERGO    C216046  14.588  11.590   8.154  0.0464  0.1474  0.2109
 1179ERGO   ROH16047  12.098   7.957   6.727  0.0016  0.0665 -0.0953
 1179ERGO    R116048  12.140   7.990   7.005  0.2172  0.0983 -0.1323
 1179ERGO    R216049  12.259   8.216   7.112 -0.1397  0.3235 -0.2212
 1179ERGO    R316050  12.033   8.224   7.263 -0.0085 -0.1682  0.0260
 1179ERGO    R416051  12.243   8.334   7.436 -0.0628  0.5522 -0.2966
 1179ERGO    R516052  12.108   8.169   7.484  0.4160  0.2012 -0.0021
 1179ERGO    C116053  12.022   8.409   7.767  0.1053  0.2238 -0.1085
 1179ERGO    C216054  12.031   8.739   7.983  0.0631  0.0697  0.0858
 1180ERGO   ROH16055   8.305   8.283   6.859  0.0174 -0.2287  0.0193
 1180ERGO    R116056   8.368   8.219   7.127 -0.0995 -0.0321  0.0957
 1180ERGO    R216057   8.533   8.377   7.283 -0.1146  0.0491  0.0315
 1180ERGO    R316058   8.321   8.373   7.454 -0.1806  0.2427 -0.0429
 1180ERGO    R416059   8.548   8.457   7.619 -0.0786 -0.3253  0.1228
 1180ERGO    R516060   8.412   8.291   7.660 -0.3861 -0.1346 -0.0937
 1180ERGO    C116061   8.359   8.499   7.975 -0.1195 -0.3616  0.1061
 1180ERGO    C216062   8.402   8.466   8.287 -0.2436  0.0758 -0.0026
 1181ERGO   ROH16063   6.846  12.921   6.593  0.0671 -0.3597  0.1738
 1181ERGO    R116064   6.639  12.922   6.785  0.1302 -0.1466  0.2451
 1181ERGO    R216065   6.688  12.903   7.056  0.2211  0.1804  0.2566
 1181ERGO    R316066   6.539  13.130   7.066  0.2088  0.1834  0.0329
 1181ERGO    R416067   6.519  13.017   7.336 -0.1395  0.2228  0.0284
 1181ERGO    R516068   6.353  13.074   7.207  0.0250  0.2064 -0.1950
 1181ERGO    C116069   6.281  13.297   7.508 -0.3611  0.2502 -0.3144
 1181ERGO    C216070   6.298  13.389   7.847 -0.0112 -0.1186  0.1518
 1182ERGO   ROH16071  16.930  14.825  10.133 -0.0778  0.0766 -0.1078
 1182ERGO    R116072  17.182  14.754  10.024 -0.0709  0.0441 -0.0719
 1182ERGO    R216073  17.224  14.516   9.890 -0.0446 -0.0284  0.0604
 1182ERGO    R316074  17.315  14.681   9.694 -0.0683 -0.1266 -0.0330
 1182ERGO    R416075  17.383  14.411   9.602 -0.0171 -0.1669  0.1259
 1182ERGO    R516076  17.520  14.579   9.621 -0.0487 -0.1316  0.0317
 1182ERGO    C116077  17.561  14.504   9.250 -0.0232 -0.3399  0.0763
 1182ERGO    C216078  17.592  14.307   8.914  0.1680  0.1418  0.1617
 1183ERGO   ROH16079   6.273  11.899   6.599 -0.0337 -0.0346  0.0897
 1183ERGO    R116080   6.342  11.979   6.861 -0.2924  0.1968  0.0912
 1183ERGO    R216081   6.151  12.034   7.054 -0.4902 -0.2665  0.0447
 1183ERGO    R316082   6.291  11.851   7.198 -0.0255  0.1137  0.1007
 1183ERGO    R416083   6.116  11.980   7.394 -0.5284 -0.4141  0.0176
 1183ERGO    R516084   6.332  11.959   7.408 -0.4572  0.2162  0.1386
 1183ERGO    C116085   6.227  11.777   7.727 -0.1142 -0.1431  0.0545
 1183ERGO    C216086   6.251  11.559   8.146 -0.1067  0.0330 -0.1042
 1184ERGO   ROH16087  16.436   6.608   6.577  0.0061 -0.0866 -0.0224
 1184ERGO    R116088  16.415   6.718   6.837 -0.1176 -0.1930  0.0145
 1184ERGO    R216089  16.373   6.562   7.061  0.0029 -0.3111 -0.0381
 1184ERGO    R316090  16.596   6.690   7.152 -0.1175 -0.1382  0.0179
 1184ERGO    R416091  16.464   6.586   7.393 -0.0264 -0.3446 -0.0281
 1184ERGO    R516092  16.525   6.793   7.356 -0.2164 -0.2773  0.0512
 1184ERGO    C116093  16.726   6.720   7.672 -0.1565 -0.2018  0.0303
 1184ERGO    C216094  16.674   6.573   8.004 -0.3117  0.1430  0.2835
 1185ERGO   ROH16095   8.206   5.226  10.758  0.1865  0.1829 -0.0259
 1185ERGO    R116096   8.195   5.146  10.486  0.1485  0.2297 -0.0397
 1185ERGO    R216097   7.968   5.177  10.332 -0.0219 -0.1274  0.1116
 1185ERGO    R316098   8.138   5.309  10.165 -0.3501  0.2231  0.0402
 1185ERGO    R416099   7.975   5.142   9.988  0.0109 -0.2071  0.1215
 1185ERGO    R516100   8.192   5.148   9.997  0.0006  0.3020  0.0812
 1185ERGO    C116101   8.139   5.244   9.632 -0.2781  0.0755  0.0601
 1185ERGO    C216102   8.201   5.336   9.332 -0.0313  0.1651  0.0777
 1186ERGO   ROH16103  15.030  16.522   6.642 -0.0413 -0.2288 -0.0446
 1186ERGO    R116104  15.200  16.522   6.869  0.1205 -0.3208 -0.1625
 1186ERGO    R216105  15.110  16.589   7.121  0.4359  0.2180 -0.1739
 1186ERGO    R316106  15.215  16.347   7.187 -0.0718  0.0449  0.0545
 1186ERGO    R416107  15.219  16.500   7.437  0.5364  0.4044 -0.1550
 1186ERGO    R516108  15.388  16.398   7.345  0.2141 -0.1349 -0.1910
 1186ERGO    C116109  15.381  16.221   7.683  0.1184  0.3505  0.0702
 1186ERGO    C216110  15.314  16.084   8.000 -0.1828  0.1103  0.1799
 1187ERGO   ROH16111   7.425   7.683   6.964  0.2101  0.2124  0.0757
 1187ERGO    R116112   7.499   7.613   7.228  0.1633  0.2048  0.0863
 1187ERGO    R216113   7.540   7.801   7.426  0.0306  0.1916  0.1228
 1187ERGO    R316114   7.358   7.650   7.561  0.0540  0.0990  0.0534
 1187ERGO    R416115   7.549   7.739   7.766 -0.0160  0.1259  0.1128
 1187ERGO    R516116   7.488   7.533   7.725  0.0639  0.1103  0.0566
 1187ERGO    C116117   7.384   7.561   8.091 -0.0213  0.0007  0.0420
 1187ERGO    C216118   7.319   7.467   8.396 -0.1755 -0.0700  0.1466
 1188ERGO   ROH16119   8.742  12.169   6.648  0.1262 -0.1807 -0.1147
 1188ERGO    R116120   8.702  12.093   6.918  0.1723 -0.1372 -0.0951
 1188ERGO    R216121   8.912  12.045   7.091  0.2033  0.0228 -0.0839
 1188ERGO    R316122   8.783  12.229   7.245  0.1010 -0.0097 -0.1305
 1188ERGO    R416123   8.856  12.014   7.431  0.1088  0.0260 -0.0992
 1188ERGO    R516124   8.657  12.098   7.401  0.0943 -0.0372 -0.1621
 1188ERGO    C116125   8.703  12.168   7.773 -0.0423 -0.0026 -0.1518
 1188ERGO    C216126   8.670  12.178   8.078  0.2644 -0.1320 -0.3347
 1189ERGO   ROH16127   8.888  17.243   6.539 -0.0308  0.1753 -0.2583
 1189ERGO    R116128   8.944  17.233   6.816  0.0362  0.1267 -0.2742
 1189ERGO    R216129   9.082  17.433   6.946 -0.1362  0.2147 -0.2317
 1189ERGO    R316130   8.864  17.434   7.109 -0.1033 -0.0615 -0.1798
 1189ERGO    R416131   9.085  17.527   7.279 -0.1479  0.0892 -0.1947
 1189ERGO    R516132   8.949  17.362   7.321  0.0199 -0.0647 -0.2259
 1189ERGO    C116133   8.881  17.583   7.625 -0.1240 -0.2433 -0.1245
 1189ERGO    C216134   8.776  17.689   7.974  0.3033 -0.0432  0.1275
 1190ERGO   ROH16135   7.875  14.166   6.694  0.0567  0.2592  0.1922
 1190ERGO    R116136   7.945  14.064   6.948 -0.0683  0.1217  0.1729
 1190ERGO    R216137   7.907  14.207   7.182 -0.0013  0.0768  0.2136
 1190ERGO    R316138   7.771  13.984   7.258 -0.1885  0.1547  0.1140
 1190ERGO    R416139   7.778  14.153   7.498  0.0069  0.0137  0.2061
 1190ERGO    R516140   7.842  13.945   7.483 -0.1828 -0.0368  0.0790
 1190ERGO    C116141   7.575  13.912   7.753 -0.1642  0.0502  0.1083
 1190ERGO    C216142   7.355  13.978   7.989 -0.1507  0.0439 -0.0617
 1191ERGO   ROH16143  11.754   9.157   6.747  0.0595 -0.1103 -0.1433
 1191ERGO    R116144  11.626   9.199   6.996  0.0213 -0.1181 -0.1602
 1191ERGO    R216145  11.683   9.048   7.220  0.0363 -0.0846 -0.1333
 1191ERGO    R316146  11.727   9.292   7.333 -0.0345 -0.0603 -0.1613
 1191ERGO    R416147  11.731   9.104   7.558  0.2188 -0.0462 -0.1656
 1191ERGO    R516148  11.608   9.283   7.541  0.1066 -0.1230 -0.0881
 1191ERGO    C116149  11.800   9.364   7.860  0.2587 -0.0010 -0.2106
 1191ERGO    C216150  11.658   9.212   8.138  0.0826  0.1459  0.1320
 1192ERGO   ROH16151   2.448   7.820   8.441  0.1620 -0.0747 -0.0620
 1192ERGO    R116152   2.554   7.716   8.681  0.0693  0.0664  0.0428
 1192ERGO    R216153   2.685   7.873   8.867 -0.0154  0.1825  0.0123
 1192ERGO    R316154   2.502   7.768   9.038 -0.0849  0.2674 -0.0080
 1192ERGO    R416155   2.683   7.923   9.209 -0.0075  0.1469  0.0171
 1192ERGO    R516156   2.628   7.714   9.234 -0.1271  0.1752 -0.0070
 1192ERGO    C116157   2.509   7.854   9.568 -0.0681  0.2059  0.0010
 1192ERGO    C216158   2.583   7.791   9.934  0.0338  0.0342 -0.2135
 1193ERGO   ROH16159  16.259   5.704   6.548 -0.1454  0.1822  0.1477
 1193ERGO    R116160  16.392   5.559   6.752 -0.1593  0.0259  0.0471
 1193ERGO    R216161  16.535   5.683   6.954  0.0373 -0.1368  0.0101
 1193ERGO    R316162  16.373   5.535   7.115 -0.0014 -0.0497  0.0511
 1193ERGO    R416163  16.535   5.695   7.299  0.1155 -0.1194  0.0096
 1193ERGO    R516164  16.511   5.478   7.302  0.0102 -0.1076  0.0251
 1193ERGO    C116165  16.383   5.563   7.651  0.1250 -0.0275  0.0479
 1193ERGO    C216166  16.173   5.526   7.932  0.1734 -0.1378  0.0795
 1194ERGO   ROH16167   0.592   6.217   6.816  0.2255 -0.0113  0.0539
 1194ERGO    R116168   0.719   6.309   7.052  0.0076  0.1560  0.1085
 1194ERGO    R216169   0.581   6.437   7.255 -0.2691 -0.1172  0.0984
 1194ERGO    R316170   0.692   6.243   7.409  0.0201  0.0349  0.0879
 1194ERGO    R416171   0.659   6.470   7.590 -0.0979  0.0581  0.0430
 1194ERGO    R516172   0.843   6.360   7.553 -0.0061  0.2297 -0.0367
 1194ERGO    C116173   0.809   6.307   7.930  0.2733  0.3029  0.0010
 1194ERGO    C216174   0.934   6.371   8.269 -0.2192 -0.2979  0.1483
 1195ERGO   ROH16175   7.329   4.266   6.765 -0.0486  0.0965 -0.1073
 1195ERGO    R116176   7.417   4.185   7.021  0.0060  0.1364 -0.1135
 1195ERGO    R216177   7.488   4.365   7.218 -0.0982  0.1685 -0.1068
 1195ERGO    R316178   7.305   4.226   7.365 -0.0115  0.0511 -0.1081
 1195ERGO    R416179   7.484   4.345   7.563 -0.1341  0.2400 -0.1029
 1195ERGO    R516180   7.431   4.135   7.546  0.0371  0.1903 -0.0684
 1195ERGO    C116181   7.311   4.203   7.901 -0.0736  0.1715 -0.1017
 1195ERGO    C216182   7.289   4.340   8.223 -0.1531 -0.1653 -0.0960
 1196ERGO   ROH16183   5.833   9.886   6.227 -0.0885 -0.0959 -0.0670
 1196ERGO    R116184   5.698   9.790   6.456 -0.0467  0.0765  0.0310
 1196ERGO    R216185   5.745   9.540   6.563 -0.3263 -0.0092 -0.0419
 1196ERGO    R316186   5.789   9.682   6.791  0.0677 -0.0982 -0.0541
 1196ERGO    R416187   5.830   9.403   6.869 -0.2738 -0.1808 -0.1322
 1196ERGO    R516188   5.697   9.546   6.965  0.0068  0.0065  0.0003
 1196ERGO    C116189   5.921   9.456   7.261  0.1266 -0.3644 -0.1961
 1196ERGO    C216190   5.997   9.493   7.718  0.2557 -0.2447 -0.1481
 1197ERGO   ROH16191  13.559   1.713   6.653 -0.0201 -0.2041 -0.0950
 1197ERGO    R116192  13.780   1.623   6.805 -0.0353 -0.1766 -0.0568
 1197ERGO    R216193  13.868   1.755   7.031  0.0061 -0.0770 -0.1313
 1197ERGO    R316194  13.838   1.510   7.146 -0.0473 -0.0091  0.0017
 1197ERGO    R416195  14.004   1.662   7.335 -0.1220  0.0996 -0.0183
 1197ERGO    R516196  14.050   1.467   7.249 -0.0904  0.0463  0.1161
 1197ERGO    C116197  14.054   1.378   7.620 -0.2465  0.2662  0.1726
 1197ERGO    C216198  14.056   1.281   7.929  0.1105 -0.0592  0.2220
 1198ERGO   ROH16199   2.353   1.312   6.338  0.2194 -0.1461  0.0419
 1198ERGO    R116200   2.432   1.287   6.609  0.2285  0.1134  0.0663
 1198ERGO    R216201   2.499   1.505   6.766 -0.0883  0.2996 -0.0450
 1198ERGO    R316202   2.309   1.402   6.931  0.0322  0.1264 -0.0124
 1198ERGO    R416203   2.469   1.578   7.102 -0.1007  0.2702 -0.0400
 1198ERGO    R516204   2.423   1.368   7.139  0.0963  0.2289 -0.0322
 1198ERGO    C116205   2.275   1.524   7.454  0.0052  0.0904 -0.0065
 1198ERGO    C216206   2.109   1.443   7.780  0.0068 -0.1708 -0.1759
 1199ERGO   ROH16207   9.164   2.854  10.228 -0.0811  0.0432 -0.0109
 1199ERGO    R116208   9.144   2.909   9.951  0.0294  0.0117 -0.0271
 1199ERGO    R216209   8.987   3.113   9.850 -0.1979 -0.2028 -0.1386
 1199ERGO    R316210   9.219   3.190   9.731 -0.2148  0.1206  0.0286
 1199ERGO    R416211   9.012   3.234   9.527 -0.1027 -0.3481 -0.1849
 1199ERGO    R516212   9.195   3.117   9.504  0.1173 -0.0521  0.0484
 1199ERGO    C116213   9.245   3.376   9.227 -0.0631 -0.1290 -0.0549
 1199ERGO    C216214   9.267   3.399   8.846 -0.1338  0.1399 -0.1345
 1200ERGO   ROH16215   9.899  14.878   6.815 -0.0504 -0.2717  0.3240
 1200ERGO    R116216   9.773  14.923   7.064  0.0165 -0.0169  0.3140
 1200ERGO    R216217   9.861  14.806   7.298 -0.0908 -0.0008  0.3601
 1200ERGO    R316218   9.868  15.062   7.387  0.1916  0.0376  0.2408
 1200ERGO    R416219   9.850  14.899   7.631 -0.1646  0.1683  0.3120
 1200ERGO    R516220   9.718  15.064   7.575  0.0791  0.3191  0.1563
 1200ERGO    C116221   9.850  15.194   7.908  0.0576  0.3028  0.1721
 1200ERGO    C216222  10.047  15.385   8.067  0.1714  0.0577  0.2037
 1201ERGO   ROH16223  16.744   8.178   6.637  0.0193 -0.0917  0.0216
 1201ERGO    R116224  16.719   8.057   6.892  0.0268  0.0580  0.0948
 1201ERGO    R216225  16.764   8.195   7.127  0.1577  0.1647  0.0105
 1201ERGO    R316226  16.515   8.106   7.189  0.1292  0.3214  0.1239
 1201ERGO    R416227  16.637   8.174   7.447  0.4489 -0.1622  0.1106
 1201ERGO    R516228  16.545   7.984   7.393  0.2108  0.0012 -0.0744
 1201ERGO    C116229  16.329   8.079   7.693  0.5916 -0.2054  0.2753
 1201ERGO    C216230  16.297   8.193   8.027  0.0137  0.0766  0.1078
 1202ERGO   ROH16231   8.318   0.842   7.163  0.0286 -0.0954 -0.0269
 1202ERGO    R116232   8.184   0.651   7.323  0.1059 -0.0927  0.0417
 1202ERGO    R216233   8.293   0.548   7.555  0.0887  0.1402  0.1551
 1202ERGO    R316234   8.058   0.633   7.664 -0.0214  0.0371  0.0027
 1202ERGO    R416235   8.153   0.423   7.846 -0.0193  0.1165  0.0937
 1202ERGO    R516236   7.957   0.434   7.750  0.0305 -0.0011 -0.0246
 1202ERGO    C116237   7.852   0.429   8.117 -0.1856  0.0060 -0.0851
 1202ERGO    C216238   7.789   0.332   8.473 -0.0116  0.1347  0.1664
 1203ERGO   ROH16239   1.646  15.378   6.292  0.1054  0.1691  0.0679
 1203ERGO    R116240   1.776  15.410   6.541  0.0156 -0.0637  0.1480
 1203ERGO    R216241   1.752  15.640   6.694  0.4592  0.0587  0.0567
 1203ERGO    R316242   1.675  15.465   6.887 -0.1042  0.2906  0.0599
 1203ERGO    R416243   1.806  15.683   7.032  0.4192 -0.0248  0.0731
 1203ERGO    R516244   1.853  15.471   7.047 -0.1543 -0.1589  0.1401
 1203ERGO    C116245   1.765  15.544   7.411 -0.1330  0.1441  0.0856
 1203ERGO    C216246   1.699  15.404   7.779  0.1333 -0.1919 -0.0420
 1204ERGO   ROH16247  13.966   1.274   8.808 -0.1695  0.0471  0.0537
 1204ERGO    R116248  13.825   1.155   9.023 -0.1659 -0.0818 -0.0134
 1204ERGO    R216249  13.793   0.881   9.047  0.1491 -0.1210  0.0170
 1204ERGO    R316250  13.902   0.923   9.292 -0.0555  0.0602  0.0796
 1204ERGO    R416251  13.735   0.684   9.325  0.4015 -0.2975 -0.0528
 1204ERGO    R516252  13.727   0.866   9.445 -0.0275 -0.3244 -0.0205
 1204ERGO    C116253  13.803   0.609   9.717  0.3564 -0.2301 -0.0346
 1204ERGO    C216254  13.852   0.427   9.959  0.0551  0.0586 -0.0046
 1205ERGO   ROH16255   2.644   3.662   8.286 -0.3679  0.1067 -0.1565
 1205ERGO    R116256   2.555   3.559   8.534 -0.2487  0.0925 -0.1177
 1205ERGO    R216257   2.690   3.602   8.771 -0.0570 -0.0328 -0.1938
 1205ERGO    R316258   2.448   3.694   8.854  0.0459  0.0749 -0.0118
 1205ERGO    R416259   2.582   3.603   9.099  0.1665  0.0013 -0.1194
 1205ERGO    R516260   2.384   3.543   9.029  0.0937  0.1014  0.0208
 1205ERGO    C116261   2.292   3.690   9.369  0.3932  0.1222  0.0948
 1205ERGO    C216262   2.308   3.966   9.685 -0.0394  0.0364 -0.1347
 1206ERGO   ROH16263  17.219   0.029   6.423  0.2852  0.0016 -0.0221
 1206ERGO    R116264  17.106  -0.037   6.674  0.2488 -0.0452 -0.0499
 1206ERGO    R216265  17.185  -0.260   6.818  0.3308  0.0043 -0.0107
 1206ERGO    R316266  17.225  -0.077   7.016  0.1745  0.0426 -0.0145
 1206ERGO    R416267  17.231  -0.337   7.152  0.3148  0.0611  0.0040
 1206ERGO    R516268  17.106  -0.166   7.204  0.1964 -0.0181 -0.0327
 1206ERGO    C116269  17.296  -0.211   7.531  0.1583  0.1303  0.0091
 1206ERGO    C216270  17.288  -0.297   7.860 -0.0735  0.3123 -0.0493
 1207ERGO   ROH16271  17.493   9.112   6.864  0.0457 -0.0393 -0.2106
 1207ERGO    R116272  17.743   9.094   6.996 -0.0869 -0.1061  0.0345
 1207ERGO    R216273  17.941   9.285   6.968  0.0746 -0.2739  0.0463
 1207ERGO    R316274  17.928   9.291   7.240 -0.1668 -0.0289  0.0347
 1207ERGO    R416275  18.203   9.372   7.176  0.0134 -0.4538  0.2034
 1207ERGO    R516276  18.143   9.212   7.311 -0.3297 -0.2659  0.2929
 1207ERGO    C116277  18.343   9.429   7.552 -0.2490 -0.3284  0.2840
 1207ERGO    C216278  18.650   9.508   7.591 -0.2632 -0.3401  0.0011
 1208ERGO   ROH16279   7.211  10.940   6.761  0.3445 -0.2062 -0.0359
 1208ERGO    R116280   7.240  10.732   6.951 -0.0992 -0.2628 -0.0221
 1208ERGO    R216281   7.331  10.777   7.208 -0.0152 -0.4357 -0.0259
 1208ERGO    R316282   7.100  10.651   7.277 -0.2903  0.0428 -0.0226
 1208ERGO    R416283   7.242  10.691   7.531 -0.1220 -0.3694 -0.0360
 1208ERGO    R516284   7.164  10.503   7.454 -0.5664 -0.1794 -0.0971
 1208ERGO    C116285   6.973  10.524   7.784 -0.4424  0.1184 -0.0389
 1208ERGO    C216286   6.775  10.425   8.083 -0.2602 -0.2030  0.1208
 1209ERGO   ROH16287   6.805   0.477   6.713 -0.0839  0.0820 -0.0376
 1209ERGO    R116288   6.870   0.512   6.986 -0.0201  0.0805 -0.0524
 1209ERGO    R216289   6.729   0.683   7.151  0.0004  0.0580 -0.0115
 1209ERGO    R316290   6.704   0.461   7.306  0.0657  0.0497 -0.0123
 1209ERGO    R416291   6.655   0.686   7.489  0.0526  0.0361  0.0001
 1209ERGO    R516292   6.799   0.524   7.517  0.0867  0.0623 -0.0260
 1209ERGO    C116293   6.588   0.479   7.831  0.1443  0.0156  0.0060
 1209ERGO    C216294   6.362   0.487   8.006 -0.3179 -0.0453 -0.0325
 1210ERGO   ROH16295   7.322   3.124   6.578  0.1067 -0.1015 -0.0331
 1210ERGO    R116296   7.507   3.090   6.789  0.0749 -0.0203  0.0088
 1210ERGO    R216297   7.569   3.293   6.967 -0.0864 -0.0053  0.0513
 1210ERGO    R316298   7.499   3.107   7.153 -0.0258 -0.0701  0.0090
 1210ERGO    R416299   7.667   3.298   7.298 -0.1333 -0.0186  0.0651
 1210ERGO    R516300   7.695   3.082   7.288 -0.0328 -0.0039  0.0306
 1210ERGO    C116301   7.659   3.126   7.666 -0.1037 -0.0872  0.0334
 1210ERGO    C216302   7.833   3.026   7.966 -0.2960 -0.0776 -0.1452
 1211ERGO   ROH16303  15.588   8.860   6.898  0.0384 -0.1264 -0.0371
 1211ERGO    R116304  15.543   8.772   7.163  0.0972 -0.0497 -0.0011
 1211ERGO    R216305  15.504   8.506   7.227 -0.0049 -0.0197  0.0697
 1211ERGO    R316306  15.709   8.550   7.400  0.0833 -0.0785 -0.0191
 1211ERGO    R416307  15.592   8.296   7.487 -0.0060  0.0018  0.0872
 1211ERGO    R516308  15.627   8.472   7.611  0.1274  0.0133  0.0310
 1211ERGO    C116309  15.836   8.216   7.801  0.0760 -0.0409  0.0141
 1211ERGO    C216310  15.948   7.852   7.939 -0.4104 -0.2710 -0.2194
 1212ERGO   ROH16311  14.218  12.208   6.933 -0.0485  0.4298 -0.0886
 1212ERGO    R116312  14.200  12.309   7.197  0.1220  0.2945 -0.0239
 1212ERGO    R216313  14.200  12.146   7.420  0.0446  0.1662 -0.1208
 1212ERGO    R316314  14.407  12.304   7.497  0.2100 -0.0609 -0.0848
 1212ERGO    R416315  14.319  12.171   7.743 -0.1449  0.2065 -0.0526
 1212ERGO    R516316  14.341  12.386   7.712  0.1660  0.1646 -0.1780
 1212ERGO    C116317  14.582  12.335   8.004 -0.0998  0.0166  0.0208
 1212ERGO    C216318  14.646  12.100   8.183  0.1275  0.1018 -0.1267
 1213ERGO   ROH16319  13.389  10.065   6.548  0.1708 -0.1505 -0.0703
 1213ERGO    R116320  13.384  10.276   6.736  0.0463 -0.1353 -0.0880
 1213ERGO    R216321  13.154  10.351   6.870 -0.0095 -0.2391 -0.1114
 1213ERGO    R316322  13.308  10.313   7.090 -0.0051 -0.1482 -0.0996
 1213ERGO    R416323  13.103  10.504   7.176  0.1579  0.0749 -0.2365
 1213ERGO    R516324  13.319  10.528   7.194  0.1721 -0.0659 -0.2942
 1213ERGO    C116325  13.219  10.557   7.561  0.2594  0.3431 -0.2982
 1213ERGO    C216326  13.176  10.473   7.858 -0.1771  0.4049  0.0166
 1214ERGO   ROH16327   8.186   9.714   7.391 -0.1728 -0.0618  0.0149
 1214ERGO    R116328   8.445   9.711   7.507 -0.1688  0.0534  0.0105
 1214ERGO    R216329   8.490   9.775   7.771 -0.2184 -0.1037  0.0588
 1214ERGO    R316330   8.611   9.532   7.776 -0.0304 -0.0164 -0.1202
 1214ERGO    R416331   8.696   9.663   8.025 -0.2044 -0.1671  0.0195
 1214ERGO    R516332   8.826   9.575   7.873 -0.0914  0.0659 -0.0216
 1214ERGO    C116333   8.931   9.369   8.177 -0.0197 -0.1221 -0.1713
 1214ERGO    C216334   8.968   9.256   8.421  0.0605 -0.0475 -0.1993
 1215ERGO   ROH16335   0.536   7.485   6.469 -0.0144 -0.0845 -0.1207
 1215ERGO    R116336   0.563   7.503   6.750 -0.0185 -0.0937 -0.1191
 1215ERGO    R216337   0.412   7.677   6.903  0.0841  0.0108 -0.1309
 1215ERGO    R316338   0.349   7.451   7.040 -0.0710  0.0536 -0.1311
 1215ERGO    R416339   0.251   7.670   7.209  0.1009  0.1194 -0.1199
 1215ERGO    R516340   0.385   7.509   7.270 -0.0128  0.0215 -0.1335
 1215ERGO    C116341   0.098   7.454   7.515 -0.0348  0.2229 -0.1136
 1215ERGO    C216342  -0.015   7.476   7.835  0.0248 -0.0429  0.0197
 1216ERGO   ROH16343  14.017  14.267   9.913  0.0070 -0.0032  0.1145
 1216ERGO    R116344  14.103  14.148   9.671 -0.0210 -0.1017  0.1538
 1216ERGO    R216345  14.063  14.266   9.425 -0.0737 -0.2164  0.1116
 1216ERGO    R316346  14.332  14.234   9.401 -0.0736 -0.2004  0.0760
 1216ERGO    R416347  14.240  14.300   9.130 -0.0482  0.2976  0.1758
 1216ERGO    R516348  14.360  14.127   9.188 -0.0684  0.1739 -0.1218
 1216ERGO    C116349  14.596  14.290   8.936 -0.0333  0.6120  0.1798
 1216ERGO    C216350  14.615  14.500   8.615 -0.1639  0.0760  0.2150
 1217ERGO   ROH16351   0.848   9.447   6.211 -0.0168 -0.3992  0.1665
 1217ERGO    R116352   0.992   9.350   6.435 -0.0952 -0.3380  0.2442
 1217ERGO    R216353   1.156   9.511   6.588  0.0953 -0.3622  0.0687
 1217ERGO    R316354   1.002   9.418   6.792  0.0168 -0.0026  0.1806
 1217ERGO    R416355   1.259   9.485   6.917  0.1786 -0.3399  0.0444
 1217ERGO    R516356   1.155   9.294   6.929 -0.1263 -0.1716  0.1916
 1217ERGO    C116357   1.176   9.382   7.300  0.1533  0.0107  0.1353
 1217ERGO    C216358   1.213   9.262   7.689  0.0090 -0.2317 -0.2173
 1218ERGO   ROH16359   5.908  17.709   6.542 -0.2311  0.0133  0.2592
 1218ERGO    R116360   5.878  17.752   6.820 -0.2888 -0.0608  0.2649
 1218ERGO    R216361   5.681  17.629   6.970 -0.1055 -0.3724  0.2576
 1218ERGO    R316362   5.891  17.550   7.123  0.0203 -0.0781  0.2429
 1218ERGO    R416363   5.658  17.522   7.298  0.0733 -0.3634  0.2739
 1218ERGO    R516364   5.840  17.633   7.342 -0.0635 -0.1160  0.2387
 1218ERGO    C116365   5.843  17.385   7.632  0.2955 -0.0818  0.2695
 1218ERGO    C216366   5.879  17.165   7.923 -0.0044 -0.2784 -0.0555
 1219ERGO   ROH16367  15.825   9.359   8.475 -0.2007  0.2112 -0.1413
 1219ERGO    R116368  15.714   9.413   8.729 -0.1589  0.0200 -0.0806
 1219ERGO    R216369  15.610   9.215   8.891 -0.0642 -0.1137 -0.1773
 1219ERGO    R316370  15.783   9.317   9.074 -0.0508 -0.1758 -0.1560
 1219ERGO    R416371  15.547   9.238   9.230 -0.2950  0.3481 -0.2426
 1219ERGO    R516372  15.643   9.434   9.229  0.0009  0.2071 -0.3869
 1219ERGO    C116373  15.674   9.346   9.599 -0.4167  0.5587 -0.2605
 1219ERGO    C216374  15.615   9.364   9.946  0.0677 -0.1780  0.0188
 1220ERGO   ROH16375   3.868  12.696   6.491 -0.0496  0.1326  0.0234
 1220ERGO    R116376   3.691  12.706   6.712 -0.0026  0.1620  0.0597
 1220ERGO    R216377   3.685  12.510   6.907 -0.0153  0.1488  0.0444
 1220ERGO    R316378   3.721  12.721   7.074  0.0735  0.1251  0.0556
 1220ERGO    R416379   3.609  12.510   7.244 -0.0244  0.1611  0.0424
 1220ERGO    R516380   3.533  12.713   7.222  0.0641  0.1980  0.0505
 1220ERGO    C116381   3.599  12.707   7.597  0.0537  0.1461  0.0518
 1220ERGO    C216382   3.605  12.494   7.860 -0.0660 -0.0585 -0.3970
 1221ERGO   ROH16383  14.797   2.326   6.762  0.0843 -0.1508  0.0069
 1221ERGO    R116384  14.836   2.208   7.017  0.0142 -0.1751  0.0064
 1221ERGO    R216385  14.923   2.353   7.236  0.1425 -0.2353 -0.0046
 1221ERGO    R316386  14.699   2.251   7.351  0.0717 -0.0617  0.0165
 1221ERGO    R416387  14.862   2.340   7.576  0.1326 -0.1237 -0.0014
 1221ERGO    R516388  14.777   2.142   7.549 -0.0011 -0.0739  0.0394
 1221ERGO    C116389  14.616   2.236   7.881  0.0603  0.1043  0.0202
 1221ERGO    C216390  14.368   2.362   8.143 -0.1367  0.0274  0.0020
 1222ERGO   ROH16391  17.534   8.691   6.723 -0.0468 -0.1340  0.0040
 1222ERGO    R116392  17.664   8.642   6.969 -0.0401  0.0655  0.0425
 1222ERGO    R216393  17.569   8.738   7.210 -0.2471 -0.0579  0.0133
 1222ERGO    R316394  17.583   8.476   7.283  0.1100 -0.0395  0.0266
 1222ERGO    R416395  17.542   8.621   7.535 -0.2560 -0.0916  0.0004
 1222ERGO    R516396  17.701   8.479   7.491 -0.0107  0.1470  0.0943
 1222ERGO    C116397  17.540   8.308   7.792  0.0741 -0.0941  0.0053
 1222ERGO    C216398  17.340   8.318   8.174  0.1841  0.2830 -0.0432
 1223ERGO   ROH16399   1.160   8.406   6.568  0.2038 -0.1079 -0.0030
 1223ERGO    R116400   1.085   8.313   6.825 -0.0703  0.1961  0.0359
 1223ERGO    R216401   1.230   8.121   6.961 -0.5764 -0.1432  0.1339
 1223ERGO    R316402   1.232   8.309   7.157 -0.0960 -0.0433  0.0442
 1223ERGO    R416403   1.271   8.055   7.298 -0.5475 -0.0534  0.1474
 1223ERGO    R516404   1.119   8.205   7.341 -0.2219  0.2810  0.1519
 1223ERGO    C116405   1.297   8.193   7.678 -0.0798  0.0928  0.0709
 1223ERGO    C216406   1.518   8.085   7.867 -0.0131  0.2663  0.1614
 1224ERGO   ROH16407  11.252   0.319   6.289 -0.1369 -0.1051 -0.0204
 1224ERGO    R116408  11.279   0.512   6.495 -0.0510 -0.0640 -0.0690
 1224ERGO    R216409  11.139   0.496   6.732 -0.1239  0.1048 -0.0981
 1224ERGO    R316410  11.386   0.514   6.842 -0.1373 -0.0425 -0.0423
 1224ERGO    R416411  11.202   0.574   7.063 -0.1477  0.3645 -0.1531
 1224ERGO    R516412  11.370   0.697   6.996  0.0012  0.1291 -0.2260
 1224ERGO    C116413  11.472   0.637   7.359 -0.1741  0.3774 -0.1328
 1224ERGO    C216414  11.661   0.740   7.595  0.2117  0.2792  0.1441
 1225ERGO   ROH16415  13.132   0.389   6.707  0.0069  0.1309 -0.0504
 1225ERGO    R116416  13.224   0.386   6.975 -0.0800 -0.0618 -0.0207
 1225ERGO    R216417  13.229   0.613   7.133  0.1383 -0.1117  0.0508
 1225ERGO    R316418  13.085   0.457   7.303 -0.1033  0.0024 -0.0449
 1225ERGO    R416419  13.186   0.675   7.470 -0.0525 -0.0756  0.0210
 1225ERGO    R516420  13.209   0.462   7.508 -0.2444 -0.0917  0.0430
 1225ERGO    C116421  13.026   0.566   7.826 -0.3903  0.0526 -0.0862
 1225ERGO    C216422  12.966   0.525   8.146  0.0086 -0.3880  0.1335
 1226ERGO   ROH16423   4.413  15.546   5.968 -0.2416 -0.2660 -0.0975
 1226ERGO    R116424   4.354  15.551   6.245 -0.0357 -0.0519 -0.0539
 1226ERGO    R216425   4.121  15.445   6.348 -0.0530  0.2078  0.1798
 1226ERGO    R316426   4.293  15.306   6.507 -0.0569  0.1525  0.1364
 1226ERGO    R416427   4.051  15.340   6.670 -0.0298  0.1827  0.1770
 1226ERGO    R516428   4.255  15.394   6.726 -0.0081  0.1348  0.1540
 1226ERGO    C116429   4.172  15.149   7.007 -0.0200  0.1160  0.1346
 1226ERGO    C216430   4.236  14.957   7.235 -0.0294 -0.5944 -0.1876
 1227ERGO   ROH16431  11.316   3.372   6.736 -0.2850  0.0430  0.0431
 1227ERGO    R116432  11.315   3.458   7.006 -0.2352  0.1529  0.0077
 1227ERGO    R216433  11.108   3.399   7.179 -0.0992  0.0433  0.1209
 1227ERGO    R316434  11.309   3.299   7.333  0.0558  0.2851  0.0841
 1227ERGO    R416435  11.089   3.346   7.520 -0.1086 -0.2646  0.0760
 1227ERGO    R516436  11.293   3.420   7.539 -0.2318  0.1050  0.1835
 1227ERGO    C116437  11.266   3.221   7.863  0.0314 -0.2169  0.0154
 1227ERGO    C216438  11.381   3.125   8.190 -0.1044 -0.1523 -0.1914
 1228ERGO   ROH16439   5.194   6.465   7.023  0.1931  0.0870  0.1531
 1228ERGO    R116440   5.077   6.582   7.253  0.0598  0.0547  0.1034
 1228ERGO    R216441   4.819   6.681   7.255  0.0351  0.0028 -0.0149
 1228ERGO    R316442   4.792   6.515   7.468 -0.0291 -0.0137 -0.0361
 1228ERGO    R416443   4.610   6.738   7.524  0.0138  0.0113 -0.0334
 1228ERGO    R516444   4.766   6.662   7.655 -0.0231 -0.0344 -0.0228
 1228ERGO    C116445   4.462   6.615   7.881 -0.0590  0.0008 -0.0641
 1228ERGO    C216446   4.268   6.689   8.142 -0.0589  0.1097  0.1010
 1229ERGO   ROH16447   2.960   5.615   6.613 -0.1597  0.1481  0.1358
 1229ERGO    R116448   3.012   5.540   6.881 -0.2355  0.1495  0.1516
 1229ERGO    R216449   3.251   5.596   7.009 -0.1512 -0.1152  0.1227
 1229ERGO    R316450   3.087   5.710   7.194 -0.0015  0.1370  0.1031
 1229ERGO    R416451   3.284   5.562   7.351 -0.0939  0.0518  0.1343
 1229ERGO    R516452   3.068   5.545   7.366 -0.1043  0.2532  0.2026
 1229ERGO    C116453   3.150   5.648   7.724  0.0801  0.3857  0.1228
 1229ERGO    C216454   3.168   5.900   7.900 -0.2556 -0.1585  0.2160
 1230ERGO   ROH16455   4.723   8.633   6.646 -0.1687 -0.1660 -0.0404
 1230ERGO    R116456   4.568   8.595   6.879  0.0022 -0.1451  0.0778
 1230ERGO    R216457   4.679   8.520   7.121  0.2073  0.0831  0.0555
 1230ERGO    R316458   4.551   8.742   7.212  0.0938  0.0400  0.0028
 1230ERGO    R416459   4.551   8.559   7.440  0.0894  0.0466  0.0132
 1230ERGO    R516460   4.377   8.657   7.353  0.0783 -0.0217 -0.0495
 1230ERGO    C116461   4.356   8.790   7.710 -0.0859 -0.0151 -0.0608
 1230ERGO    C216462   4.362   9.010   8.093 -0.1638  0.2579 -0.0256
 1231ERGO   ROH16463   5.533  13.490   9.857  0.2802  0.1144 -0.3356
 1231ERGO    R116464   5.481  13.300   9.654 -0.0656  0.0925 -0.2337
 1231ERGO    R216465   5.255  13.310   9.495  0.0160  0.5135 -0.3421
 1231ERGO    R316466   5.436  13.305   9.293  0.1115 -0.0332 -0.2582
 1231ERGO    R416467   5.193  13.186   9.178 -0.1275  0.4797 -0.3012
 1231ERGO    R516468   5.392  13.098   9.179 -0.3290 -0.0022 -0.1604
 1231ERGO    C116469   5.327  13.110   8.803 -0.1216 -0.0531 -0.1986
 1231ERGO    C216470   5.402  13.282   8.618  0.1176 -0.1330 -0.0593
 1232ERGO   ROH16471   1.091  17.650   6.245 -0.1980  0.1161 -0.1856
 1232ERGO    R116472   1.160  17.574   6.508 -0.1470  0.0153 -0.2282
 1232ERGO    R216473   1.356  17.702   6.653 -0.0477 -0.1085 -0.2560
 1232ERGO    R316474   1.158  17.728   6.838  0.0233 -0.0744 -0.1834
 1232ERGO    R416475   1.407  17.742   6.993  0.0860 -0.2404 -0.2590
 1232ERGO    R516476   1.239  17.608   7.029  0.0326 -0.1753 -0.2476
 1232ERGO    C116477   1.251  17.791   7.364  0.2305 -0.2853 -0.1926
 1232ERGO    C216478   1.355  17.886   7.780 -0.2316  0.1332 -0.0118
 1233ERGO   ROH16479   8.753  13.308   6.706  0.0318 -0.1493 -0.0936
 1233ERGO    R116480   8.594  13.294   6.940  0.0255 -0.1207 -0.0957
 1233ERGO    R216481   8.693  13.201   7.181  0.0372 -0.0306 -0.0653
 1233ERGO    R316482   8.602  13.439   7.273 -0.0221 -0.0260 -0.1353
 1233ERGO    R416483   8.694  13.297   7.513  0.0574  0.0808 -0.0977
 1233ERGO    R516484   8.498  13.386   7.482  0.0244  0.0115 -0.1011
 1233ERGO    C116485   8.610  13.577   7.793  0.0135  0.1501 -0.1822
 1233ERGO    C216486   8.698  13.611   8.078  0.0874  0.1515 -0.1891
 1234ERGO   ROH16487   9.695  13.931   6.531  0.0733 -0.0560 -0.0256
 1234ERGO    R116488   9.859  13.850   6.747  0.0674 -0.0369 -0.0143
 1234ERGO    R216489   9.960  14.027   6.933  0.0036 -0.0306  0.0122
 1234ERGO    R316490   9.841  13.860   7.110  0.0240 -0.0743 -0.0148
 1234ERGO    R416491   9.955  14.073   7.275 -0.1356  0.0005  0.0071
 1234ERGO    R516492   9.988  13.859   7.299 -0.0381  0.0159  0.0365
 1234ERGO    C116493   9.841  13.942   7.642 -0.1976 -0.0224 -0.0213
 1234ERGO    C216494   9.957  14.104   7.949 -0.1454  0.2133  0.0424
 1235ERGO   ROH16495   2.301   5.024  10.154  0.4533 -0.3156  0.0235
 1235ERGO    R116496   2.211   5.145   9.915  0.1813 -0.2906  0.1358
 1235ERGO    R216497   2.379   5.283   9.745 -0.0565 -0.0622  0.0803
 1235ERGO    R316498   2.279   5.112   9.559 -0.0270 -0.0709  0.0723
 1235ERGO    R416499   2.457   5.292   9.409 -0.1073  0.0099  0.0701
 1235ERGO    R516500   2.247   5.249   9.365 -0.1006 -0.0542  0.0950
 1235ERGO    C116501   2.409   5.136   9.038 -0.1091  0.0437  0.0567
 1235ERGO    C216502   2.490   5.269   8.702 -0.1073 -0.0719 -0.1143
 1236ERGO   ROH16503  13.514  13.216   7.010  0.0160  0.3042 -0.0935
 1236ERGO    R116504  13.564  13.350   7.254 -0.0951  0.3671 -0.1045
 1236ERGO    R216505  13.408  13.561   7.342 -0.4532  0.0641  0.0162
 1236ERGO    R316506  13.384  13.407   7.565 -0.0284 -0.0214  0.0103
 1236ERGO    R416507  13.394  13.682   7.666 -0.4251 -0.0155  0.0471
 1236ERGO    R516508  13.521  13.516   7.728 -0.0926  0.1855 -0.0722
 1236ERGO    C116509  13.364  13.608   8.063 -0.0102 -0.1423  0.0595
 1236ERGO    C216510  13.235  13.918   8.255 -0.1102 -0.3036  0.0139
 1237ERGO   ROH16511   3.016  14.295   6.437  0.0886 -0.0635  0.2561
 1237ERGO    R116512   3.114  14.440   6.660  0.1072 -0.0692  0.2527
 1237ERGO    R216513   2.948  14.539   6.857  0.1163 -0.0220  0.2411
 1237ERGO    R316514   3.113  14.400   7.022  0.0797 -0.0482  0.2543
 1237ERGO    R416515   3.015  14.623   7.186  0.1931  0.0299  0.2116
 1237ERGO    R516516   3.224  14.569   7.151  0.1648 -0.0633  0.1988
 1237ERGO    C116517   3.210  14.541   7.531  0.2035  0.0355  0.2067
 1237ERGO    C216518   3.179  14.633   7.819  0.1447  0.0838  0.0975
 1238ERGO   ROH16519   2.652   6.732   6.526 -0.0672 -0.0738  0.1675
 1238ERGO    R116520   2.840   6.687   6.734 -0.0421 -0.2843  0.1006
 1238ERGO    R216521   2.808   6.790   6.989  0.2474 -0.0978  0.0619
 1238ERGO    R316522   2.839   6.530   7.062 -0.1529 -0.1190  0.1826
 1238ERGO    R416523   2.974   6.682   7.272  0.3518 -0.2184 -0.0434
 1238ERGO    R516524   3.059   6.520   7.154 -0.0615 -0.4565 -0.0423
 1238ERGO    C116525   3.100   6.376   7.505  0.0368 -0.3084  0.0087
 1238ERGO    C216526   2.970   6.437   7.823  0.0184 -0.0271  0.1275
 1239ERGO   ROH16527  11.717  14.054   6.605  0.0612  0.1734 -0.0344
 1239ERGO    R116528  11.552  14.020   6.833  0.0654  0.1332 -0.0380
 1239ERGO    R216529  11.639  13.891   7.061  0.0807  0.1242 -0.0511
 1239ERGO    R316530  11.560  14.121   7.183  0.0517  0.1031 -0.0286
 1239ERGO    R416531  11.514  13.910   7.383 -0.1720  0.0411 -0.1405
 1239ERGO    R516532  11.369  14.057   7.312 -0.0731  0.1111 -0.2047
 1239ERGO    C116533  11.369  14.138   7.685 -0.3465 -0.0270 -0.1713
 1239ERGO    C216534  11.609  14.215   8.030  0.1435  0.1058  0.0997
 1240ERGO   ROH16535   3.023   2.968   6.636  0.1125 -0.1285 -0.0395
 1240ERGO    R116536   3.140   3.017   6.889  0.1161 -0.0939 -0.0457
 1240ERGO    R216537   3.063   3.228   7.051  0.1395 -0.0461 -0.0813
 1240ERGO    R316538   3.025   3.031   7.234  0.1079 -0.0120 -0.0545
 1240ERGO    R416539   3.129   3.257   7.389  0.1956 -0.0438 -0.0940
 1240ERGO    R516540   3.208   3.054   7.386  0.1290 -0.0598 -0.0838
 1240ERGO    C116541   3.132   3.089   7.758  0.1986 -0.0106 -0.0761
 1240ERGO    C216542   3.121   2.942   8.135  0.3630  0.0897 -0.1244
 1241ERGO   ROH16543   3.189   7.216   6.510  0.2107  0.0716 -0.0269
 1241ERGO    R116544   3.036   7.119   6.728  0.2133  0.0356 -0.0417
 1241ERGO    R216545   3.149   7.055   6.972  0.1866  0.1968  0.0123
 1241ERGO    R316546   2.963   7.228   7.067  0.0334  0.0965 -0.0990
 1241ERGO    R416547   3.086   7.112   7.307  0.2330  0.4590 -0.0205
 1241ERGO    R516548   2.873   7.118   7.260  0.2095  0.1887  0.0382
 1241ERGO    C116549   2.874   7.307   7.591  0.1162  0.5175 -0.1440
 1241ERGO    C216550   2.861   7.210   7.953 -0.0438  0.1045  0.1182
 1242ERGO   ROH16551   4.204   7.809   6.486  0.1742  0.3111 -0.0266
 1242ERGO    R116552   4.069   7.717   6.717  0.0631  0.2184 -0.1271
 1242ERGO    R216553   4.102   7.834   6.965  0.0644  0.0233 -0.0330
 1242ERGO    R316554   3.831   7.852   6.956  0.0760  0.1789 -0.0918
 1242ERGO    R416555   3.895   7.837   7.242 -0.0027  0.0022 -0.0826
 1242ERGO    R516556   3.756   7.709   7.133 -0.0479  0.1331 -0.1802
 1242ERGO    C116557   3.520   7.856   7.395 -0.0308  0.1361 -0.1666
 1242ERGO    C216558   3.530   7.977   7.713 -0.2453  0.0579  0.1243
 1243ERGO   ROH16559   9.235   1.095   6.816  0.2765 -0.1881 -0.0910
 1243ERGO    R116560   9.342   1.090   7.078  0.1862 -0.0595 -0.0504
 1243ERGO    R216561   9.290   1.287   7.265  0.0559 -0.0093 -0.1388
 1243ERGO    R316562   9.212   1.076   7.417  0.0707  0.0195 -0.0910
 1243ERGO    R416563   9.309   1.275   7.609  0.2066  0.0053 -0.1460
 1243ERGO    R516564   9.374   1.068   7.594  0.1471 -0.0114 -0.1624
 1243ERGO    C116565   9.247   1.071   7.954  0.3081  0.0409 -0.1052
 1243ERGO    C216566   9.477   1.129   8.166 -0.0843  0.4298 -0.0382
 1244ERGO   ROH16567   3.366  16.436   7.705  0.1079 -0.0109 -0.0851
 1244ERGO    R116568   3.367  16.698   7.596  0.1892 -0.0368 -0.1490
 1244ERGO    R216569   3.339  16.924   7.753 -0.1608 -0.0076 -0.2448
 1244ERGO    R316570   3.570  16.998   7.630  0.0227  0.0483  0.1224
 1244ERGO    R416571   3.427  17.249   7.677 -0.2128 -0.0031 -0.2857
 1244ERGO    R516572   3.506  17.178   7.487  0.1724 -0.0767 -0.1062
 1244ERGO    C116573   3.695  17.508   7.518 -0.0708  0.0519  0.0351
 1244ERGO    C216574   3.942  17.673   7.550  0.1560 -0.2520  0.1219
 1245ERGO   ROH16575   2.647  10.861   6.203 -0.1683  0.1442  0.0486
 1245ERGO    R116576   2.636  10.961   6.467 -0.0168  0.2045  0.0331
 1245ERGO    R216577   2.568  10.804   6.684 -0.0845  0.2982  0.0823
 1245ERGO    R316578   2.805  10.895   6.783  0.0169  0.1299 -0.0008
 1245ERGO    R416579   2.657  10.801   7.018 -0.0851  0.4950  0.0850
 1245ERGO    R516580   2.746  10.998   6.991  0.1293  0.3771 -0.0889
 1245ERGO    C116581   2.931  10.885   7.305  0.0098  0.4516  0.0085
 1245ERGO    C216582   3.038  10.694   7.489  0.0534  0.1324 -0.1241
 1246ERGO   ROH16583  12.359  17.610   6.778 -0.1095 -0.0634  0.0426
 1246ERGO    R116584  12.468  17.678   7.030  0.0435  0.0111 -0.0422
 1246ERGO    R216585  12.311  17.714   7.255  0.1627  0.2514  0.0026
 1246ERGO    R316586  12.478  17.528   7.362  0.0800  0.1991  0.0434
 1246ERGO    R416587  12.352  17.657   7.593  0.0235  0.2076  0.0133
 1246ERGO    R516588  12.566  17.634   7.558  0.0337  0.1599  0.0879
 1246ERGO    C116589  12.533  17.450   7.891 -0.1352  0.1329  0.0577
 1246ERGO    C216590  12.535  17.447   8.178 -0.1400  0.4255 -0.1263
 1247ERGO   ROH16591  17.812  14.970   6.515  0.2496  0.2534 -0.0423
 1247ERGO    R116592  17.841  15.120   6.754 -0.0848  0.3904 -0.0809
 1247ERGO    R216593  17.636  15.271   6.860 -0.5226 -0.2140  0.0038
 1247ERGO    R316594  17.686  15.125   7.083  0.0578 -0.0469 -0.0021
 1247ERGO    R416595  17.628  15.394   7.183 -0.4748 -0.1544 -0.0183
 1247ERGO    R516596  17.805  15.275   7.228 -0.1400  0.2701 -0.1650
 1247ERGO    C116597  17.670  15.328   7.580  0.0979  0.0371 -0.0367
 1247ERGO    C216598  17.617  15.287   8.004 -0.1326 -0.1690  0.0649
 1248ERGO   ROH16599  16.869  14.858   6.515 -0.1084  0.0022 -0.0520
 1248ERGO    R116600  16.766  14.887   6.777 -0.0478  0.0428 -0.0322
 1248ERGO    R216601  16.512  14.804   6.847 -0.0522  0.1028  0.0268
 1248ERGO    R316602  16.644  14.666   7.040 -0.0417  0.0870  0.0079
 1248ERGO    R416603  16.369  14.687   7.139 -0.0443  0.0482  0.0085
 1248ERGO    R516604  16.550  14.746   7.245 -0.0505  0.0490  0.0184
 1248ERGO    C116605  16.410  14.489   7.490 -0.0299  0.0016 -0.0199
 1248ERGO    C216606  16.124  14.536   7.794  0.0217  0.1355 -0.1506
 1249ERGO   ROH16607   3.454   4.662   6.750 -0.2364  0.2389  0.0660
 1249ERGO    R116608   3.314   4.497   6.933 -0.0289  0.0071  0.0196
 1249ERGO    R216609   3.430   4.276   7.053  0.2943  0.1925  0.0523
 1249ERGO    R316610   3.349   4.399   7.282  0.0180  0.0609  0.0311
 1249ERGO    R416611   3.413   4.125   7.363  0.4541  0.1517  0.0426
 1249ERGO    R516612   3.226   4.231   7.399  0.2576 -0.1547 -0.0113
 1249ERGO    C116613   3.328   4.152   7.758  0.2879  0.0044  0.0169
 1249ERGO    C216614   3.286   4.165   8.070 -0.1644  0.0028 -0.3192
 1250ERGO   ROH16615  14.788   3.190   8.476  0.0280 -0.1508  0.0162
 1250ERGO    R116616  14.652   3.141   8.719 -0.0650  0.0103 -0.0004
 1250ERGO    R216617  14.730   2.944   8.897 -0.2636 -0.0248  0.0591
 1250ERGO    R316618  14.732   3.150   9.074 -0.1267  0.0143  0.0121
 1250ERGO    R416619  14.669   2.914   9.236 -0.2910  0.1029  0.0648
 1250ERGO    R516620  14.555   3.099   9.226 -0.1616  0.1756  0.0208
 1250ERGO    C116621  14.634   3.090   9.599 -0.1783  0.2139  0.0241
 1250ERGO    C216622  14.722   3.078   9.994 -0.2725 -0.2012  0.2561
 1251ERGO   ROH16623   5.828  13.089   5.797 -0.1786 -0.0485  0.1189
 1251ERGO    R116624   5.661  13.118   6.023 -0.1045 -0.0610  0.1758
 1251ERGO    R216625   5.695  12.969   6.254  0.0421  0.0075  0.1993
 1251ERGO    R316626   5.701  13.214   6.372 -0.0100  0.0389  0.1381
 1251ERGO    R416627   5.705  13.024   6.595  0.1015  0.0926  0.1842
 1251ERGO    R516628   5.566  13.189   6.568  0.0415  0.0418  0.1748
 1251ERGO    C116629   5.717  13.285   6.904  0.0871  0.1716  0.1179
 1251ERGO    C216630   5.931  13.409   7.119  0.3795 -0.0071  0.1056
 1252ERGO   ROH16631   3.001   1.781   6.834 -0.1451 -0.0877 -0.1041
 1252ERGO    R116632   2.920   1.627   7.057  0.0700  0.0087  0.0441
 1252ERGO    R216633   3.034   1.655   7.307  0.0790  0.3599  0.0042
 1252ERGO    R316634   2.776   1.691   7.385  0.0466  0.1271  0.0113
 1252ERGO    R416635   2.903   1.551   7.609  0.1498  0.1339 -0.0404
 1252ERGO    R516636   2.722   1.491   7.504  0.1992  0.0340 -0.0707
 1252ERGO    C116637   2.584   1.524   7.858  0.1606 -0.2162 -0.0599
 1252ERGO    C216638   2.365   1.516   8.236  0.0416 -0.1675  0.3844
 1253ERGO   ROH16639   0.642  14.017   6.759 -0.2634 -0.2867 -0.1081
 1253ERGO    R116640   0.699  14.113   7.019  0.1174 -0.2554 -0.1976
 1253ERGO    R216641   0.516  14.100   7.226  0.1752  0.3527 -0.0939
 1253ERGO    R316642   0.719  13.972   7.354 -0.0787 -0.0941 -0.1150
 1253ERGO    R416643   0.533  14.048   7.567  0.1178  0.3652 -0.0884
 1253ERGO    R516644   0.746  14.093   7.558  0.2327 -0.1145 -0.1363
 1253ERGO    C116645   0.733  13.898   7.886 -0.1539 -0.0470 -0.1050
 1253ERGO    C216646   0.786  13.607   8.054  0.0838 -0.0531 -0.0178
 1254ERGO   ROH16647  11.165   1.770   6.522  0.0778 -0.3242 -0.0459
 1254ERGO    R116648  11.076   1.876   6.769  0.2617 -0.1103 -0.0688
 1254ERGO    R216649  10.872   1.760   6.915  0.1419  0.2085  0.0157
 1254ERGO    R316650  11.057   1.763   7.114  0.1830  0.0502 -0.0177
 1254ERGO    R416651  10.826   1.623   7.229  0.0586  0.2753  0.0341
 1254ERGO    R516652  10.929   1.795   7.314  0.2415  0.1911  0.0031
 1254ERGO    C116653  10.973   1.544   7.598  0.0487  0.1656  0.0134
 1254ERGO    C216654  10.940   1.355   7.725 -0.4012 -0.1316  0.1652
 1255ERGO   ROH16655   8.157  13.286  10.233  0.0334  0.0579 -0.0511
 1255ERGO    R116656   8.368  13.295  10.045  0.0750 -0.0399 -0.0102
 1255ERGO    R216657   8.500  13.067   9.957 -0.0829 -0.1132 -0.0630
 1255ERGO    R316658   8.430  13.162   9.712  0.0314  0.0239 -0.0436
 1255ERGO    R416659   8.690  13.034   9.670 -0.1107 -0.2592 -0.0651
 1255ERGO    R516660   8.636  13.237   9.616  0.1204 -0.1845 -0.0190
 1255ERGO    C116661   8.736  13.103   9.273 -0.0197 -0.2155 -0.0482
 1255ERGO    C216662   8.774  13.153   8.920  0.1994  0.2775 -0.3684
 1256ERGO   ROH16663  14.262   9.877   7.064  0.0983  0.0186  0.0347
 1256ERGO    R116664  14.114   9.894   7.305  0.0608  0.1024  0.0055
 1256ERGO    R216665  14.192   9.766   7.537 -0.0946 -0.0009 -0.0010
 1256ERGO    R316666  14.171  10.015   7.643  0.0895 -0.0004  0.0386
 1256ERGO    R416667  14.173   9.836   7.875 -0.0664 -0.0459  0.0106
 1256ERGO    R516668  14.024   9.989   7.830  0.0520  0.0792  0.0232
 1256ERGO    C116669  14.143  10.112   8.171  0.1228 -0.0716  0.0545
 1256ERGO    C216670  14.244   9.982   8.451 -0.3435  0.0068 -0.0259
 1257ERGO   ROH16671   6.075  14.520   6.268 -0.0296  0.0591  0.0242
 1257ERGO    R116672   6.135  14.655   6.510 -0.0089  0.0530  0.0222
 1257ERGO    R216673   5.941  14.769   6.669  0.0151  0.1362 -0.0098
 1257ERGO    R316674   6.053  14.615   6.862 -0.0663  0.1082  0.0157
 1257ERGO    R416675   5.888  14.807   7.008 -0.2260  0.0133 -0.0316
 1257ERGO    R516676   6.099  14.767   7.041 -0.2327  0.0677  0.0968
 1257ERGO    C116677   5.963  14.684   7.387 -0.4427 -0.0844 -0.0202
 1257ERGO    C216678   5.726  14.729   7.627 -0.3981 -0.0878  0.0266
 1258ERGO   ROH16679  12.276   9.985   8.359 -0.2104 -0.0104  0.0575
 1258ERGO    R116680  12.544   9.897   8.379 -0.1524  0.0823 -0.2728
 1258ERGO    R216681  12.752  10.021   8.245 -0.2755  0.5400 -0.0528
 1258ERGO    R316682  12.860  10.036   8.494 -0.1842 -0.0266 -0.0459
 1258ERGO    R416683  13.072  10.130   8.314 -0.3343  0.6271  0.0889
 1258ERGO    R516684  13.089   9.971   8.463 -0.1394  0.2358 -0.3247
 1258ERGO    C116685  13.361  10.207   8.588 -0.2827  0.1459  0.1778
 1258ERGO    C216686  13.680  10.406   8.583  0.0191 -0.1320  0.0017
 1259ERGO   ROH16687  14.874  15.558   6.687  0.0010 -0.1197  0.0643
 1259ERGO    R116688  14.780  15.596   6.951 -0.0529 -0.1341  0.0479
 1259ERGO    R216689  14.653  15.397   7.094  0.1402 -0.2244  0.1026
 1259ERGO    R316690  14.845  15.451   7.278  0.0798  0.0291  0.0947
 1259ERGO    R416691  14.674  15.251   7.406  0.3524 -0.2001  0.1005
 1259ERGO    R516692  14.730  15.444   7.488  0.0992 -0.1258  0.0994
 1259ERGO    C116693  14.867  15.216   7.761  0.4194  0.0519  0.0918
 1259ERGO    C216694  15.045  15.168   8.088 -0.0681  0.2694 -0.2740
 1260ERGO   ROH16695  14.966   5.270   6.516  0.0794 -0.2088 -0.0212
 1260ERGO    R116696  14.904   5.240   6.790 -0.0038 -0.1042 -0.0280
 1260ERGO    R216697  14.793   5.444   6.940  0.0897  0.0038 -0.1012
 1260ERGO    R316698  14.604   5.257   6.996 -0.0432  0.1359 -0.1016
 1260ERGO    R416699  14.720   5.325   7.257  0.1500 -0.0974 -0.1253
 1260ERGO    R516700  14.701   5.126   7.172 -0.0653 -0.0381 -0.2187
 1260ERGO    C116701  14.501   5.080   7.494  0.0604 -0.0323 -0.1397
 1260ERGO    C216702  14.407   5.222   7.818 -0.1902  0.2883 -0.3182
 1261ERGO   ROH16703   1.183  16.328   6.639 -0.2821  0.0090  0.0312
 1261ERGO    R116704   1.024  16.339   6.873 -0.1947  0.0217  0.0908
 1261ERGO    R216705   1.056  16.162   7.083 -0.1920 -0.0407  0.0417
 1261ERGO    R316706   1.081  16.390   7.229 -0.0447 -0.0820  0.0816
 1261ERGO    R416707   0.953  16.199   7.411 -0.3182  0.0230 -0.0048
 1261ERGO    R516708   0.881  16.399   7.361 -0.1005  0.0970 -0.0161
 1261ERGO    C116709   0.916  16.435   7.739 -0.2534  0.0214  0.0056
 1261ERGO    C216710   0.934  16.486   8.031 -0.0061 -0.2459 -0.0335
 1262ERGO   ROH16711  16.323  10.270   8.814  0.0901  0.0525  0.0894
 1262ERGO    R116712  16.430  10.136   9.039 -0.1092  0.0589  0.1896
 1262ERGO    R216713  16.695  10.161   9.115 -0.0926 -0.2034  0.2220
 1262ERGO    R316714  16.586  10.230   9.354 -0.0595  0.0660  0.1630
 1262ERGO    R416715  16.865  10.163   9.416 -0.1630 -0.2804  0.2638
 1262ERGO    R516716  16.687  10.080   9.511 -0.3003  0.0065  0.2651
 1262ERGO    C116717  16.862  10.229   9.815 -0.1728 -0.0724  0.2328
 1262ERGO    C216718  17.070  10.138  10.023  0.0263  0.0593 -0.0508
 1263ERGO   ROH16719  17.632   5.859   6.543  0.2837 -0.1313 -0.2148
 1263ERGO    R116720  17.621   5.945   6.812  0.0121 -0.1090 -0.2310
 1263ERGO    R216721  17.506   5.794   7.012  0.1992 -0.2906 -0.2653
 1263ERGO    R316722  17.747   5.828   7.133  0.0917  0.1655 -0.1567
 1263ERGO    R416723  17.559   5.777   7.353  0.1044 -0.4822 -0.2581
 1263ERGO    R516724  17.696   5.947   7.335 -0.2719 -0.1288 -0.0576
 1263ERGO    C116725  17.817   5.799   7.665 -0.0518 -0.1657 -0.1519
 1263ERGO    C216726  17.888   5.586   8.050 -0.2082 -0.1460 -0.1171
 1264ERGO   ROH16727  17.373   1.405   6.248  0.1265  0.1292  0.1066
 1264ERGO    R116728  17.305   1.496   6.507  0.1725  0.1139  0.1245
 1264ERGO    R216729  17.148   1.349   6.681 -0.0302  0.2220  0.0415
 1264ERGO    R316730  17.359   1.385   6.850 -0.0211 -0.0694  0.0958
 1264ERGO    R416731  17.121   1.416   7.019 -0.0199  0.3479  0.0181
 1264ERGO    R516732  17.286   1.557   7.000  0.2100  0.0828  0.0326
 1264ERGO    C116733  17.303   1.487   7.374 -0.0051  0.1477  0.0555
 1264ERGO    C216734  17.186   1.410   7.702  0.1671  0.2996 -0.0423
 1265ERGO   ROH16735   4.414   2.330   6.379 -0.0645 -0.1616 -0.1182
 1265ERGO    R116736   4.346   2.349   6.654 -0.0783 -0.1977 -0.1189
 1265ERGO    R216737   4.302   2.126   6.812  0.1530 -0.2274 -0.0903
 1265ERGO    R316738   4.491   2.241   6.969  0.0417 -0.0125 -0.1097
 1265ERGO    R416739   4.337   2.073   7.152  0.1384 -0.0412 -0.0583
 1265ERGO    R516740   4.380   2.284   7.176 -0.0237  0.0018 -0.1489
 1265ERGO    C116741   4.536   2.149   7.497  0.0255  0.2689 -0.0578
 1265ERGO    C216742   4.734   2.019   7.837 -0.0295 -0.2416  0.4193
 1266ERGO   ROH16743  15.965  11.139   6.829 -0.1426  0.1124 -0.0640
 1266ERGO    R116744  15.839  11.112   7.081 -0.0323  0.0433 -0.0136
 1266ERGO    R216745  15.968  11.005   7.301  0.0508 -0.0701 -0.1053
 1266ERGO    R316746  15.893  11.238   7.418  0.1554 -0.0940  0.0065
 1266ERGO    R416747  15.984  11.069   7.640  0.0021 -0.2525 -0.0684
 1266ERGO    R516748  15.792  11.171   7.624  0.0711 -0.1400 -0.0572
 1266ERGO    C116749  15.923  11.326   7.947  0.0720 -0.3812  0.0580
 1266ERGO    C216750  16.178  11.381   8.098 -0.3386  0.0379  0.1807
 1267ERGO   ROH16751  15.901   2.515   6.166  0.0148  0.1314  0.0157
 1267ERGO    R116752  15.999   2.590   6.420 -0.1598 -0.0001  0.1248
 1267ERGO    R216753  16.122   2.834   6.466  0.1051 -0.1539  0.2574
 1267ERGO    R316754  15.934   2.855   6.661 -0.0828  0.0812  0.0569
 1267ERGO    R416755  16.149   3.036   6.745  0.1457 -0.3252  0.3789
 1267ERGO    R516756  16.060   2.876   6.864 -0.2681 -0.2312  0.2113
 1267ERGO    C116757  15.989   3.173   7.091 -0.0069 -0.2043  0.2614
 1267ERGO    C216758  16.051   3.291   7.315  0.3219 -0.1238 -0.0838
 1268ERGO   ROH16759  15.432   5.114   6.686  0.1231  0.3089  0.1477
 1268ERGO    R116760  15.333   5.019   6.933  0.1582  0.1988  0.1202
 1268ERGO    R216761  15.408   5.129   7.176 -0.0220  0.2770  0.1420
 1268ERGO    R316762  15.140   5.155   7.210 -0.0617 -0.0099  0.0722
 1268ERGO    R416763  15.250   5.152   7.482 -0.1090  0.2708  0.0978
 1268ERGO    R516764  15.092   5.023   7.405  0.0514  0.0438  0.1376
 1268ERGO    C116765  14.906   5.190   7.693 -0.1968 -0.0022  0.0066
 1268ERGO    C216766  14.853   5.112   7.992 -0.1545 -0.2435  0.1243
 1269ERGO   ROH16767   4.945   3.509   6.528  0.0474  0.0427  0.0136
 1269ERGO    R116768   4.999   3.303   6.713  0.0045  0.0499  0.0343
 1269ERGO    R216769   5.194   3.326   6.908 -0.0563  0.0665  0.0933
 1269ERGO    R316770   4.988   3.263   7.075 -0.1029  0.0560  0.0322
 1269ERGO    R416771   5.225   3.150   7.204 -0.1396  0.0391  0.0861
 1269ERGO    R516772   5.041   3.044   7.155 -0.1292  0.0474  0.0267
 1269ERGO    C116773   5.051   2.989   7.533 -0.2319  0.0133  0.0246
 1269ERGO    C216774   5.084   2.901   7.848 -0.2997 -0.3857  0.2949
 1270ERGO   ROH16775  15.430  13.045  10.491 -0.1175 -0.0480  0.0809
 1270ERGO    R116776  15.367  12.936  10.238  0.0942 -0.0197  0.0143
 1270ERGO    R216777  15.151  13.024  10.088  0.0224 -0.2306 -0.0029
 1270ERGO    R316778  15.341  13.058   9.896  0.0319  0.0991  0.0598
 1270ERGO    R416779  15.089  13.054   9.749  0.0649 -0.1673 -0.0058
 1270ERGO    R516780  15.263  12.931   9.710  0.2421  0.0718 -0.0157
 1270ERGO    C116781  15.231  13.105   9.373  0.0984  0.1789  0.0516
 1270ERGO    C216782  15.205  13.038   8.934  0.0466  0.1183  0.1322
 1271ERGO   ROH16783   4.844  16.311   6.415  0.1915  0.1589 -0.0490
 1271ERGO    R116784   4.965  16.187   6.639  0.0526  0.1122  0.0000
 1271ERGO    R216785   5.078  16.332   6.845 -0.0630  0.0674  0.0921
 1271ERGO    R316786   4.911  16.182   6.999 -0.1597  0.0467 -0.0307
 1271ERGO    R416787   5.115  16.281   7.185 -0.2288 -0.0347  0.0966
 1271ERGO    R516788   5.056  16.073   7.156 -0.2468 -0.0203  0.0074
 1271ERGO    C116789   4.979  16.112   7.527 -0.4162 -0.1138 -0.0162
 1271ERGO    C216790   5.097  16.215   7.940 -0.3272  0.0486  0.0812
 1272ERGO   ROH16791  12.367   3.547   6.940 -0.2336  0.1226 -0.0065
 1272ERGO    R116792  12.232   3.339   7.078 -0.0498 -0.0477 -0.0772
 1272ERGO    R216793  12.358   3.105   7.154  0.1961  0.0884 -0.0411
 1272ERGO    R316794  12.263   3.172   7.399  0.0148 -0.0333 -0.0769
 1272ERGO    R416795  12.380   2.906   7.436  0.2093  0.0589 -0.0635
 1272ERGO    R516796  12.178   2.967   7.489  0.1348 -0.1156 -0.1562
 1272ERGO    C116797  12.303   2.854   7.831  0.0470 -0.0725 -0.1103
 1272ERGO    C216798  12.209   2.910   8.171  0.2576 -0.0687 -0.1191
 1273ERGO   ROH16799  17.232   3.051   6.215 -0.0516  0.4244  0.1425
 1273ERGO    R116800  17.263   3.057   6.497  0.0654  0.1854  0.1354
 1273ERGO    R216801  17.121   2.890   6.666  0.0935  0.0870  0.0532
 1273ERGO    R316802  17.369   2.824   6.755  0.1118 -0.0546 -0.0933
 1273ERGO    R416803  17.190   2.750   6.974  0.1735 -0.1050 -0.0489
 1273ERGO    R516804  17.365   2.878   6.988  0.2322 -0.1746 -0.0580
 1273ERGO    C116805  17.462   2.606   7.237  0.2373 -0.3497 -0.2459
 1273ERGO    C216806  17.478   2.485   7.585 -0.2508  0.2407 -0.3520
 1274ERGO   ROH16807  16.156  11.571   6.825 -0.0005  0.0245 -0.0460
 1274ERGO    R116808  16.186  11.520   7.102  0.0662  0.0401 -0.0497
 1274ERGO    R216809  16.301  11.701   7.276  0.0526  0.0767 -0.0756
 1274ERGO    R316810  16.068  11.668   7.413  0.0859  0.0192 -0.0329
 1274ERGO    R416811  16.244  11.810   7.599  0.0437  0.1613 -0.1055
 1274ERGO    R516812  16.137  11.624   7.638  0.1334  0.1279 -0.0273
 1274ERGO    C116813  15.993  11.842   7.916  0.0699  0.1564 -0.0828
 1274ERGO    C216814  15.930  11.938   8.236  0.1105 -0.2168  0.0025
 1275ERGO   ROH16815  10.064   3.624   6.796 -0.0478  0.0046 -0.0061
 1275ERGO    R116816  10.064   3.650   7.078  0.0627  0.1600 -0.0186
 1275ERGO    R216817   9.951   3.867   7.208 -0.1540  0.0893 -0.0833
 1275ERGO    R316818   9.814   3.675   7.341  0.1611 -0.0201  0.0936
 1275ERGO    R416819   9.847   3.890   7.537 -0.0151  0.1360 -0.0425
 1275ERGO    R516820   9.902   3.681   7.564  0.2699  0.2170  0.0465
 1275ERGO    C116821   9.658   3.723   7.853  0.3616  0.0604  0.1474
 1275ERGO    C216822   9.536   3.661   8.173  0.2647 -0.1543 -0.0959
 1276ERGO   ROH16823  10.860   7.357   7.341 -0.1793  0.0754  0.1027
 1276ERGO    R116824  11.049   7.347   7.550 -0.1063 -0.0054  0.0332
 1276ERGO    R216825  10.994   7.439   7.805  0.0417  0.0641  0.0409
 1276ERGO    R316826  11.074   7.189   7.877 -0.0775  0.0265  0.0464
 1276ERGO    R416827  11.112   7.351   8.118 -0.0511 -0.0019  0.0586
 1276ERGO    R516828  11.262   7.226   8.021 -0.0877 -0.0613  0.0814
 1276ERGO    C116829  11.256   7.066   8.368 -0.2170 -0.0756  0.0739
 1276ERGO    C216830  11.328   6.882   8.541  0.1090  0.0533 -0.1001
 1277ERGO   ROH16831   9.785  12.426   6.713 -0.1011  0.1109  0.0752
 1277ERGO    R116832   9.851  12.504   6.977 -0.1692  0.0508  0.1103
 1277ERGO    R216833   9.678  12.467   7.190 -0.1342 -0.2090  0.0981
 1277ERGO    R316834   9.892  12.338   7.298 -0.0105 -0.0618  0.0333
 1277ERGO    R416835   9.698  12.356   7.517  0.0462 -0.1909  0.0942
 1277ERGO    R516836   9.905  12.422   7.522  0.0034 -0.0488  0.0272
 1277ERGO    C116837   9.910  12.170   7.809  0.2673 -0.0422  0.0310
 1277ERGO    C216838  10.010  11.878   7.984  0.1138  0.1795  0.0275
 1278ERGO   ROH16839  13.759  16.818  10.334  0.0100  0.2414 -0.0076
 1278ERGO    R116840  13.701  16.776  10.060  0.1056 -0.0764  0.0181
 1278ERGO    R216841  13.576  16.966   9.903 -0.1767 -0.3956 -0.1558
 1278ERGO    R316842  13.793  16.930   9.744 -0.0975 -0.1900 -0.0980
 1278ERGO    R416843  13.575  16.994   9.559 -0.0852 -0.3214 -0.1512
 1278ERGO    R516844  13.706  16.821   9.549  0.0527 -0.2150 -0.1501
 1278ERGO    C116845  13.778  16.978   9.208  0.0425 -0.0853 -0.0941
 1278ERGO    C216846  13.863  17.088   8.847 -0.0375  0.0786 -0.4317
 1279ERGO   ROH16847  14.693   7.865   6.819 -0.2647  0.0815 -0.0153
 1279ERGO    R116848  14.556   7.898   7.065 -0.1559  0.0832  0.0449
 1279ERGO    R216849  14.531   7.693   7.249 -0.1917  0.0471 -0.0054
 1279ERGO    R316850  14.641   7.875   7.418 -0.0374 -0.0579  0.0103
 1279ERGO    R416851  14.509   7.683   7.594 -0.5247  0.2181 -0.0171
 1279ERGO    R516852  14.481   7.898   7.594 -0.1710  0.2775 -0.1400
 1279ERGO    C116853  14.600   7.849   7.953 -0.5737  0.2190 -0.0092
 1279ERGO    C216854  14.693   7.775   8.216 -0.0088  0.1347  0.4338
 1280ERGO   ROH16855   1.753   1.981   6.375  0.0159  0.1009 -0.0339
 1280ERGO    R116856   1.732   2.163   6.590  0.0253  0.0097  0.0440
 1280ERGO    R216857   1.506   2.182   6.748  0.0623 -0.1078  0.1057
 1280ERGO    R316858   1.684   2.143   6.950  0.1195 -0.1434  0.0501
 1280ERGO    R416859   1.442   2.244   7.082  0.2026 -0.0094  0.1160
 1280ERGO    R516860   1.643   2.325   7.100  0.2488 -0.0908  0.0272
 1280ERGO    C116861   1.570   2.244   7.466  0.3379  0.0145  0.0698
 1280ERGO    C216862   1.554   2.165   7.803 -0.0766 -0.2103  0.0053
 1281ERGO   ROH16863   6.398  15.523   6.248  0.2649 -0.1341  0.0130
 1281ERGO    R116864   6.553  15.647   6.449  0.1225 -0.0679  0.0840
 1281ERGO    R216865   6.441  15.767   6.672 -0.0296 -0.1052  0.0300
 1281ERGO    R316866   6.610  15.601   6.806 -0.0277 -0.0370  0.1122
 1281ERGO    R416867   6.602  15.846   6.967  0.0684  0.0886 -0.0733
 1281ERGO    R516868   6.780  15.747   6.891  0.0260 -0.0069 -0.0457
 1281ERGO    C116869   6.855  15.737   7.265  0.1272  0.2654 -0.0564
 1281ERGO    C216870   6.846  15.638   7.588  0.0040  0.1286  0.2151
 1282ERGO   ROH16871   4.496   0.712   6.495 -0.0248 -0.2369 -0.1700
 1282ERGO    R116872   4.466   0.616   6.759  0.0631 -0.1308 -0.1209
 1282ERGO    R216873   4.542   0.763   6.980  0.0261  0.0075 -0.2013
 1282ERGO    R316874   4.285   0.718   7.058  0.0599 -0.0825 -0.1384
 1282ERGO    R416875   4.445   0.678   7.301  0.1198  0.1513 -0.1334
 1282ERGO    R516876   4.302   0.537   7.215  0.1807  0.0198 -0.0289
 1282ERGO    C116877   4.148   0.586   7.561  0.2062  0.1506 -0.0348
 1282ERGO    C216878   4.216   0.508   7.983  0.1896  0.0474  0.0363
 1283ERGO   ROH16879  13.332  12.198   6.887 -0.4022 -0.0383 -0.0355
 1283ERGO    R116880  13.370  12.218   7.167 -0.1903 -0.0491 -0.0616
 1283ERGO    R216881  13.231  12.399   7.324 -0.0836 -0.0665  0.0524
 1283ERGO    R316882  13.164  12.176   7.465  0.0383 -0.0769  0.0954
 1283ERGO    R416883  13.073  12.399   7.631 -0.1915 -0.0927 -0.0025
 1283ERGO    R516884  13.203  12.237   7.693 -0.0860  0.0239  0.0921
 1283ERGO    C116885  12.918  12.191   7.942 -0.1398 -0.1178  0.0058
 1283ERGO    C216886  12.579  12.056   8.193 -0.0897 -0.1717  0.3163
 1284ERGO   ROH16887   7.538   2.492   9.963  0.2110  0.0030 -0.0280
 1284ERGO    R116888   7.433   2.375   9.728  0.1774 -0.1241  0.0497
 1284ERGO    R216889   7.341   2.526   9.515  0.0486 -0.2386  0.0272
 1284ERGO    R316890   7.517   2.374   9.374  0.0580 -0.2226  0.0202
 1284ERGO    R416891   7.374   2.531   9.171  0.0848 -0.1735  0.0309
 1284ERGO    R516892   7.397   2.314   9.175  0.0734 -0.1793 -0.0057
 1284ERGO    C116893   7.557   2.391   8.838  0.1147 -0.1205  0.0264
 1284ERGO    C216894   7.612   2.568   8.449 -0.2495  0.1514  0.0634
 1285ERGO   ROH16895  11.780  15.032   6.947 -0.0934 -0.0932  0.0740
 1285ERGO    R116896  11.543  15.060   7.100 -0.1266 -0.1114  0.0275
 1285ERGO    R216897  11.482  14.893   7.311 -0.0942 -0.0383  0.0998
 1285ERGO    R316898  11.460  15.127   7.448 -0.1992  0.0189 -0.0151
 1285ERGO    R416899  11.338  14.927   7.623  0.0165  0.0300  0.1432
 1285ERGO    R516900  11.247  15.113   7.556 -0.1414 -0.0708  0.0834
 1285ERGO    C116901  11.233  15.167   7.933 -0.0178  0.1234  0.0607
 1285ERGO    C216902  11.098  15.357   8.295 -0.1542 -0.0344  0.0989
 1286W        W16903   0.390   3.086   3.599  0.0358 -0.1194  0.1253
 1287W        W16904  14.937  15.671  14.278 -0.0461 -0.0362  0.4283
 1288W        W16905   7.410  13.454  15.346 -0.1438 -0.0266  0.1955
 1289W        W16906   0.754  15.999  10.256 -0.0457 -0.2401 -0.0573
 1290W        W16907   2.955   2.386  12.413  0.2681 -0.0859  0.1248
 1291W        W16908  11.064   6.248  15.089 -0.1038  0.1629  0.0677
 1292W        W16909  13.649  14.974  11.811 -0.1804 -0.2140 -0.0516
 1293W        W16910   2.633   5.611  12.109 -0.1135  0.1468  0.0421
 1294W        W16911   0.444   1.062  14.966 -0.2908 -0.2434 -0.0080
 1295W        W16912   8.977  10.438   2.635  0.3159  0.3457  0.0644
 1296W        W16913  11.369  14.759   4.595  0.2765 -0.1090  0.0237
 1297W        W16914   9.594   9.117  13.334 -0.0181 -0.0018  0.3557
 1298W        W16915   9.990   3.960  13.274  0.1938 -0.0102 -0.0829
 1299W        W16916   5.461   7.221   2.102  0.0432 -0.0087 -0.0349
 1300W        W16917   2.270   1.781  12.062 -0.0423 -0.0886 -0.1073
 1301W        W16918   6.323  15.074   1.896 -0.2162  0.0110  0.2321
 1302W        W16919   2.142  15.036   1.611 -0.0538 -0.1894 -0.0583
 1303W        W16920  10.196   5.989   2.202 -0.0323  0.0338 -0.0933
 1304W        W16921  15.008   1.335  16.267 -0.1661 -0.1226 -0.2510
 1305W        W16922  15.882   4.077   5.186 -0.0077 -0.2077  0.0263
 1306W        W16923   2.545   0.998  14.035  0.1605  0.1083  0.3242
 1307W        W16924   9.671  17.517   5.233 -0.0884  0.0373  0.0467
 1308W        W16925  16.203   8.102  12.592 -0.4582  0.0862 -0.0339
 1309W        W16926  15.114   0.610   2.947  0.4247 -0.1661  0.1619
 1310W        W16927  14.975   9.375  14.643 -0.1166  0.0214 -0.1770
 1311W        W16928  11.319   5.850   2.592  0.3066 -0.1463  0.0048
 1312W        W16929   8.932  16.896  11.485  0.1050 -0.0162  0.2274
 1313W        W16930   7.629  13.668  12.180  0.0293  0.0397 -0.0534
 1314W        W16931   5.990   7.418  16.152  0.0184 -0.1459 -0.2504
 1315W        W16932   2.901  14.866   0.593 -0.0179 -0.3476  0.0305
 1316W        W16933   1.495  10.512   2.095 -0.3800 -0.0388 -0.0811
 1317W        W16934   7.817   8.036  14.760 -0.0618  0.1848 -0.0142
 1318W        W16935   8.327   4.900  12.854 -0.1031 -0.1195 -0.0146
 1319W        W16936   5.978   3.098  11.548 -0.2177 -0.2116 -0.0925
 1320W        W16937   8.259  14.950  13.194  0.0732 -0.0040  0.1630
 1321W        W16938  14.521   3.712  14.039  0.2027 -0.0357 -0.0418
 1322W        W16939   0.509  14.790   0.260  0.2359  0.0097  0.3731
 1323W        W16940  16.583  16.857   0.940 -0.1067 -0.1669 -0.0058
 1324W        W16941   7.027  13.512   1.243 -0.2749  0.2339 -0.2681
 1325W        W16942  15.617  16.572  13.760 -0.2570 -0.0304  0.2018
 1326W        W16943   9.215   3.829   5.723  0.0393 -0.3913  0.1571
 1327W        W16944  14.702   1.521  13.626 -0.0030  0.0643  0.1632
 1328W        W16945   1.019   7.076  14.425 -0.0661 -0.0315 -0.1316
 1329W        W16946   3.760   2.522  14.704 -0.4996  0.0094 -0.1746
 1330W        W16947  13.750  13.474   2.571  0.2974  0.0823 -0.1147
 1331W        W16948  10.845   0.321   2.125  0.1583  0.1120 -0.0348
 1332W        W16949  16.515   3.956  14.994 -0.1662  0.1573 -0.0994
 1333W        W16950   7.011   4.816   0.267 -0.0695 -0.0886 -0.1462
 1334W        W16951  15.396  15.564  13.461 -0.2013 -0.5326  0.2423
 1335W        W16952  17.701   7.253   6.275 -0.0276  0.1204  0.3881
 1336W        W16953   7.208   0.907  15.322 -0.4474 -0.6252 -0.0775
 1337W        W16954   2.358   4.557   3.381 -0.2796  0.3356 -0.2591
 1338W        W16955  10.321  16.512  15.964  0.0597  0.1124  0.1419
 1339W        W16956  15.444   7.032  12.222  0.1101  0.1864 -0.0851
 1340W        W16957  15.162   9.873   5.244  0.0582  0.0402  0.1376
 1341W        W16958   4.472  17.389  10.849  0.3732  0.0954  0.0778
 1342W        W16959  11.261   1.431  12.091  0.2252  0.1461 -0.2962
 1343W        W16960   9.054  17.448   0.726 -0.1326  0.1875 -0.0676
 1344W        W16961  11.671  12.465  11.920 -0.1416 -0.1235 -0.1364
 1345W        W16962   6.373   6.569   0.453  0.0638 -0.0442 -0.0495
 1346W        W16963   2.348   0.707   1.434  0.0734  0.0096 -0.2164
 1347W        W16964  16.052   9.276  12.880  0.1835 -0.0188 -0.1645
 1348W        W16965   6.937  17.617  11.627  0.1238 -0.0967  0.5611
 1349W        W16966  12.050  16.468   5.538 -0.1007  0.0359  0.1208
 1350W        W16967  13.109   4.958   1.297  0.4109  0.3999  0.1467
 1351W        W16968  10.829   9.670   4.689 -0.2403  0.0954  0.3754
 1352W        W16969  10.564  14.040  16.243  0.1997  0.4634  0.4034
 1353W        W16970   5.205   1.681   3.772 -0.1311  0.0025  0.2162
 1354W        W16971  13.049  10.612  14.419  0.1289 -0.2961  0.2881
 1355W        W16972   7.048   1.604   3.904 -0.1255  0.1152 -0.3870
 1356W        W16973   0.047   0.006  13.091 -0.0823 -0.0245 -0.0605
 1357W        W16974  14.405   2.813   3.006  0.4388 -0.3220 -0.0412
 1358W        W16975   4.759  16.705  13.458  0.1875 -0.0684  0.3315
 1359W        W16976  15.142  15.426  12.984 -0.0289 -0.0666  0.0419
 1360W        W16977   1.720  11.390   3.223  0.2315 -0.0639 -0.0680
 1361W        W16978  15.190   5.042   5.252 -0.0952 -0.1559 -0.0799
 1362W        W16979  13.576   9.023  16.605 -0.0899 -0.0960  0.0584
 1363W        W16980  16.261  10.319   1.854 -0.2086  0.1316 -0.1723
 1364W        W16981  16.097   0.477   1.492  0.1675  0.0420 -0.0156
 1365W        W16982  14.362  17.791   4.565 -0.0098 -0.2508 -0.0398
 1366W        W16983   9.366   7.931  13.405  0.2048 -0.0317  0.2142
 1367W        W16984   4.293   4.089   0.904  0.2896 -0.0474 -0.0551
 1368W        W16985   5.966  16.311  12.425  0.3469  0.1047 -0.3349
 1369W        W16986   4.849   9.579   1.673  0.3275  0.0632  0.1816
 1370W        W16987  11.189   9.968   2.234 -0.1215  0.0804 -0.2968
 1371W        W16988   7.452   6.536   6.279 -0.2452  0.1274  0.1512
 1372W        W16989   2.145  14.308   3.628 -0.0592  0.2777  0.1083
 1373W        W16990   2.523  16.581  15.100  0.0648 -0.0734  0.0936
 1374W        W16991   7.078  15.011   0.032  0.0144 -0.0734 -0.1450
 1375W        W16992   6.823   3.891  14.086  0.0782  0.3966  0.4593
 1376W        W16993  11.768  16.902   3.610 -0.0586 -0.0722  0.0477
 1377W        W16994  16.007   4.087   0.183  0.2258 -0.0424  0.0096
 1378W        W16995   3.307   1.493   5.019  0.1960  0.3648  0.1100
 1379W        W16996   8.887  15.518  16.014 -0.1036 -0.1025 -0.2025
 1380W        W16997  11.689   8.381   3.551  0.2922 -0.1522  0.1708
 1381W        W16998   4.627   4.608  16.148  0.1740  0.3290  0.1959
 1382W        W16999   5.224  15.355  14.953 -0.0835 -0.1218  0.0088
 1383W        W17000  13.177  15.326   1.158  0.1207  0.1201 -0.2743
 1384W        W17001   3.257  11.882   1.693  0.1276  0.0535 -0.0277
 1385W        W17002  14.272  11.997  16.688  0.0302  0.0170  0.1749
 1386W        W17003   7.307   4.250   5.558  0.0938 -0.0575  0.0388
 1387W        W17004   6.110  13.629  16.548 -0.0410 -0.0797 -0.1250
 1388W        W17005   4.415   8.041  14.260 -0.2968 -0.0183 -0.0750
 1389W        W17006   0.924  11.170  14.669 -0.1235 -0.2142 -0.1035
 1390W        W17007  16.134  13.275  12.005 -0.3229  0.2210  0.0836
 1391W        W17008   2.327   1.770  14.025 -0.2473 -0.0279 -0.0074
 1392W        W17009   3.197   0.689  15.364 -0.1732 -0.0771  0.3797
 1393W        W17010  14.017  14.063   1.024  0.0499  0.1076 -0.1721
 1394W        W17011   6.984   5.414  14.674  0.0406 -0.0436 -0.0838
 1395W        W17012  10.644  11.935   2.784  0.0079  0.1161  0.3338
 1396W        W17013  12.532  15.318  11.359  0.0615  0.0534 -0.0708
 1397W        W17014  11.346   0.512  12.364  0.2534 -0.0870 -0.1501
 1398W        W17015   3.707   2.013  11.758 -0.1117 -0.2031 -0.1961
 1399W        W17016   3.194  14.790  15.890 -0.0895  0.0647 -0.1818
 1400W        W17017   4.190   1.524  13.314  0.1010  0.0954 -0.2229
 1401W        W17018   8.529  17.759  12.222  0.0734  0.1350  0.0912
 1402W        W17019   1.531   1.454   3.989 -0.1453 -0.1771  0.1029
 1403W        W17020   8.892   5.062   1.226 -0.1394 -0.2250 -0.1132
 1404W        W17021  15.759   6.294  11.866 -0.1202  0.0459  0.1882
 1405W        W17022   6.011   3.502   3.016 -0.2901  0.2108  0.3414
 1406W        W17023  13.558   0.259   1.638  0.0587 -0.0504  0.2741
 1407W        W17024   2.912   1.853   4.871  0.1315  0.0116  0.0790
 1408W        W17025  12.654   9.219  16.512 -0.2550 -0.1590 -0.1870
 1409W        W17026  13.428  11.947  16.090 -0.1090  0.1527  0.0599
 1410W        W17027   1.425   3.401   3.623 -0.0053  0.2337  0.0111
 1411W        W17028   3.918  14.457   5.002  0.0926 -0.0102  0.0941
 1412W        W17029   8.367  10.298  15.353  0.0380 -0.0339 -0.1812
 1413W        W17030  12.318  17.677   1.843  0.1508 -0.0073  0.0357
 1414W        W17031   6.325   9.255  15.234  0.1505  0.0078 -0.1954
 1415W        W17032  15.832   9.054  14.231  0.0189  0.0298  0.1340
 1416W        W17033  12.506   8.162   1.330  0.0284  0.0546  0.1789
 1417W        W17034   2.034   0.276   0.229 -0.1863  0.0663  0.2756
 1418W        W17035   1.432  14.298   1.724 -0.2577 -0.0881 -0.0033
 1419W        W17036   3.587   7.787  14.063  0.2383 -0.0172  0.0312
 1420W        W17037   3.906  12.532   4.262  0.3064  0.0293 -0.1136
 1421W        W17038   0.686  10.009   3.564 -0.2639  0.3416 -0.0800
 1422W        W17039   0.566   2.881  13.819  0.0095  0.3153 -0.0177
 1423W        W17040   4.423   3.260  14.802 -0.0005 -0.2769 -0.0320
 1424W        W17041   8.111   8.103  15.324 -0.0331  0.3946  0.2387
 1425W        W17042  12.861   5.171   0.130  0.0465  0.1246 -0.4822
 1426W        W17043  11.602   0.329  13.700  0.0914  0.0327  0.1818
 1427W        W17044  13.725  12.472  12.120 -0.2177  0.0446  0.3188
 1428W        W17045   5.273  12.442   0.840 -0.1522  0.2880  0.2438
 1429W        W17046   4.285  15.933   5.167 -0.0337 -0.1534 -0.0658
 1430W        W17047  16.619  15.813  11.560  0.0344 -0.1035 -0.2757
 1431W        W17048   1.459  13.595   5.327  0.1818 -0.2106  0.0973
 1432W        W17049   1.412   4.588   3.347  0.1117  0.0370 -0.0866
 1433W        W17050  15.190   5.304   4.369  0.1079 -0.1681  0.0454
 1434W        W17051   6.672   8.097   4.609 -0.2449  0.2273  0.2202
 1435W        W17052   5.618   1.604   4.174 -0.1023 -0.1516  0.1163
 1436W        W17053  12.318   0.179  11.530 -0.0644 -0.0386  0.2404
 1437W        W17054   6.988   3.201   5.087 -0.0593 -0.1091  0.2118
 1438W        W17055   5.718  14.294   5.392  0.3939  0.2749 -0.0545
 1439W        W17056   6.703  17.294   0.732  0.0185  0.0456  0.1826
 1440W        W17057   5.816   9.587   1.627 -0.0002 -0.0732 -0.0889
 1441W        W17058  13.549   4.135   0.808 -0.1294 -0.1983  0.0806
 1442W        W17059   1.308  11.660   1.758 -0.0084  0.0868 -0.0509
 1443W        W17060  14.399   4.124  11.319  0.1625  0.2859  0.2095
 1444W        W17061   9.747  15.478   0.826 -0.1130 -0.4115  0.1955
 1445W        W17062   2.469   5.081   4.773 -0.1326 -0.3599 -0.3231
 1446W        W17063   8.684   3.269   0.233  0.3533  0.0535  0.1836
 1447W        W17064  10.613  15.370  10.757 -0.0044  0.1236 -0.0021
 1448W        W17065   2.080  13.309  16.620  0.0684  0.1651 -0.3293
 1449W        W17066  14.865  14.700  14.829 -0.0464 -0.0028  0.1145
 1450W        W17067  11.466  16.639  12.061  0.1100 -0.0967  0.0523
 1451W        W17068   9.646   8.975  12.317  0.1741  0.0579  0.0877
 1452W        W17069   6.827  17.693   4.060  0.2202 -0.1382  0.2197
 1453W        W17070  17.282   3.073   5.680  0.4511 -0.0287  0.0959
 1454W        W17071   1.961  15.570   1.685 -0.0059 -0.0592 -0.5490
 1455W        W17072   1.288   1.908  16.815  0.1379  0.0654 -0.2083
 1456W        W17073   0.079  13.885   5.083  0.0960  0.5170  0.0086
 1457W        W17074   4.641  10.029   4.386  0.0838  0.0285  0.1493
 1458W        W17075  15.940  14.008  15.215  0.0929  0.0116 -0.2623
 1459W        W17076   3.174   6.000  15.037  0.0851  0.2713  0.2931
 1460W        W17077  13.330  11.680  12.476 -0.0154 -0.2051 -0.1634
 1461W        W17078  10.840  13.689  14.439 -0.3206  0.3128 -0.1235
 1462W        W17079  11.049   2.144   4.410  0.0891  0.0749 -0.1618
 1463W        W17080   4.764   5.625   2.838  0.2101 -0.0511 -0.0410
 1464W        W17081  15.089  14.299   1.937 -0.0154 -0.1003  0.0072
 1465W        W17082  11.597   1.773  12.386 -0.0020 -0.2522 -0.0181
 1466W        W17083  13.445  16.738   0.105 -0.1390 -0.2911 -0.1261
 1467W        W17084   0.627  10.355  14.250 -0.1308  0.0176 -0.2807
 1468W        W17085   4.865   0.059  11.611 -0.0761 -0.0052  0.1114
 1469W        W17086   0.213   1.036   4.193 -0.1843  0.4052  0.0759
 1470W        W17087   2.696  11.319   5.353  0.1017  0.0557  0.1377
 1471W        W17088   2.259  13.081   1.813  0.1921 -0.0168  0.3302
 1472W        W17089  16.751   5.205  13.002  0.1116 -0.1011  0.3200
 1473W        W17090  14.881   2.871  16.558  0.0318 -0.1309  0.1892
 1474W        W17091  11.620  14.213  12.624 -0.0418  0.2300  0.3759
 1475W        W17092   9.447  17.267  16.787 -0.0132 -0.0561 -0.2070
 1476W        W17093  11.358   6.953   4.517 -0.0434 -0.0522  0.2251
 1477W        W17094   2.814  10.288  14.999 -0.0282  0.0271  0.0761
 1478W        W17095  14.480   1.376  15.639 -0.0733  0.0723 -0.0592
 1479W        W17096   0.682   0.095   2.393 -0.1209 -0.2219  0.1306
 1480W        W17097   2.326   7.586   4.886  0.1809  0.1536 -0.1169
 1481W        W17098   5.181   3.669   0.389 -0.2025 -0.1640  0.0543
 1482W        W17099   6.946  11.116   1.073 -0.0825  0.2793 -0.2183
 1483W        W17100   0.019  14.346   4.499  0.1076 -0.0617  0.3361
 1484W        W17101  10.824   2.012   5.303  0.1307  0.0724  0.2622
 1485W        W17102  11.778   3.450  13.478  0.0498 -0.3331 -0.0107
 1486W        W17103  16.872  15.186  13.586 -0.0960 -0.1537  0.0718
 1487W        W17104   7.710   9.402  12.620 -0.2624  0.0363 -0.1037
 1488W        W17105   5.293   1.090   2.323 -0.1000  0.2962  0.3582
 1489W        W17106   4.331  16.828  14.718 -0.2635 -0.0308  0.2331
 1490W        W17107   7.967  17.168   1.001 -0.1436  0.1904 -0.1342
 1491W        W17108   2.093   8.292   2.005  0.0280 -0.1292  0.2695
 1492W        W17109   3.218   9.166   2.773 -0.0401  0.1739 -0.0690
 1493W        W17110  16.094   7.193  14.335  0.1392 -0.1994  0.2235
 1494W        W17111   1.732   0.433  16.198 -0.1012  0.0932  0.1905
 1495W        W17112  10.813   5.834   4.289  0.1665  0.1332 -0.1303
 1496W        W17113   9.141  14.766   0.123 -0.0162 -0.1136 -0.2203
 1497W        W17114   0.290  17.171   4.621 -0.1733  0.2952 -0.1307
 1498W        W17115  16.987  11.716   4.202  0.0888 -0.0921 -0.1909
 1499W        W17116   4.001  17.321   5.950 -0.3946 -0.0164 -0.0472
 1500W        W17117  14.743   6.359  12.186  0.0970 -0.1383 -0.1849
 1501W        W17118   9.638   7.561   0.364 -0.2876  0.0956  0.0293
 1502W        W17119  12.307  15.279   1.587  0.2961  0.0469  0.1724
 1503W        W17120   0.330   9.542  12.568 -0.2356  0.0253 -0.0381
 1504W        W17121  12.775   3.029  16.317 -0.2771 -0.0342 -0.1620
 1505W        W17122   1.621  11.520   2.172 -0.3683  0.0322  0.1934
 1506W        W17123  12.977  10.938  15.763  0.3544  0.3832 -0.2059
 1507W        W17124   5.233  14.037  13.709  0.1373 -0.2970  0.1524
 1508W        W17125   4.004  14.552  10.790 -0.0517  0.1116 -0.1358
 1509W        W17126   9.686  15.398  11.692 -0.0985  0.0703 -0.0509
 1510W        W17127   6.086  12.161  12.410  0.1391  0.0645 -0.1314
 1511W        W17128   4.901   2.924  13.070  0.1782 -0.3011 -0.0424
 1512W        W17129   7.589   4.166  16.629 -0.1593 -0.3101 -0.1727
 1513W        W17130  14.198  13.791   2.406  0.0165 -0.1628 -0.0529
 1514W        W17131   0.875  10.309  12.913  0.0514  0.0388 -0.1208
 1515W        W17132  12.295  10.205   4.314 -0.2176 -0.2571  0.0283
 1516W        W17133  11.974  15.083  14.128  0.1629  0.1267 -0.2034
 1517W        W17134   9.878   3.706   2.748 -0.0424 -0.0350 -0.2387
 1518W        W17135   4.012   2.393   1.734 -0.1254  0.4053  0.1564
 1519W        W17136   1.836   1.665   3.152  0.0945 -0.2763 -0.1551
 1520W        W17137   3.674   7.922  16.510 -0.3883  0.4089 -0.0434
 1521W        W17138  11.967  13.642  15.216  0.0672  0.0517 -0.2993
 1522W        W17139   1.129  17.231  12.510 -0.1882 -0.0297 -0.2870
 1523W        W17140   8.128   0.899  15.149 -0.1313 -0.3095 -0.1835
 1524W        W17141  17.814  12.527   1.093 -0.1234  0.2785  0.2493
 1525W        W17142   2.593  15.507  12.621 -0.0087 -0.0148  0.1708
 1526W        W17143   8.035  13.282  14.488 -0.2600 -0.0692 -0.0415
 1527W        W17144   7.573  16.122  16.253  0.2447  0.0293 -0.1657
 1528W        W17145  16.157   3.189  12.258 -0.1595 -0.1225 -0.0436
 1529W        W17146   0.472   9.032  12.530 -0.0897 -0.0888 -0.0314
 1530W        W17147  14.970  14.739   5.423 -0.2707 -0.1249 -0.0827
 1531W        W17148   9.341   6.523  16.412 -0.1259  0.1397  0.1021
 1532W        W17149   9.188   6.726   1.371  0.0126 -0.0708  0.2538
 1533W        W17150   6.610  17.348  13.859 -0.2746 -0.2160  0.0760
 1534W        W17151   8.286  14.479  13.421  0.0380  0.1774 -0.3245
 1535W        W17152  10.181   9.128   3.657  0.1030  0.1508  0.0140
 1536W        W17153   3.868   7.449   5.652  0.1094  0.1228 -0.4493
 1537W        W17154   0.099   9.015   3.891  0.0320 -0.4121  0.0372
 1538W        W17155  17.238   1.540  12.348 -0.2805 -0.0238 -0.1715
 1539W        W17156   2.589   3.736   6.412 -0.0822 -0.1558 -0.2394
 1540W        W17157  11.774  16.434  15.439  0.1201 -0.1472  0.0240
 1541W        W17158   7.321  13.513   1.636 -0.2040 -0.1932 -0.3066
 1542W        W17159  10.428   8.813   4.149  0.1223  0.1434 -0.0816
 1543W        W17160  15.511   0.028  15.744  0.1760  0.1092  0.2582
 1544W        W17161   3.644  14.161   5.784 -0.0748 -0.0272 -0.2588
 1545W        W17162   6.833  17.628   2.366  0.3002 -0.2088 -0.0862
 1546W        W17163   6.912   3.763  12.586  0.0888  0.1520  0.2964
 1547W        W17164  13.730   3.120  12.741 -0.2068  0.2175  0.0478
 1548W        W17165  15.695  17.172  14.458 -0.2013 -0.0535 -0.0940
 1549W        W17166   6.177   5.758  16.617  0.2009  0.1061  0.0029
 1550W        W17167   1.363  12.146  12.548  0.0131  0.2134  0.0592
 1551W        W17168  11.351   7.747  13.593 -0.0441 -0.1820  0.0931
 1552W        W17169  12.157   9.112  15.993 -0.2832  0.1153  0.0398
 1553W        W17170  10.495   9.261  15.453  0.1078  0.0633  0.0339
 1554W        W17171  16.155   0.061   0.560  0.0486 -0.2647 -0.1107
 1555W        W17172   9.904   2.578  13.615  0.1335  0.1166  0.0456
 1556W        W17173   2.923  13.570   2.037  0.1427 -0.2087 -0.0169
 1557W        W17174  11.718  13.135   5.376  0.1730  0.2116 -0.1676
 1558W        W17175   6.518   5.442   6.602  0.1431  0.1044  0.1742
 1559W        W17176  16.906  15.993   6.078  0.0812  0.3254  0.2117
 1560W        W17177  16.375   2.143   2.444 -0.0995  0.2189  0.2954
 1561W        W17178  10.553  12.549   3.538  0.1363 -0.0628 -0.0626
 1562W        W17179  15.523   9.060   5.411 -0.2517 -0.2264  0.1231
 1563W        W17180  17.799   7.086   2.081  0.2623 -0.0753 -0.0514
 1564W        W17181   2.036  10.324   6.083  0.1247  0.1610 -0.3181
 1565W        W17182  10.746  16.888   1.876  0.0252  0.0298  0.2038
 1566W        W17183  10.592   2.015  13.069 -0.1146  0.2065 -0.0488
 1567W        W17184   2.086  10.104   1.569 -0.0439  0.1611 -0.0585
 1568W        W17185  10.551   2.325  14.335 -0.0254 -0.1628 -0.3066
 1569W        W17186   6.205  14.011   2.691 -0.1054  0.2470 -0.2782
 1570W        W17187   3.962  10.760  15.275 -0.2444 -0.4378 -0.2105
 1571W        W17188   8.754   1.122  13.918  0.1498 -0.0473  0.1618
 1572W        W17189   3.389  15.451  13.684 -0.1759  0.0972  0.1083
 1573W        W17190  10.392   8.021   6.643  0.0337  0.0496  0.0872
 1574W        W17191   4.590   8.065   3.287 -0.0230 -0.0490 -0.0352
 1575W        W17192   8.487   7.508   0.357  0.1310 -0.0093  0.1480
 1576W        W17193   3.434   8.027  12.677 -0.1261 -0.0981 -0.0765
 1577W        W17194   6.629   0.403  12.789 -0.0275  0.4556  0.0591
 1578W        W17195  11.700  10.259   5.573  0.0445 -0.0098 -0.3700
 1579W        W17196   3.162   4.054   2.765  0.2121  0.2949 -0.1531
 1580W        W17197  11.705  10.894  13.668  0.0049  0.1779 -0.0020
 1581W        W17198  16.681   0.133   2.354  0.1909 -0.0569 -0.0408
 1582W        W17199  13.263   2.603  15.960  0.0804  0.1840 -0.3703
 1583W        W17200   6.511  14.175  12.778 -0.0558 -0.0227 -0.0727
 1584W        W17201  14.978   7.063   5.293  0.0494 -0.3978  0.1303
 1585W        W17202   1.997   7.527   4.483  0.2114 -0.3181 -0.0586
 1586W        W17203  14.869   6.139   2.678 -0.1222 -0.0598 -0.1457
 1587W        W17204  14.664  10.310   4.906  0.0835  0.0877 -0.4351
 1588W        W17205  17.378   3.473  13.605 -0.1511  0.3354  0.2168
 1589W        W17206   1.148  15.851   1.845  0.1368 -0.2864  0.0135
 1590W        W17207  10.922  15.904  11.342  0.1471  0.1065 -0.1666
 1591W        W17208  10.997  14.418   0.396  0.0661 -0.0907 -0.1107
 1592W        W17209   5.723   9.038   3.370  0.1424 -0.1798  0.1613
 1593W        W17210   7.856  17.505   0.649 -0.2982 -0.0214 -0.0925
 1594W        W17211  14.792  17.585  11.934  0.4621  0.1758 -0.1834
 1595W        W17212  10.613  15.524  16.705 -0.2712 -0.0234  0.1969
 1596W        W17213  17.308   0.714  14.537 -0.0993 -0.1728 -0.3169
 1597W        W17214  14.231  14.756  12.608 -0.0002  0.3962 -0.1691
 1598W        W17215  10.265  13.949  14.541 -0.0628 -0.0903 -0.1852
 1599W        W17216   3.399   0.258  13.297  0.0059  0.4033 -0.2776
 1600W        W17217  15.662  13.615   2.145 -0.0335  0.0266  0.2031
 1601W        W17218  17.210   0.832  12.612  0.0718 -0.0095 -0.1046
 1602W        W17219   3.551  11.238   4.422 -0.3676 -0.0917  0.5388
 1603W        W17220  17.237   2.734  15.321 -0.1952 -0.2005  0.0978
 1604W        W17221  14.770  13.477   5.003  0.2527  0.0689  0.2453
 1605W        W17222   8.225   7.968   2.145 -0.1174 -0.1663  0.0065
 1606W        W17223  16.165   4.803   5.660  0.0225 -0.2491  0.0367
 1607W        W17224   7.896  16.439   3.830  0.0247  0.2689 -0.0409
 1608W        W17225  12.864   3.030   0.530  0.0289  0.0204  0.4369
 1609W        W17226   9.721  12.533  14.941 -0.2567 -0.1952 -0.1879
 1610W        W17227  13.538  13.206  14.992  0.2416 -0.1427  0.1126
 1611W        W17228   2.075  13.079  14.894 -0.2179 -0.0568  0.1403
 1612W        W17229   4.785  13.943   2.495  0.0144  0.0387 -0.2461
 1613W        W17230  15.503  13.518   4.582  0.0925  0.1719 -0.3560
 1614W        W17231   0.971   0.938  15.256 -0.4013 -0.0581  0.0140
 1615W        W17232   6.612   2.119  12.533  0.0038 -0.0490  0.2006
 1616W        W17233  15.865   4.764   4.411 -0.0973  0.1696  0.0829
 1617W        W17234  11.156   6.894   0.602  0.0499 -0.3313  0.1939
 1618W        W17235  14.330   5.938   1.852 -0.1445  0.0569  0.2174
 1619W        W17236   1.283  16.292  11.236  0.0005 -0.1312  0.1073
 1620W        W17237   2.851  16.928   3.840  0.1198  0.0032 -0.1566
 1621W        W17238   8.738  16.209  12.639  0.0605 -0.0355 -0.1003
 1622W        W17239  12.150  17.458   4.197 -0.0879 -0.5404 -0.0415
 1623W        W17240   7.627   0.039  15.122 -0.1229 -0.1814 -0.0147
 1624W        W17241  17.812  11.261   3.702 -0.0491 -0.1228  0.0353
 1625W        W17242   6.280   4.886  16.282  0.2804 -0.0998 -0.3533
 1626W        W17243  13.807   0.055   3.430  0.1413 -0.0988 -0.0847
 1627W        W17244   5.956  15.293   1.575 -0.0912 -0.1292  0.0260
 1628W        W17245   9.170   7.951   1.427  0.0202 -0.1123 -0.2285
 1629W        W17246   5.984   7.595  14.800 -0.0185 -0.0033  0.2646
 1630W        W17247  17.296   4.996  14.712  0.0364  0.1390 -0.1646
 1631W        W17248   7.522   5.675   5.614 -0.0065  0.1090 -0.3320
 1632W        W17249   7.873  14.120  13.514  0.2538 -0.1654 -0.2576
 1633W        W17250   8.468   1.759   2.147  0.0378 -0.0491  0.1725
 1634W        W17251   8.760  17.477   1.871 -0.0840  0.1861 -0.3585
 1635W        W17252   4.139   1.191   0.479 -0.1154 -0.1184 -0.0353
 1636W        W17253   2.544  15.639  14.778  0.2485  0.0082  0.0475
 1637W        W17254   6.234   1.353  16.392  0.2359 -0.2958 -0.0995
 1638W        W17255   2.828   4.087   0.199 -0.0026 -0.1280 -0.1442
 1639W        W17256   9.259  11.484  11.732 -0.0693  0.2393 -0.1184
 1640W        W17257  12.810  13.372  16.742 -0.2181  0.1475  0.0066
 1641W        W17258   7.980   1.857  12.105 -0.0459  0.3653 -0.3699
 1642W        W17259  16.430  16.170  14.480  0.0052 -0.0284  0.1113
 1643W        W17260  13.319  14.128   1.923 -0.0305 -0.1954  0.0523
 1644W        W17261  13.681   0.600   3.137 -0.0047  0.0608 -0.2061
 1645W        W17262   1.126  11.381   1.283  0.0052 -0.2378 -0.2970
 1646W        W17263  11.075  10.630  14.339 -0.0759 -0.1607  0.2500
 1647W        W17264   3.115  13.480  15.341  0.0807  0.0179 -0.0951
 1648W        W17265   8.383   6.239  11.896  0.0522  0.3304 -0.0285
 1649W        W17266   1.180   7.881   3.455 -0.2802  0.0734  0.0225
 1650W        W17267  14.971   9.148  12.285  0.3763  0.0524 -0.0848
 1651W        W17268   9.299   7.071   0.864  0.0434  0.1040 -0.0729
 1652W        W17269  12.794   1.103   1.371  0.4040 -0.2008 -0.0513
 1653W        W17270   8.157   1.342   5.115  0.0992  0.4668 -0.0660
 1654W        W17271   8.552  16.874   3.296 -0.3299 -0.2478  0.0511
 1655W        W17272  10.948   3.906  16.036  0.0932  0.1531  0.0441
 1656W        W17273  14.730  13.871  13.786  0.0937  0.2936  0.3355
 1657W        W17274  15.336  15.321   0.840 -0.0540 -0.0700  0.3956
 1658W        W17275   5.438  16.029   1.464 -0.0092  0.0922 -0.4163
 1659W        W17276  13.807   9.284   4.032  0.0098 -0.2711  0.2924
 1660W        W17277   0.292  11.183   2.287  0.0380  0.0674  0.0184
 1661W        W17278  11.417  13.322  16.564  0.0298 -0.2957  0.0413
 1662W        W17279   2.566   0.939  13.201 -0.0082  0.0906  0.3369
 1663W        W17280   0.037   1.634  11.135 -0.1084  0.2100 -0.2605
 1664W        W17281   7.326   9.357   4.633  0.3099 -0.1396 -0.0437
 1665W        W17282   3.799  10.054   5.841  0.3829 -0.0061  0.0010
 1666W        W17283  13.625   4.358   1.896 -0.1125 -0.1430 -0.1919
 1667W        W17284   0.150  15.406   4.588 -0.3560  0.4956 -0.4135
 1668W        W17285   8.298   1.105  10.917 -0.0500 -0.1645 -0.1528
 1669W        W17286   1.754   8.216  12.972  0.1670 -0.1864 -0.0629
 1670W        W17287   8.505  15.869  13.382  0.0915  0.0499 -0.0162
 1671W        W17288   5.373   0.175  11.665  0.0006 -0.1175  0.2100
 1672W        W17289  11.891  10.443  13.850 -0.0524 -0.2566  0.0316
 1673W        W17290   9.014   2.189   0.687  0.1034  0.1614 -0.3347
 1674W        W17291   4.483  12.738  13.149  0.0308  0.3134 -0.0332
 1675W        W17292  11.343  13.787   5.718  0.2705  0.2858  0.1778
 1676W        W17293   8.077   9.345   0.368  0.2613  0.1365  0.0631
 1677W        W17294   8.044   8.196  15.800 -0.0579 -0.0358 -0.0207
 1678W        W17295   6.509  12.711   2.303 -0.1857  0.1073  0.2020
 1679W        W17296   1.984   4.133  14.618 -0.0531 -0.1066 -0.0695
 1680W        W17297  14.939   9.622   3.632  0.3904  0.1296 -0.0265
 1681W        W17298   1.556   0.868  14.815 -0.2360  0.0051  0.1381
 1682W        W17299  17.102  13.108   4.385 -0.0978  0.0476  0.0648
 1683W        W17300   9.914   2.067   5.544 -0.3134  0.1680  0.2347
 1684W        W17301  16.261  16.567   2.551  0.2344  0.0683  0.1597
 1685W        W17302  17.392  12.586  12.854  0.2330 -0.2162 -0.2590
 1686W        W17303   3.096   4.904   6.311 -0.3642 -0.0283  0.1229
 1687W        W17304   9.453  14.312   3.547  0.0718  0.0146  0.1410
 1688W        W17305  16.724  16.066   0.771 -0.1476  0.1141  0.1101
 1689W        W17306  11.141   2.115  12.188  0.2663  0.1474  0.0836
 1690W        W17307   2.273   9.638   1.607  0.3205  0.2082 -0.0725
 1691W        W17308  17.445   5.218   2.222 -0.0049 -0.0077 -0.1181
 1692W        W17309   4.967   2.091   3.835 -0.1327  0.3374  0.2498
 1693W        W17310   1.595  16.450   5.235 -0.1989  0.2086  0.0347
 1694W        W17311  15.511  14.721  14.239  0.1598 -0.1959  0.3846
 1695W        W17312   0.272   1.029  15.813  0.2836 -0.2238  0.0761
 1696W        W17313  16.030   1.550  16.052  0.2335  0.0650  0.3374
 1697W        W17314   8.540  12.031  12.805 -0.0109 -0.0439  0.0291
 1698W        W17315   4.549  10.181   1.729  0.0023 -0.1748 -0.0924
 1699W        W17316   3.155   4.779   2.031 -0.0315  0.1462  0.0636
 1700W        W17317   4.801   2.509   3.348 -0.2388 -0.0836 -0.0031
 1701W        W17318  14.775  11.817   5.643  0.0712 -0.1017 -0.1468
 1702W        W17319   3.126  17.102   0.653  0.0012  0.2157  0.0375
 1703W        W17320   9.789   1.475  15.052 -0.0789 -0.1921 -0.0048
 1704W        W17321   5.464  11.251  15.679 -0.1096  0.0134  0.1622
 1705W        W17322   4.589   2.910   4.493 -0.0425  0.0785  0.1947
 1706W        W17323   3.950   8.758   2.822  0.2050  0.4337 -0.0775
 1707W        W17324  17.215   1.000  16.240 -0.0782  0.2334 -0.3858
 1708W        W17325   0.333   6.405   3.365 -0.0118 -0.2625 -0.0599
 1709W        W17326   4.608  14.341   4.398  0.3928  0.1366 -0.1106
 1710W        W17327  12.326  14.858   1.340  0.2994 -0.2310 -0.0117
 1711W        W17328   7.079   0.308  13.998  0.1487  0.1033 -0.2481
 1712W        W17329   9.518  10.415   1.315  0.1490  0.6679 -0.0080
 1713W        W17330   3.790  13.887  12.499 -0.2897 -0.4876 -0.1750
 1714W        W17331   7.878  14.257  15.331 -0.1666  0.0598 -0.0680
 1715W        W17332   4.661   3.646  16.364 -0.0157  0.1068  0.1363
 1716W        W17333  15.898   0.601  14.335  0.0181 -0.0178 -0.3633
 1717W        W17334   0.456   0.734  14.056  0.0732 -0.0909  0.2447
 1718W        W17335   1.804  13.858  15.302 -0.0518  0.3578 -0.1065
 1719W        W17336   2.445   3.361  13.254 -0.0910  0.2581  0.3136
 1720W        W17337   5.131  12.284  12.183 -0.2272  0.0233 -0.1098
 1721W        W17338   6.852   2.705   0.855  0.0105  0.1104 -0.1362
 1722W        W17339   3.109  13.225   0.681  0.2150  0.1389  0.1575
 1723W        W17340  14.440  13.168  11.194 -0.1372  0.0010  0.0607
 1724W        W17341   9.609  10.540   5.207  0.1189  0.5514  0.0605
 1725W        W17342  11.878  11.210   5.737  0.1796  0.0791 -0.2725
 1726W        W17343  17.298  16.298   1.371  0.2031  0.1987 -0.1965
 1727W        W17344   9.459  17.540  14.668  0.1485  0.2455 -0.1815
 1728W        W17345   1.248   2.155  14.260  0.5204  0.1172  0.0710
 1729W        W17346  11.526  13.860  16.493 -0.4056 -0.2471  0.1699
 1730W        W17347   1.856   4.935   1.506  0.1136  0.0742 -0.0071
 1731W        W17348  10.782   3.775   5.326 -0.2812 -0.0241 -0.0229
 1732W        W17349  10.705   4.662  12.100  0.0734  0.0105  0.3303
 1733W        W17350   8.705   7.324  12.972 -0.1155 -0.0833 -0.0011
 1734W        W17351  13.957  10.510  16.260 -0.0956 -0.2922  0.0176
 1735W        W17352  12.709  14.426  15.921  0.0233 -0.0235 -0.1780
 1736W        W17353   7.949  10.974   0.880  0.2323 -0.1951 -0.0327
 1737W        W17354  13.570   4.188  13.761 -0.3028 -0.0484  0.0860
 1738W        W17355   8.056   3.717   1.990 -0.1705  0.2652 -0.3586
 1739W        W17356   2.597  17.091  15.160  0.0270 -0.3590  0.1609
 1740W        W17357  12.089   8.495   0.017  0.0262 -0.0758  0.1761
 1741W        W17358   5.087  17.149   4.529 -0.0147 -0.2892  0.1081
 1742W        W17359   1.394  10.592  15.145  0.3653  0.2169  0.1595
 1743W        W17360   6.313   8.343  16.485 -0.1536 -0.4154 -0.0815
 1744W        W17361  17.692  12.250   4.675  0.4029 -0.0437 -0.2034
 1745W        W17362   8.450   1.016  12.313  0.1092 -0.2243 -0.2006
 1746W        W17363  16.263  15.262   5.052  0.0357 -0.0587 -0.0647
 1747W        W17364   7.121   7.907  13.627 -0.1079  0.1995 -0.2656
 1748W        W17365  11.203   4.569  12.123 -0.1359  0.0966 -0.1175
 1749W        W17366   7.299  15.922  12.334 -0.0198  0.3490 -0.0468
 1750W        W17367  13.887   9.871  15.286  0.3179  0.0770 -0.3599
 1751W        W17368   0.571   0.423  13.609 -0.2550  0.0714 -0.0667
 1752W        W17369  15.554   8.434  15.266  0.0880 -0.1680 -0.1258
 1753W        W17370  10.678   2.952  15.252 -0.0893 -0.0783  0.0346
 1754W        W17371   7.362  16.123   3.351 -0.0028 -0.0283 -0.0366
 1755W        W17372  13.790  11.374  14.729 -0.2159  0.1136  0.3742
 1756W        W17373  11.509   6.452   5.530  0.1854 -0.2280  0.1679
 1757W        W17374  10.289  15.759   0.193  0.2781 -0.1034  0.0851
 1758W        W17375   0.974   9.047  10.771 -0.1383 -0.1636  0.2170
 1759W        W17376  15.512  12.680   3.316 -0.3591 -0.0212  0.0833
 1760W        W17377   2.510   6.546  12.910 -0.0052  0.0865 -0.2554
 1761W        W17378  12.075   4.156  13.944 -0.1729  0.4333  0.0044
 1762W        W17379  12.175   6.509  13.961 -0.1996 -0.0900  0.1572
 1763W        W17380   4.048   3.446   3.069  0.1417  0.0479 -0.3251
 1764W        W17381   0.999   6.948   5.703 -0.3372 -0.0794  0.1377
 1765W        W17382  10.429   5.242  15.947  0.2564 -0.0990 -0.2537
 1766W        W17383   1.544  14.263  11.601 -0.0624 -0.3028  0.1503
 1767W        W17384   3.034  12.682  14.043 -0.0464 -0.0340  0.0855
 1768W        W17385   3.093   1.391   2.930 -0.0953 -0.0780 -0.0933
 1769W        W17386   9.826  14.822  11.336 -0.0038 -0.0596 -0.2289
 1770W        W17387  10.382  11.485  15.957  0.0898  0.0032 -0.0952
 1771W        W17388  13.369  13.334   1.391  0.2301  0.0112  0.0712
 1772W        W17389  10.136   5.283   2.852 -0.1828  0.1946  0.0415
 1773W        W17390   4.241   5.101   3.664  0.3573  0.1972  0.1585
 1774W        W17391   0.978   9.127   4.811 -0.0349  0.0706 -0.1367
 1775W        W17392   1.556   9.534   2.011  0.1151  0.1529  0.3457
 1776W        W17393  11.434  17.580   4.746  0.1544  0.0387  0.2030
 1777W        W17394   1.469   7.573  11.625  0.1544 -0.0905  0.2498
 1778W        W17395   5.431   2.949  11.565  0.1689  0.0333  0.0499
 1779W        W17396   2.660  13.139   2.075  0.2390  0.0816 -0.1579
 1780W        W17397   9.480   0.768   1.466 -0.0681  0.2486 -0.0406
 1781W        W17398   8.869  13.293   5.780 -0.2299 -0.0141 -0.0851
 1782W        W17399  11.324  15.045  15.143  0.1502 -0.1077  0.1724
 1783W        W17400  15.280  13.280  15.834 -0.1116 -0.1163 -0.1467
 1784W        W17401   0.477  17.014  16.065  0.1282 -0.0009 -0.1287
 1785W        W17402  11.044   5.585   3.928 -0.2463  0.0694 -0.1424
 1786W        W17403   2.160   5.783   1.046  0.0084 -0.1699  0.1082
 1787W        W17404   2.631   6.089   1.726  0.2022  0.1716  0.0126
 1788W        W17405  17.406  14.490   0.202 -0.1810  0.5079  0.0062
 1789W        W17406   3.060  16.199   4.350 -0.0763  0.1903 -0.3021
 1790W        W17407  16.598  15.055   1.223  0.1543 -0.0952 -0.1265
 1791W        W17408  15.818  15.273   1.630 -0.2653 -0.4639  0.0962
 1792W        W17409  13.436  11.006   0.181  0.0717 -0.0906 -0.0460
 1793W        W17410  10.504  15.204  15.272 -0.3455  0.0565 -0.0747
 1794W        W17411   8.664  10.590  14.758  0.0011  0.0346  0.1688
 1795W        W17412  11.910   1.662  13.516  0.4070 -0.0064 -0.1231
 1796W        W17413  11.478  10.432   1.548  0.2299  0.0195 -0.0632
 1797W        W17414   7.878   1.190   1.472 -0.0537 -0.1708 -0.1229
 1798W        W17415   9.647   0.181   3.549  0.2159 -0.3243  0.0564
 1799W        W17416   6.766   0.965   2.934  0.0144 -0.5546  0.0007
 1800W        W17417   4.642   5.322  10.995  0.2013  0.0447  0.2399
 1801W        W17418  15.667   9.876  12.929  0.0405  0.1725 -0.1787
 1802W        W17419   4.666   4.755   0.389 -0.0235  0.4699 -0.3020
 1803W        W17420  11.563   5.477   0.751  0.0225 -0.0522 -0.1308
 1804W        W17421   2.464   5.583   4.964 -0.1577 -0.3251 -0.0591
 1805W        W17422   5.656   4.526   2.472  0.1592 -0.1666  0.1887
 1806W        W17423   3.617  15.724   3.595 -0.0113  0.1239 -0.1005
 1807W        W17424   2.483  15.905   0.806 -0.0811  0.1892 -0.0525
 1808W        W17425  17.494   3.522  14.191  0.0505  0.0279  0.4075
 1809W        W17426  13.091   0.764   3.319 -0.1380 -0.0781  0.2428
 1810W        W17427   8.701   7.021   3.388 -0.2682 -0.2519  0.1027
 1811W        W17428  12.953   8.640  15.071 -0.1149 -0.1822  0.2849
 1812W        W17429  13.634  11.878   4.870 -0.2341  0.1702  0.1829
 1813W        W17430  17.268   3.167   0.802  0.1640  0.0117  0.0866
 1814W        W17431  13.143  10.337  15.703  0.1458 -0.2789 -0.1658
 1815W        W17432   9.914  12.766   1.569  0.0477 -0.0505  0.1208
 1816W        W17433   0.710   5.094   3.356  0.1393  0.1421 -0.1862
 1817W        W17434  12.063   1.809   4.990  0.0560 -0.0654  0.1401
 1818W        W17435   6.407   5.839  12.043  0.0627  0.0129  0.0680
 1819W        W17436  13.401   7.803  15.194 -0.0164  0.1837  0.0964
 1820W        W17437   7.870  12.145   2.144 -0.0803  0.0978  0.1175
 1821W        W17438  15.063   8.075  15.521  0.1432 -0.0993 -0.2842
 1822W        W17439   4.207  13.153  13.400 -0.1311  0.0059 -0.0894
 1823W        W17440  16.522   8.296  16.153  0.1050  0.3495 -0.2080
 1824W        W17441   2.562  13.553   3.472 -0.0907  0.0767 -0.1857
 1825W        W17442  12.239   2.875  16.238 -0.0725  0.1986  0.0536
 1826W        W17443  14.638  17.466   6.322 -0.1280  0.2452  0.3335
 1827W        W17444  15.701   0.181  16.209 -0.0806 -0.0444  0.5191
 1828W        W17445   2.236  15.759   5.525  0.1966 -0.0593 -0.0933
 1829W        W17446  11.459  12.551   2.388 -0.3702  0.0484  0.1642
 1830W        W17447   0.541   8.359   5.740  0.1115  0.0081 -0.1182
 1831W        W17448   5.620   6.651  13.096  0.1531  0.0744 -0.1334
 1832W        W17449   9.534   6.132   4.151  0.2445  0.1317  0.0814
 1833W        W17450  10.703   4.571  16.658  0.1302 -0.0617 -0.0721
 1834W        W17451   7.810   2.513  15.181 -0.2785 -0.1725 -0.1655
 1835W        W17452   4.721  13.209  13.154  0.0517 -0.0100  0.1285
 1836W        W17453  10.632   3.747   3.951 -0.0640  0.0804  0.1139
 1837W        W17454  13.671   7.614  16.606  0.1519 -0.2650  0.0106
 1838W        W17455  13.502   3.390   2.349 -0.0301  0.3855 -0.0420
 1839W        W17456   7.755  16.202   0.007 -0.0198 -0.0904  0.2860
 1840W        W17457   1.421   7.026  11.781 -0.2142 -0.0408 -0.3808
 1841W        W17458   4.934   9.158  13.007  0.0219 -0.1407  0.2009
 1842W        W17459  13.444   9.510   2.585 -0.2389  0.0552  0.0745
 1843W        W17460   9.378  17.759   0.313 -0.0541  0.0476 -0.1777
 1844W        W17461   9.350   3.800   1.316  0.0758  0.3701 -0.2046
 1845W        W17462  16.838   4.884   1.069  0.0396 -0.4130  0.1520
 1846W        W17463   3.568  11.321   5.069 -0.1186  0.1265 -0.2030
 1847W        W17464  17.306  12.838   4.754  0.1103  0.0882  0.0326
 1848W        W17465  11.446   8.153   2.247 -0.3039  0.1076  0.0668
 1849W        W17466   6.547   1.564   0.279  0.1419 -0.2711  0.0833
 1850W        W17467  13.215   3.085  14.824 -0.1612  0.1063 -0.0756
 1851W        W17468  17.142  14.948  16.809  0.0791  0.0771 -0.0251
 1852W        W17469   6.658   4.180  14.432 -0.1640 -0.1763  0.1379
 1853W        W17470  10.724   9.650   2.436 -0.0437 -0.0022 -0.0528
 1854W        W17471   2.545  16.397  16.037 -0.1488  0.0360  0.3902
 1855W        W17472   9.934  15.330   4.512 -0.1987 -0.0192  0.2628
 1856W        W17473   8.977  15.436   4.855 -0.0726 -0.1372 -0.0799
 1857W        W17474  16.377   3.609  12.438  0.5755  0.2090 -0.2403
 1858W        W17475  14.481   3.525  15.070 -0.5421  0.1713 -0.0893
 1859W        W17476   5.588   0.050  15.571  0.3101  0.1052 -0.1556
 1860W        W17477   1.376   3.156  12.253 -0.0859  0.2157 -0.2678
 1861W        W17478   7.022   9.528   3.668  0.1016  0.1312 -0.1126
 1862W        W17479   2.614  11.239  15.227 -0.0206  0.1240  0.0218
 1863W        W17480  14.050  14.539   0.411 -0.2147 -0.0405 -0.1473
 1864W        W17481   7.412   3.765  15.664  0.0427 -0.0666 -0.1429
 1865W        W17482   4.777   5.562   4.518 -0.0910 -0.3882 -0.0090
 1866W        W17483   8.904  10.042  14.807  0.0120 -0.3414  0.0794
 1867W        W17484  10.890  13.652  10.709 -0.0526 -0.2002 -0.0577
 1868W        W17485   8.836   1.086  15.699 -0.1080 -0.0716  0.1035
 1869W        W17486  15.865  14.561  15.339  0.0343  0.1395 -0.0112
 1870W        W17487   6.765  15.740   5.763  0.2366 -0.1450 -0.1386
 1871W        W17488   2.368   6.095   4.328  0.3004  0.2459  0.2635
 1872W        W17489   7.007   0.625  11.894 -0.0123  0.0305  0.0987
 1873W        W17490  16.340   6.802   2.523 -0.0536  0.1344 -0.1258
 1874W        W17491   0.605  17.310   1.533 -0.1390 -0.0181 -0.1453
 1875W        W17492   7.610  13.026  12.956 -0.1785 -0.0047 -0.0940
 1876W        W17493  13.331  15.868  15.210  0.2403  0.0695 -0.1436
 1877W        W17494  14.641  12.015  14.716  0.2267  0.3180 -0.0540
 1878W        W17495  16.394  12.215  15.741 -0.1962 -0.0110 -0.2339
 1879W        W17496  16.894   0.385  15.800 -0.1022  0.2803 -0.1217
 1880W        W17497   9.077   5.712  13.666 -0.2627  0.0975  0.1529
 1881W        W17498  12.151   0.741   4.872 -0.2595 -0.0676  0.1621
 1882W        W17499   5.321   9.561   4.615 -0.2079  0.1222 -0.1206
 1883W        W17500  15.501   1.618   1.839 -0.0935  0.1137  0.2411
 1884W        W17501   2.235   1.009   3.717 -0.1312 -0.3403 -0.0945
 1885W        W17502  16.220   6.339   2.669  0.0742 -0.2411  0.2281
 1886W        W17503   9.460   8.197  15.942  0.1088 -0.1312 -0.2744
 1887W        W17504  12.638   7.883  12.586  0.1817 -0.4521  0.2236
 1888W        W17505   6.017  13.121   0.801 -0.0919  0.0482 -0.1796
 1889W        W17506   8.550  15.681  14.499  0.1065 -0.0980 -0.0310
 1890W        W17507  10.950   7.773  13.922  0.0499 -0.4871  0.1487
 1891W        W17508   2.488  11.907   3.634 -0.0784 -0.1633  0.0570
 1892W        W17509  14.628   2.913  15.041  0.1724  0.3979  0.0919
 1893W        W17510  17.837   9.802   1.014 -0.1669  0.2432 -0.2231
 1894W        W17511  17.152  15.858  11.762 -0.0093  0.0651 -0.0387
 1895W        W17512  11.061  16.466  12.876  0.2621 -0.1289 -0.1754
 1896W        W17513   6.569  11.771   3.627  0.0181 -0.2614  0.0231
 1897W        W17514   5.910  12.226   4.034 -0.0376 -0.0759  0.3341
 1898W        W17515   6.892   6.286   0.188 -0.0981  0.3504 -0.3187
 1899W        W17516  15.129  10.739  16.599 -0.2915 -0.1364  0.0668
 1900W        W17517   7.908   9.951   2.951 -0.2480 -0.0002 -0.0670
 1901W        W17518   0.031  13.470  11.561 -0.0903 -0.0248  0.1137
 1902W        W17519   8.772  17.090   2.221 -0.2885 -0.0923 -0.0908
 1903W        W17520   8.743  14.787   1.826  0.0606  0.2059  0.1041
 1904W        W17521   7.847  14.339   3.543  0.0796 -0.1138 -0.1114
 1905W        W17522  10.821   1.846   2.112 -0.1251 -0.1347 -0.0368
 1906W        W17523  15.114   3.415   5.154 -0.0598 -0.1617  0.0864
 1907W        W17524   1.581   6.977  15.020 -0.0838  0.1400  0.2274
 1908W        W17525  10.011   6.646   3.473  0.0942  0.1335  0.1485
 1909W        W17526  12.135   6.910  14.291 -0.0048 -0.3994  0.0097
 1910W        W17527  13.400  10.888   4.981  0.1671 -0.3161 -0.4290
 1911W        W17528  14.752   8.522   2.527 -0.4027  0.0280  0.1737
 1912W        W17529   5.988  16.205   1.883  0.0079 -0.0334 -0.0090
 1913W        W17530  14.814   5.555   5.145 -0.2813  0.0425 -0.0377
 1914W        W17531   1.516  11.658  12.520  0.2145 -0.1244 -0.1119
 1915W        W17532   0.785  13.847  10.787  0.3713 -0.0654 -0.0010
 1916W        W17533  10.698  15.905  15.203  0.1431 -0.1222  0.3173
 1917W        W17534   9.478   1.794   4.732  0.0312  0.1076  0.1972
 1918W        W17535  16.296   1.420   4.122  0.1079  0.0983 -0.2560
 1919W        W17536   8.713  10.206  13.177  0.1342  0.1369  0.0199
 1920W        W17537  17.344  10.897  16.585  0.1911  0.0815 -0.0992
 1921W        W17538   1.008   9.865  15.388 -0.1285  0.2187 -0.2396
 1922W        W17539  17.132   4.448   3.952 -0.3997 -0.2490  0.0788
 1923W        W17540   3.891   3.860  10.657  0.0914  0.2445 -0.1707
 1924W        W17541   4.039   4.274  13.869  0.1430  0.0594 -0.4139
 1925W        W17542   9.341  11.298   0.145  0.0739 -0.2966 -0.0422
 1926W        W17543  17.731  12.019   1.187 -0.1842  0.1134 -0.0705
 1927W        W17544   3.666  10.450  13.004 -0.1235  0.0237  0.0954
 1928W        W17545   3.382   9.892  11.942  0.1611 -0.0804 -0.1906
 1929W        W17546  10.283  15.452   5.767  0.2787 -0.1431 -0.2266
 1930W        W17547  14.790   7.179  15.374 -0.2411  0.2025 -0.1013
 1931W        W17548  10.157  13.265   3.467 -0.0304  0.0538  0.1024
 1932W        W17549  11.949   2.551   4.363 -0.0565  0.2072 -0.0805
 1933W        W17550  12.974  11.820  14.539  0.2458 -0.0314  0.0867
 1934W        W17551   7.550   9.341  13.913 -0.2041 -0.4409  0.4394
 1935W        W17552  14.577   8.953   1.734 -0.0238  0.1110 -0.0636
 1936W        W17553   1.317  16.166   4.899  0.2349  0.2179 -0.0417
 1937W        W17554  10.770  17.258  12.558 -0.0119  0.4497  0.1520
 1938W        W17555   2.991  14.526  16.588 -0.2534  0.2010  0.0936
 1939W        W17556   3.863   3.774   0.081 -0.0535  0.1299  0.2927
 1940W        W17557   0.140   3.810  16.573  0.5226  0.3314 -0.0710
 1941W        W17558  10.807  13.772   0.358 -0.2519 -0.2265 -0.0255
 1942W        W17559   9.714  12.566   5.188 -0.0538 -0.0920  0.3513
 1943W        W17560  14.911   7.972   3.454  0.0203 -0.0603 -0.0341
 1944W        W17561   6.371  11.225   1.247 -0.3550 -0.3137  0.1527
 1945W        W17562   0.882   0.946  12.851 -0.1860 -0.2024  0.1729
 1946W        W17563  16.595  13.450  11.809 -0.2001  0.3563  0.1922
 1947W        W17564   3.633   7.090  14.743  0.0413 -0.0234 -0.0889
 1948W        W17565  14.337   9.404  14.221 -0.3646 -0.0053 -0.1387
 1949W        W17566   1.600   5.875  16.731 -0.1633 -0.4873  0.0970
 1950W        W17567   2.303   1.078   3.159 -0.2780  0.0884  0.0570
 1951W        W17568  16.765  16.644   1.940 -0.1845 -0.2819 -0.1278
 1952W        W17569  16.494  11.706   3.824 -0.1769 -0.3604  0.3542
 1953W        W17570  11.732  10.648   3.230 -0.3397  0.1377  0.1846
 1954W        W17571  17.530  16.083   2.709  0.2268  0.2110 -0.0030
 1955W        W17572   9.021   8.157   0.995  0.3524 -0.2262  0.3741
 1956W        W17573  12.982   9.509  16.722  0.1779  0.0328 -0.0430
 1957W        W17574   4.619  15.599   4.688  0.0091 -0.0435  0.1301
 1958W        W17575  17.419  12.098   2.210 -0.0646 -0.2015 -0.3345
 1959W        W17576  12.268  12.446   4.062 -0.3084 -0.1322 -0.1955
 1960W        W17577   5.163  14.669  11.171  0.2821 -0.1158  0.0440
 1961W        W17578  12.435   8.785  16.359  0.1484  0.0381 -0.2092
 1962W        W17579   0.335   5.654  13.698  0.0164 -0.1065  0.0082
 1963W        W17580   4.685  17.813   0.628  0.0774 -0.0786 -0.1376
 1964W        W17581   7.127   2.292  12.553  0.0598  0.1650 -0.0635
 1965W        W17582  15.641  10.559  11.994  0.2100  0.2473  0.3291
 1966W        W17583   8.058   2.539   4.389 -0.1790 -0.0337 -0.0069
 1967W        W17584  17.486  12.127   5.163  0.1769 -0.2981  0.2834
 1968W        W17585  15.049  15.409  14.659  0.1164 -0.2511  0.0251
 1969W        W17586   2.403   7.766   2.271 -0.1542 -0.1055 -0.0105
 1970W        W17587   7.992  13.326  13.155  0.0557 -0.1769 -0.0363
 1971W        W17588  15.802  11.449  14.364 -0.0596  0.1669  0.1401
 1972W        W17589   8.831   7.078   4.676 -0.1618 -0.2352  0.0035
 1973W        W17590  16.980   5.810   0.607  0.0746  0.1092 -0.0492
 1974W        W17591  14.527   9.975   0.642  0.1569  0.3658  0.0809
 1975W        W17592  11.512   6.923  13.543  0.0341 -0.0023  0.0329
 1976W        W17593  14.574   0.202   5.598 -0.0358 -0.2122  0.0776
 1977W        W17594   5.574   6.992   3.026  0.0613 -0.3201 -0.4114
 1978W        W17595   6.015  15.801   0.136  0.3827  0.3654 -0.0527
 1979W        W17596   4.898   5.156  15.393 -0.0660  0.2194 -0.1189
 1980W        W17597  15.059   0.419  15.790 -0.0726 -0.2731  0.3910
 1981W        W17598  12.648  11.896   5.688 -0.1279  0.2929  0.1941
 1982W        W17599   7.349  11.317   0.196 -0.1901 -0.0206  0.2748
 1983W        W17600  11.377   7.437   1.491  0.0171 -0.0151  0.2131
 1984W        W17601   5.742   3.156  12.070  0.1979 -0.2537  0.1049
 1985W        W17602  15.383   9.842  12.487 -0.3197 -0.1598 -0.1100
 1986W        W17603   9.503  14.184  12.828  0.0950 -0.0932  0.0281
 1987W        W17604   5.084   3.396   5.563 -0.2010  0.1502 -0.1674
 1988W        W17605   4.709  13.783   3.566 -0.1321 -0.2466  0.2828
 1989W        W17606   1.679   0.716  13.569 -0.1863 -0.1099  0.0621
 1990W        W17607  17.739  17.077  12.738 -0.0208 -0.0430  0.1460
 1991W        W17608  14.224   8.125   4.223  0.1051  0.0605 -0.0305
 1992W        W17609  11.897  14.836  12.189  0.2631  0.0450  0.3474
 1993W        W17610   4.788  10.877   1.003 -0.0451 -0.3114 -0.2378
 1994W        W17611   3.880   0.562  16.359  0.2008 -0.1330  0.4056
 1995W        W17612  17.620   3.197  11.706  0.1433 -0.2762 -0.0639
 1996W        W17613  14.648   7.932  13.007  0.0833 -0.0076  0.0383
 1997W        W17614  11.126   4.921   2.380 -0.0511  0.1620 -0.0784
 1998W        W17615  11.043  13.216  11.566 -0.0754 -0.1322  0.0912
 1999W        W17616   4.342  13.147  14.885 -0.2170 -0.0530 -0.0648
 2000W        W17617   2.786   5.842   4.515  0.0126 -0.0265  0.0075
 2001W        W17618   7.529  14.839   0.341  0.3867 -0.0101 -0.0916
 2002W        W17619   6.306  12.626  16.000 -0.2415 -0.0122  0.1881
 2003W        W17620   0.095  16.335  15.104 -0.1637  0.0788  0.1643
 2004W        W17621   4.867  10.427  14.555  0.1015 -0.0214 -0.0338
 2005W        W17622  10.948  14.361  14.487 -0.2106  0.0472 -0.2754
 2006W        W17623   1.880  15.213   3.360 -0.2088 -0.3077 -0.2209
 2007W        W17624   6.224  17.765  11.022  0.1590  0.0525  0.3552
 2008W        W17625   3.230  17.564  10.477 -0.1378  0.2032 -0.0723
 2009W        W17626  14.341  17.729  14.293  0.2230  0.3949 -0.0380
 2010W        W17627   5.411  16.302  15.974  0.0946  0.0881 -0.0479
 2011W        W17628  11.762   2.164  13.396 -0.0053  0.1055  0.0278
 2012W        W17629   1.655  11.594  16.637 -0.0417  0.0205  0.1408
 2013W        W17630  16.269  17.200   5.294  0.0607 -0.2085  0.0809
 2014W        W17631   6.335   5.569  12.585  0.2874 -0.2651  0.0637
 2015W        W17632  13.327   7.645   3.486 -0.3040 -0.0037 -0.2761
 2016W        W17633  13.486   7.670   2.329  0.1038 -0.1008 -0.2293
 2017W        W17634   4.903  10.129   2.550  0.0662 -0.0375  0.1399
 2018W        W17635   3.833   0.860  12.312  0.1773  0.3361 -0.0014
 2019W        W17636  17.223  10.891   1.171  0.1118  0.2330 -0.1295
 2020W        W17637   2.547   1.486   4.570  0.1629  0.0414 -0.1780
 2021W        W17638  14.395  16.929  13.571  0.1363 -0.2360 -0.0841
 2022W        W17639   8.546  13.249  16.748  0.2515 -0.1582  0.1486
 2023W        W17640   6.746   5.512  12.883 -0.1560  0.2865  0.0387
 2024W        W17641  14.478   6.255  15.555  0.0468 -0.0490  0.0880
 2025W        W17642   7.924  10.619   0.468  0.1615 -0.0613  0.2671
 2026W        W17643  15.974   3.017   5.393  0.0517  0.3094 -0.2575
 2027W        W17644  10.808  11.086  16.143 -0.0943 -0.3091 -0.0385
 2028W        W17645   9.498   5.616   3.978 -0.1025 -0.1542 -0.2212
 2029W        W17646  10.916  10.321   6.502 -0.3196  0.2074 -0.0915
 2030W        W17647   1.145  15.223  16.444 -0.1834 -0.0269 -0.0988
 2031W        W17648  16.869   1.838   0.203  0.0082  0.0228  0.3858
 2032W        W17649  14.507  16.445  16.342 -0.0828  0.1182 -0.2810
 2033W        W17650   2.602  13.397  15.118 -0.0329 -0.3526 -0.2744
 2034W        W17651  17.317  16.162   0.775  0.0188 -0.2000 -0.0384
 2035W        W17652   2.865  14.944  12.378  0.2428  0.0493  0.1325
 2036W        W17653   4.611  11.737   5.342 -0.1508  0.0267  0.1066
 2037W        W17654   2.136  13.592  12.061 -0.0727 -0.1311  0.2180
 2038W        W17655   8.718   2.236   1.506 -0.0043 -0.0046  0.4847
 2039W        W17656   3.142   4.976   5.387  0.1006  0.2309  0.1128
 2040W        W17657   2.078   9.971  13.745 -0.0577  0.0203 -0.0392
 2041W        W17658   7.400  15.617   3.425  0.0914  0.0965  0.0189
 2042W        W17659   1.976  17.543  12.686 -0.0539 -0.1110 -0.2052
 2043W        W17660   7.811  11.293   1.314  0.0343 -0.1451 -0.0580
 2044W        W17661  13.368   1.127  12.463  0.2214  0.0371  0.2543
 2045W        W17662  13.602  10.611   1.126 -0.1834  0.0529  0.0903
 2046W        W17663   1.955  15.877  11.277  0.2413  0.1783  0.2053
 2047W        W17664  14.848   7.147  13.039 -0.1693 -0.1867 -0.0434
 2048W        W17665   7.443   8.679  16.246  0.0008 -0.1011 -0.1779
 2049W        W17666   8.375  10.400  14.136  0.0092 -0.0548  0.1617
 2050W        W17667   6.086   9.729  12.326 -0.4368  0.1063  0.1609
 2051W        W17668  17.149  17.774  12.751 -0.1347  0.0857 -0.1841
 2052W        W17669  11.045  17.759   5.051 -0.1375 -0.0180 -0.0736
 2053W        W17670  12.712  13.419  13.948  0.1623 -0.0231 -0.0999
 2054W        W17671  14.225  13.631  14.768  0.0920 -0.2583  0.0383
 2055W        W17672  11.694  13.970   4.459  0.0831  0.0867 -0.1005
 2056W        W17673   7.610   2.145  14.904  0.0369  0.1170 -0.1993
 2057W        W17674   2.942   2.355   5.680  0.0485  0.0343 -0.1493
 2058W        W17675  12.114   0.629  12.430 -0.0128 -0.0539  0.3251
 2059W        W17676  16.018   3.299  11.474  0.0206 -0.1187 -0.2193
 2060W        W17677  11.407   0.786   5.432  0.1994 -0.4487  0.1130
 2061W        W17678  12.957   7.330  15.766  0.1937  0.2926 -0.1988
 2062W        W17679  11.749   5.068   5.445 -0.1159 -0.0179  0.2088
 2063W        W17680   5.290   3.919  13.991  0.3784  0.0540 -0.0651
 2064W        W17681   0.258  13.642  12.638  0.0912 -0.2511  0.1873
 2065W        W17682  14.040   1.033  13.328  0.0243 -0.2747 -0.0958
 2066W        W17683  16.793  13.383  13.653  0.0044 -0.0134  0.1334
 2067W        W17684  10.985  10.275  16.230  0.3437 -0.1027  0.3409
 2068W        W17685   8.530   6.464   5.272  0.3424 -0.0639 -0.0493
 2069W        W17686  15.780   0.527  10.376 -0.0179  0.1281 -0.0613
 2070W        W17687   5.090   6.680   0.076 -0.1250  0.0993 -0.2579
 2071W        W17688  10.004  15.338  13.015  0.0924 -0.0435 -0.1882
 2072W        W17689  16.856  15.634  15.868 -0.0124  0.2343 -0.1138
 2073W        W17690   7.409  17.465  15.204  0.1151  0.5468  0.0011
 2074W        W17691  15.294  12.931   2.886  0.1209  0.0991 -0.2984
 2075W        W17692   6.311   9.129   0.828 -0.0802  0.0364 -0.3116
 2076W        W17693  14.638   4.044   3.825 -0.1135  0.1652 -0.1778
 2077W        W17694  16.134   2.375   4.053  0.0141 -0.1679 -0.1681
 2078W        W17695   8.838   4.491   0.860  0.2164 -0.0308 -0.1727
 2079W        W17696  16.635   8.871   0.993 -0.0599  0.1979  0.0222
 2080W        W17697   5.567   8.773  13.805  0.0808 -0.0600  0.1654
 2081W        W17698  13.979  16.222  14.677  0.0473  0.1040  0.1622
 2082W        W17699  16.680   8.747  13.619  0.0827 -0.2145  0.0397
 2083W        W17700   9.670   4.134  13.651  0.1029 -0.1167  0.2715
 2084W        W17701  16.233  12.625   2.923 -0.2015  0.1282  0.1141
 2085W        W17702   6.902   5.715  15.219  0.1362 -0.2892 -0.1482
 2086W        W17703   0.020  17.745  15.996  0.0469  0.2171 -0.4894
 2087W        W17704   2.863   2.615  15.722  0.0527  0.0979  0.1526
 2088W        W17705   1.901   4.022   1.834 -0.0822 -0.1741  0.1223
 2089W        W17706   5.545   2.373  12.676 -0.2789 -0.2501  0.2385
 2090W        W17707  15.686  16.187   3.224 -0.2448  0.2948 -0.1268
 2091W        W17708  13.178  16.307   3.484 -0.1338  0.0664 -0.1910
 2092W        W17709  10.435  14.197   2.615 -0.1152  0.0883  0.3379
 2093W        W17710   7.951   0.739   1.127 -0.1800  0.0387 -0.1015
 2094W        W17711   2.246   7.075  13.802  0.1930  0.0848 -0.2061
 2095W        W17712  16.716  15.001  14.601 -0.1954 -0.0052  0.2212
 2096W        W17713   6.667  13.002   4.811 -0.0119 -0.0241  0.0660
 2097W        W17714  15.532  16.403  12.287 -0.0256  0.1054 -0.1415
 2098W        W17715  11.575   1.665   0.085 -0.2518  0.2848 -0.2268
 2099W        W17716   0.894   3.789   0.914 -0.2944 -0.3265  0.0723
 2100W        W17717  14.385  16.460  15.175 -0.3497  0.0593 -0.1340
 2101W        W17718  12.023   6.519  13.487 -0.1623 -0.0029 -0.2042
 2102W        W17719  16.223  13.762  11.556 -0.1347 -0.1453  0.3636
 2103W        W17720   9.596  14.356  11.543 -0.0160  0.1234 -0.1427
 2104W        W17721   1.275   9.982   4.350  0.2351 -0.3016 -0.0774
 2105W        W17722   8.751  10.018   4.318 -0.0866  0.1952  0.0732
 2106W        W17723  10.551   9.139  14.021 -0.1837 -0.1170 -0.0793
 2107W        W17724   2.954  12.028   1.319  0.4208  0.0066 -0.0984
 2108W        W17725   7.894   1.689  11.562  0.0530 -0.0211  0.1123
 2109W        W17726   7.933   3.637   4.864 -0.2388  0.0395  0.0520
 2110W        W17727  16.031  13.716  11.040 -0.1314  0.0447  0.0789
 2111W        W17728   0.504   5.439   1.955 -0.0909 -0.0614  0.0900
 2112W        W17729   5.291   7.392   5.335 -0.0035 -0.0029 -0.0392
 2113W        W17730  17.549  16.852   2.276 -0.2894 -0.1679 -0.1058
 2114W        W17731   0.025   4.574  16.137  0.1625  0.0582 -0.0380
 2115W        W17732   0.377   0.741  16.148 -0.1214  0.2096 -0.3743
 2116W        W17733   6.138   6.576  13.306  0.0466 -0.0616  0.0187
 2117W        W17734   4.503   3.458   2.771  0.1720  0.1414 -0.0293
 2118W        W17735   8.287   8.895   4.559  0.2319  0.0865  0.1233
 2119W        W17736  12.408  15.204  15.274 -0.0821  0.3807  0.0069
 2120W        W17737  16.530  16.202   1.703  0.2759 -0.0220 -0.0355
 2121W        W17738   9.003  16.989   3.736  0.1193 -0.2177 -0.1905
 2122W        W17739   4.315  12.294  15.525  0.0485 -0.0974 -0.1464
 2123W        W17740   8.899  11.105  14.489 -0.1581  0.0055 -0.0150
 2124W        W17741  12.605   4.818   0.498 -0.1185  0.0757  0.0459
 2125W        W17742   9.898   4.860  13.694 -0.1443  0.0927 -0.0871
 2126W        W17743   6.802  13.127  14.642 -0.1067  0.0983  0.1827
 2127W        W17744  13.959   5.502   5.491 -0.1478 -0.0449  0.0794
 2128W        W17745   7.652  16.368   4.835  0.0079 -0.2252 -0.3592
 2129W        W17746   1.739   4.627  15.276  0.1050 -0.0941  0.0536
 2130W        W17747  10.355  12.009   1.091 -0.3747  0.1470 -0.0182
 2131W        W17748   7.062  11.611   4.907 -0.0746  0.3408 -0.2670
 2132W        W17749   7.128  16.884  13.420 -0.3423 -0.0877  0.1244
 2133W        W17750   2.109   9.488  13.756  0.3189  0.0379  0.1401
 2134W        W17751  13.952   9.884   0.667  0.1206  0.1736 -0.0482
 2135W        W17752  14.719   0.322   0.948 -0.1678  0.1033  0.1145
 2136W        W17753  12.453   9.818  13.922  0.0907 -0.0388  0.2774
 2137W        W17754  15.372   5.363  13.420  0.1330  0.2482  0.0556
 2138W        W17755   1.758   5.411  14.327  0.1890  0.3138 -0.1075
 2139W        W17756   5.337   0.862   4.201  0.2522 -0.2545  0.3421
 2140W        W17757   8.512  13.976  14.632  0.5067 -0.2438  0.1008
 2141W        W17758   2.475   1.709   2.413 -0.0162 -0.0633 -0.1412
 2142W        W17759  13.244  13.404   3.422  0.3546 -0.1726  0.1467
 2143W        W17760  16.120   1.714   3.371 -0.1672 -0.3636  0.3120
 2144W        W17761   4.395   4.180   1.638  0.3436  0.0520 -0.0688
 2145W        W17762   4.012   0.690  12.787  0.1463 -0.1230  0.0288
 2146W        W17763  14.772   5.276  13.614  0.2442 -0.2565 -0.2869
 2147W        W17764  13.513  17.202  14.323  0.0052 -0.0815 -0.1735
 2148W        W17765   8.366  15.528   0.084  0.1024 -0.1051 -0.0243
 2149W        W17766   8.780   3.959   3.321  0.0573  0.0250  0.2078
 2150W        W17767  13.825  10.990  13.428 -0.0620 -0.0493 -0.1498
 2151W        W17768  15.379   2.050   1.051 -0.0502 -0.1042 -0.1893
 2152W        W17769  14.277   4.901   4.959 -0.4496  0.0060  0.0075
 2153W        W17770   4.447   3.384  12.363 -0.4198  0.0236 -0.2812
 2154W        W17771   5.148  10.839   0.096 -0.1228  0.1592  0.0130
 2155W        W17772  12.658   4.692  15.692 -0.0198 -0.1654  0.2655
 2156W        W17773  13.120  15.332  12.436 -0.0032 -0.1609  0.1806
 2157W        W17774  13.608  15.891  14.343  0.3700  0.1705  0.0048
 2158W        W17775  13.334   8.314   3.423  0.4064  0.0918 -0.1391
 2159W        W17776  15.079  14.581   0.325  0.2654 -0.0308  0.0571
 2160W        W17777   9.319   9.104  16.111  0.2172  0.0329  0.0751
 2161W        W17778   9.457   0.852   2.942 -0.0354  0.1541  0.0857
 2162W        W17779   4.447  12.791  15.235 -0.1650 -0.0527 -0.4807
 2163W        W17780  12.366  15.755   4.378  0.0110 -0.2613  0.3252
 2164W        W17781  10.249   4.380  10.749 -0.0217 -0.0539 -0.1487
 2165W        W17782   5.542   2.474  14.637 -0.2386  0.0500  0.0742
 2166W        W17783  17.200   3.287  12.013  0.2328 -0.0485  0.1645
 2167W        W17784   8.534   9.124  14.876 -0.4941  0.3181 -0.1191
 2168W        W17785   0.714   2.717   3.757  0.0888 -0.0477 -0.0112
 2169W        W17786  15.368   6.712   3.507  0.0662 -0.0352 -0.4191
 2170W        W17787   0.100   8.119  14.475 -0.1445  0.3296  0.0637
 2171W        W17788   1.604  16.625   2.924 -0.1918  0.1658 -0.2709
 2172W        W17789  14.443  17.513  15.396 -0.2022 -0.0174 -0.2170
 2173W        W17790   9.962   9.543  13.429  0.1187  0.0989  0.2174
 2174W        W17791   5.520  16.514  12.911  0.4022 -0.2569  0.1264
 2175W        W17792   9.400   7.164   0.159  0.1734 -0.2046  0.2577
 2176W        W17793  15.410  12.338  13.822  0.1456 -0.0059  0.3785
 2177W        W17794  15.430   7.299   3.447 -0.1376  0.2964 -0.0274
 2178W        W17795  13.565  11.030  13.889  0.2561  0.5440  0.0646
 2179W        W17796   7.717   7.485  15.730 -0.2378  0.1584 -0.2860
 2180W        W17797   9.466  10.374   4.194 -0.1537  0.1893 -0.3009
 2181W        W17798   4.851   8.730  14.614  0.1127  0.1775  0.3451
 2182W        W17799  12.290  16.983  12.820  0.1693  0.4153  0.1372
 2183W        W17800   0.477  14.107  15.977 -0.2423  0.0938  0.0850
 2184W        W17801   8.563   7.218  14.993 -0.2298 -0.0057 -0.3029
 2185W        W17802   1.172   0.606  15.629 -0.0836 -0.1155 -0.1853
 2186W        W17803   9.373   3.385  13.173  0.2676  0.2627 -0.0256
 2187W        W17804  12.217   6.056   3.974  0.0737 -0.2220 -0.0206
 2188W        W17805  14.949   2.570  15.065 -0.1595  0.1525  0.0575
 2189W        W17806  15.847   1.324   2.063  0.1693 -0.3820 -0.0815
 2190W        W17807  13.013  13.991  11.273 -0.1966  0.0399  0.3382
 2191W        W17808   4.962   4.966   0.038 -0.1886 -0.2167  0.1267
 2192W        W17809  12.326  17.066   0.602  0.1337 -0.2956 -0.0635
 2193W        W17810  11.255   0.085  14.424  0.2883  0.0551  0.2569
 2194W        W17811  12.051  11.869   1.205  0.1445 -0.0163 -0.0845
 2195W        W17812   6.155   7.826  13.160 -0.0418  0.1331  0.1652
 2196W        W17813  10.412   3.927  11.536 -0.1773 -0.2583 -0.1640
 2197W        W17814   9.754   0.131  14.143  0.0276  0.2187  0.1498
 2198W        W17815   3.884   0.194  13.205 -0.1013 -0.2109 -0.0914
 2199W        W17816  12.469   0.366   5.585 -0.2332 -0.1674 -0.3487
 2200W        W17817  10.492  17.190   4.986  0.2415  0.1533  0.0348
 2201W        W17818   5.074  14.517   4.093 -0.1715  0.1119  0.0508
 2202W        W17819  13.524  11.982   2.844 -0.4988  0.1256  0.1353
 2203W        W17820  12.127  10.901  15.771  0.0215 -0.3268 -0.0507
 2204W        W17821   3.166   0.493   1.681  0.0325 -0.0660  0.2862
 2205W        W17822  16.785   1.694  12.517  0.2205  0.4622 -0.0860
 2206W        W17823   8.916  10.878  13.696 -0.0538 -0.2065  0.2940
 2207W        W17824   2.210  13.878   5.680 -0.2700  0.0222  0.0887
 2208W        W17825  15.214   7.374   0.968  0.1128 -0.1344 -0.0356
 2209W        W17826   1.052   3.437  14.700 -0.1462  0.1477  0.0429
 2210W        W17827   4.107   3.044  16.803 -0.2273 -0.1337  0.3250
 2211W        W17828   4.936   2.691  11.475 -0.0925 -0.1850 -0.0521
 2212W        W17829  16.499  14.958   4.332  0.1683 -0.0690 -0.0408
 2213W        W17830  13.031   1.605   5.423  0.0508  0.0903  0.0502
 2214W        W17831   5.974   1.689  13.003  0.0787  0.1340  0.2927
 2215W        W17832  16.197  11.793   1.958 -0.0120  0.4660 -0.2552
 2216W        W17833   6.947   5.393  16.413  0.1049 -0.2932 -0.0021
 2217W        W17834   0.018   6.627   1.567  0.2226  0.2100 -0.0855
 2218W        W17835   5.946   7.611   1.780 -0.0629 -0.1060 -0.0952
 2219W        W17836   6.747   2.532  14.351 -0.1203 -0.1167 -0.0612
 2220W        W17837  16.290  16.737  11.278  0.2509 -0.1562  0.1591
 2221W        W17838  14.219  13.760  13.782  0.1984  0.0753  0.2633
 2222W        W17839   5.642  10.497  15.176 -0.0552 -0.0085  0.1169
 2223W        W17840  14.456  12.424  14.949  0.1187 -0.1465 -0.0430
 2224W        W17841  16.960  15.984  12.510 -0.4875 -0.1099 -0.2811
 2225W        W17842  13.596   3.195   5.579 -0.1291 -0.0365  0.0746
 2226W        W17843  10.991  11.592   4.631 -0.1490  0.1590  0.0525
 2227W        W17844   7.610   6.526  16.404 -0.2744  0.0074 -0.0425
 2228W        W17845   7.300   0.672  12.333  0.0941 -0.0297  0.0191
 2229W        W17846   1.583   2.285   6.010  0.3442  0.1259  0.3407
 2230W        W17847   1.725   7.516   5.679  0.0774 -0.0696 -0.1106
 2231W        W17848  16.305   6.452   0.598  0.2685  0.2121 -0.1620
 2232W        W17849  17.516   7.047   1.089 -0.0906 -0.0984 -0.0731
 2233W        W17850   5.080  10.490  11.275  0.0769 -0.0220 -0.0003
 2234W        W17851   4.364  12.218  16.499 -0.2639 -0.1828  0.2835
 2235W        W17852  10.561  12.248  11.717 -0.3933  0.2731  0.1461
 2236W        W17853   7.231  12.976   1.147 -0.3990 -0.2005 -0.3454
 2237W        W17854   5.013   3.135   1.010 -0.2720 -0.0454  0.2035
 2238W        W17855   7.600   2.722   1.890  0.1403  0.1097  0.0895
 2239W        W17856   5.232  16.954  14.612 -0.0555 -0.1829 -0.2034
 2240W        W17857   5.157   3.728  14.487 -0.1403 -0.0990 -0.1963
 2241W        W17858   8.593   4.214   4.407  0.2480  0.0730  0.0384
 2242W        W17859  12.649  13.967  14.420 -0.1546  0.2904  0.2194
 2243W        W17860  13.984  17.674  15.602 -0.1319  0.2019  0.0714
 2244W        W17861  12.090   2.281  12.490  0.0309  0.3051  0.2057
 2245W        W17862   9.288  14.396  12.436 -0.0294  0.2332  0.4496
 2246W        W17863   0.316  16.322  15.643 -0.0798 -0.1476  0.0865
 2247W        W17864   0.339  12.113  15.707  0.0367 -0.0541 -0.1525
 2248W        W17865   9.193  10.906  13.267 -0.0106  0.0574  0.1192
 2249W        W17866  12.044   2.415  16.081 -0.2446  0.2359  0.1594
 2250W        W17867   0.894   1.416  15.001 -0.3800 -0.0618  0.1644
 2251W        W17868   8.957  16.516   4.349 -0.1152  0.0149  0.0332
 2252W        W17869  10.282   1.540   0.452  0.0583  0.0364 -0.0895
 2253W        W17870  14.326  12.393  16.333  0.1978  0.4908 -0.0411
 2254W        W17871   9.393   7.501  14.583  0.1230  0.0905 -0.1554
 2255W        W17872  16.950  10.627   2.103 -0.0147  0.1698 -0.0055
 2256W        W17873   2.573  17.702   5.587  0.2046  0.0639  0.1341
 2257W        W17874   5.585  12.693  16.221  0.1610  0.2288 -0.0224
 2258W        W17875  13.321   1.737   5.775 -0.0913  0.1724 -0.2355
 2259W        W17876  12.905   9.821  14.021  0.1292 -0.0427  0.0004
 2260W        W17877   0.618   7.248  15.377 -0.1908 -0.0826 -0.3509
 2261W        W17878  13.156  16.489   1.791  0.0515 -0.0435  0.1719
 2262W        W17879   8.037   9.188  14.730  0.0613  0.3269 -0.3693
 2263W        W17880  10.047  12.661   4.848 -0.1943 -0.0335 -0.2872
 2264W        W17881   8.605   2.228   3.019  0.0044 -0.0235 -0.2056
 2265W        W17882  14.075   9.692  12.049  0.1163 -0.1027 -0.0319
 2266W        W17883  17.694   5.303  13.208  0.0073 -0.1036  0.2476
 2267W        W17884   5.721   0.527  13.116  0.1308  0.0815 -0.0368
 2268W        W17885   5.804   9.778   5.751  0.0299  0.0096 -0.1785
 2269W        W17886   2.354  10.475   0.368  0.0590 -0.1261  0.1605
 2270W        W17887  16.517   0.569   2.653  0.0158 -0.3292 -0.2713
 2271W        W17888  15.155   4.237  13.327 -0.1572 -0.0537 -0.0363
 2272W        W17889  16.261  15.772   5.593  0.1661 -0.0130 -0.4400
 2273W        W17890  16.391   0.242   0.058 -0.0912 -0.1188 -0.0562
 2274W        W17891  15.488   3.387   1.895 -0.2085  0.1320  0.0967
 2275W        W17892   0.944   5.243  13.921  0.0426  0.1180 -0.0702
 2276W        W17893  14.735  15.624   1.904 -0.0468 -0.1762 -0.0954
 2277W        W17894  16.008   0.933  14.022 -0.1386  0.1611  0.1300
 2278W        W17895   2.361   7.923  14.111 -0.1856  0.3282  0.1353
 2279W        W17896   7.473   1.836   3.800 -0.2498  0.1790  0.1357
 2280W        W17897  15.329   8.753   1.463  0.2234 -0.0637 -0.1696
 2281W        W17898   2.383   7.145  15.873  0.0004  0.2806  0.1270
 2282W        W17899  17.685   1.960  15.586 -0.0737 -0.1038  0.0302
 2283W        W17900  10.330   4.090  15.499  0.1240 -0.3245  0.2428
 2284W        W17901   1.636   1.288  12.353 -0.1398 -0.0898 -0.0019
 2285W        W17902  17.779  14.058  12.882  0.0934  0.1523 -0.1136
 2286W        W17903   9.254  13.595  13.245  0.0299  0.4365 -0.0011
 2287W        W17904   5.145   5.147  11.789  0.0558 -0.1360 -0.0048
 2288W        W17905   9.376  16.778  10.511 -0.0990  0.0456 -0.0746
 2289W        W17906  12.296  16.666  13.754  0.3832 -0.4339  0.1246
 2290W        W17907  16.504  16.519   5.636 -0.0102  0.3453  0.2262
 2291W        W17908  14.643  16.420   0.959  0.0821  0.1697 -0.1940
 2292W        W17909  12.958  14.381  13.012 -0.0100 -0.0294  0.2451
 2293W        W17910  14.654   2.842  12.433  0.3932  0.3537 -0.1600
 2294W        W17911   1.531   2.521   2.085  0.0552 -0.1647  0.1102
 2295W        W17912   3.948   8.691   0.155  0.0746 -0.2694  0.2450
 2296W        W17913  16.870  12.019  12.177  0.1093 -0.1591  0.4351
 2297W        W17914  13.954   2.351  13.773  0.2104 -0.2411 -0.0351
 2298W        W17915  17.303   6.187   1.873  0.0786  0.1258  0.1448
 2299W        W17916   2.420  15.524   3.962 -0.3028 -0.2404  0.1477
 2300W        W17917   1.937  15.459   3.932  0.2899 -0.0429 -0.2782
 2301W        W17918   0.821   7.445  12.605 -0.3154 -0.3268  0.1125
 2302W        W17919   5.078   6.027  15.887 -0.1668  0.2022 -0.0402
 2303W        W17920   3.748   7.321   2.846  0.1320 -0.1144 -0.1265
 2304W        W17921  11.838   8.107  16.264  0.0887  0.3242 -0.0473
 2305W        W17922   2.159  10.361  13.451 -0.0174 -0.0735  0.2088
 2306W        W17923   1.509  10.446  14.593  0.1624  0.0704 -0.1005
 2307W        W17924   7.146   4.051   1.033 -0.0185  0.0471 -0.4800
 2308W        W17925  11.057  12.226  13.107 -0.0120 -0.0822  0.3572
 2309W        W17926   7.611   7.452   1.527 -0.3120 -0.0300  0.0069
 2310W        W17927   3.097   3.401  15.308 -0.0755 -0.1832 -0.1159
 2311W        W17928   3.070   4.201  12.095  0.0934  0.0279  0.0497
 2312W        W17929  16.275   2.988   2.680 -0.0562  0.2554  0.2615
 2313W        W17930   4.457   7.680  13.900 -0.0404 -0.0595  0.0628
 2314W        W17931   4.204   6.664  14.718 -0.1559 -0.2975  0.1889
 2315W        W17932   4.492  13.507   2.668 -0.1191 -0.2627  0.0931
 2316W        W17933   4.758  11.798   4.843 -0.1852 -0.1502 -0.2749
 2317W        W17934  13.216   1.579  12.670  0.2108 -0.0028  0.1724
 2318W        W17935  13.907   4.216   0.313 -0.1567  0.0424 -0.0309
 2319W        W17936  16.354   8.477   5.894  0.2900  0.0655 -0.2903
 2320W        W17937   9.514  17.586  12.048 -0.1766  0.1371  0.2251
 2321W        W17938  14.366   4.429  14.616 -0.0954 -0.2268 -0.2115
 2322W        W17939   8.104   9.770   1.296 -0.1617  0.3397  0.1736
 2323W        W17940   0.214   2.979   3.123  0.0536  0.1811  0.2138
 2324W        W17941   5.195   6.034   3.866 -0.0780 -0.1078  0.3614
 2325W        W17942  14.616  11.999   0.221  0.0026  0.0269  0.0856
 2326W        W17943  16.078  11.914   4.154 -0.0436 -0.1549  0.1957
 2327W        W17944  15.999   6.194  15.666  0.1505 -0.2638  0.0319
 2328W        W17945  16.354  14.007   3.116  0.2603 -0.0238 -0.1416
 2329W        W17946  11.562  12.205   0.944 -0.0810  0.1275 -0.0523
 2330W        W17947   1.620  13.947   4.515 -0.0125  0.2115  0.1522
 2331W        W17948   4.814   3.600  12.110 -0.1309  0.3904 -0.1394
 2332W        W17949   1.309  14.782   1.911 -0.0140 -0.4291  0.2879
 2333W        W17950   5.794   6.559   0.772  0.1610 -0.5585 -0.1074
 2334W        W17951  12.429   1.413   1.170 -0.1387 -0.2925 -0.1378
 2335W        W17952  17.529  12.483  11.733  0.0954  0.2070 -0.0041
 2336W        W17953  14.694   4.028  11.682 -0.0854  0.2923 -0.0456
 2337W        W17954   5.233  12.886  15.641 -0.1610 -0.3033  0.1553
 2338W        W17955   7.927   6.755   2.920  0.0535 -0.1019 -0.2183
 2339W        W17956   1.624  12.802   1.583  0.0967  0.1901 -0.0690
 2340W        W17957   1.586   8.199   4.249  0.3300 -0.0912 -0.0340
 2341W        W17958  11.933   6.094  15.454 -0.0614  0.1996 -0.1845
 2342W        W17959   6.858   6.822  14.566 -0.1341  0.0087  0.1420
 2343W        W17960   6.029  16.823   1.049  0.0642  0.2790 -0.2772
 2344W        W17961   3.399   4.393  15.684  0.0919  0.2236 -0.1592
 2345W        W17962  12.143  17.794   5.446 -0.3634 -0.0158 -0.1238
 2346W        W17963  15.458  16.744   4.416 -0.1559 -0.2345 -0.0628
 2347W        W17964   9.060  13.773  15.452  0.1720 -0.4923  0.1388
 2348W        W17965   2.759  13.082  12.420  0.2705  0.0623 -0.1063
 2349W        W17966   2.604  17.522   6.093 -0.0165  0.0097  0.0668
 2350W        W17967   6.711  16.707   3.252  0.0070 -0.1738  0.0567
 2351W        W17968   0.784   9.874   0.372 -0.1420 -0.1149 -0.1615
 2352W        W17969  15.916   2.843  12.566  0.0883 -0.1830  0.0106
 2353W        W17970  13.024  11.128   0.448  0.0675  0.1379  0.1512
 2354W        W17971  12.580   6.325  12.260 -0.0376 -0.0318 -0.1379
 2355W        W17972  14.400   0.683   1.090  0.2446 -0.0804  0.1483
 2356W        W17973  13.655  14.327   4.573 -0.0772  0.2547  0.0619
 2357W        W17974  16.991   1.932  11.599  0.2268  0.1224 -0.4768
 2358W        W17975  16.377   4.050   5.563  0.1761 -0.1675  0.2747
 2359W        W17976  10.942   9.567   1.960  0.1860 -0.0520 -0.0727
 2360W        W17977  11.808   9.399   2.310  0.1916  0.0376  0.0992
 2361W        W17978   7.241  12.804   3.127 -0.0530 -0.0758 -0.2157
 2362W        W17979   3.936   9.191   5.571  0.1077  0.0388 -0.2577
 2363W        W17980   5.376  13.449   1.967 -0.0397  0.1983  0.2059
 2364W        W17981   9.968   7.000  11.969  0.0789 -0.0202 -0.2562
 2365W        W17982  12.748   1.634   4.388  0.0355  0.2297 -0.2216
 2366W        W17983   3.139  17.122  11.660 -0.0334  0.3197  0.2764
 2367W        W17984   8.300   6.411   5.842 -0.2607 -0.0279 -0.3094
 2368W        W17985   2.435   4.082   3.395 -0.0642 -0.3098 -0.1866
 2369W        W17986  17.465   9.080  12.970 -0.1509 -0.1619 -0.1569
 2370W        W17987   4.661   9.136  11.171 -0.1048  0.1775  0.2596
 2371W        W17988   3.295  17.158  12.152 -0.0043  0.1909  0.0672
 2372W        W17989   7.845  10.909   4.072 -0.1455 -0.0343  0.0957
 2373W        W17990  15.315  16.450  12.733 -0.1290 -0.3692  0.1251
 2374W        W17991  10.683  17.173  13.462 -0.0379  0.0033  0.3114
 2375W        W17992   2.644   0.668  12.551 -0.5515 -0.0664  0.0422
 2376W        W17993   9.235   5.006   4.744 -0.1320 -0.1377  0.3125
 2377W        W17994  12.787  14.109   5.712  0.0062 -0.0193  0.0888
 2378W        W17995   0.985   5.545  16.758  0.2972  0.2851  0.0372
 2379W        W17996   3.645  16.100  14.004  0.1586  0.1930 -0.0559
 2380W        W17997  12.646   8.286  15.093 -0.2173 -0.3609 -0.4064
 2381W        W17998   9.114   0.158  11.326 -0.0477  0.1747  0.2793
 2382W        W17999  14.023  12.661   4.675  0.1545 -0.2233 -0.1818
 2383W        W18000   3.520   4.226  14.323 -0.0519 -0.0862  0.0481
 2384W        W18001  14.017  16.659   4.944 -0.1798  0.1589  0.1888
 2385W        W18002  11.702   2.563  12.624 -0.1086  0.0534  0.0473
 2386W        W18003   8.880   2.097   3.986 -0.1704  0.0731 -0.0329
 2387W        W18004   4.109  14.012   1.733  0.1579 -0.0315 -0.1102
 2388W        W18005  13.777  11.646  15.793  0.1821 -0.0478 -0.1155
 2389W        W18006  17.508   9.520   0.184 -0.0323 -0.1990 -0.3483
 2390W        W18007  16.130  12.516   2.448  0.1028  0.1050 -0.2288
 2391W        W18008   3.294  15.934  12.533 -0.2192 -0.1845  0.0404
 2392W        W18009  10.338   2.299  13.423 -0.0198  0.4144  0.2348
 2393W        W18010   5.868   1.065  16.296  0.0815  0.0055  0.0884
 2394W        W18011   4.539  11.904  13.282  0.2331  0.1803 -0.1341
 2395W        W18012   6.350   8.441   4.349 -0.0412  0.1465 -0.0491
 2396W        W18013   2.352  12.007   2.050  0.1683 -0.1645  0.4921
 2397W        W18014   5.535   8.300  15.852  0.1472 -0.0652  0.1099
 2398W        W18015   4.800  15.374   1.882  0.1389 -0.3208 -0.0808
 2399W        W18016  10.840  13.903  12.469  0.3452  0.1857 -0.0228
 2400W        W18017   2.352   7.739  12.450  0.2962 -0.0346 -0.2058
 2401W        W18018   7.398  13.962  13.628 -0.3231  0.0879 -0.2092
 2402W        W18019   3.863  16.813  16.560 -0.2074 -0.2731 -0.0207
 2403W        W18020   5.759   9.964  14.537  0.0233 -0.0502 -0.1358
 2404W        W18021  12.251   5.257   1.081 -0.0692  0.0679  0.0458
 2405W        W18022  15.492  10.721   1.928 -0.1689  0.2896  0.2627
 2406W        W18023   8.381   6.972  15.909 -0.0303 -0.1976  0.0648
 2407W        W18024  11.359  14.678   5.529 -0.0410  0.0855  0.1627
 2408W        W18025   6.610  17.249  12.900  0.0556  0.1150  0.2264
 2409W        W18026   0.067   1.899  13.480 -0.1243 -0.2703  0.2438
 2410W        W18027  16.300  10.788  13.777 -0.1379 -0.0117  0.0080
 2411W        W18028   3.398  13.256   3.756 -0.2643  0.0834 -0.1632
 2412W        W18029   9.015   0.695   2.744 -0.0626  0.1906  0.3149
 2413W        W18030   4.991  14.739  16.728 -0.0223  0.0185 -0.0904
 2414W        W18031   8.083   4.513   1.492 -0.1031  0.0467  0.0407
 2415W        W18032  10.414  12.766  12.040 -0.1848 -0.0877  0.3782
 2416W        W18033  10.243  14.228   3.206  0.0231  0.0996 -0.2624
 2417W        W18034  10.240   9.588  16.228  0.0390  0.0427 -0.1104
 2418W        W18035   6.053   9.145   1.747  0.0924 -0.1762 -0.0929
 2419W        W18036  16.716   5.152  13.534  0.4280  0.2073 -0.0951
 2420W        W18037  11.084   5.358   2.061  0.1894  0.2121  0.0660
 2421W        W18038   2.481   1.102   1.662 -0.0224  0.1128  0.3729
 2422W        W18039  14.787   7.583   5.960 -0.1333 -0.3418  0.0698
 2423W        W18040   7.820  11.920   2.996 -0.2852  0.0616  0.2118
 2424W        W18041  13.400  13.198   0.811  0.1246 -0.2798 -0.2281
 2425W        W18042   2.041  10.259   3.246  0.3852  0.1191  0.1347
 2426W        W18043   3.838  12.892   0.813  0.0039  0.0652 -0.0761
 2427W        W18044  12.828  17.462   5.884 -0.1003  0.1701 -0.0918
 2428W        W18045   4.099  13.124   3.477 -0.1580  0.1029 -0.0056
 2429W        W18046  14.486  16.164   3.734  0.1128  0.0429 -0.0302
 2430W        W18047   2.103   2.574   2.703  0.1789 -0.0846  0.0237
 2431W        W18048   0.313   9.622   0.246  0.0688 -0.0158 -0.1408
 2432W        W18049   7.009  12.229  13.378 -0.0514 -0.4313 -0.0668
 2433W        W18050  12.092  13.849   1.046  0.1244  0.3037  0.2091
 2434W        W18051   3.703  11.418  15.158  0.0465 -0.0950 -0.3000
 2435W        W18052   7.509   7.049   1.798 -0.0547 -0.1807  0.0092
 2436W        W18053   7.305  10.490   5.338  0.2444  0.1624 -0.0647
 2437W        W18054  15.560   4.090  15.706  0.0042  0.1363 -0.2154
 2438W        W18055   7.451  12.885  16.675 -0.1656 -0.3194 -0.0211
 2439W        W18056  13.587   7.600   2.811 -0.2062 -0.0436 -0.0652
 2440W        W18057   8.795  13.870   0.418 -0.2690  0.0071 -0.3871
 2441W        W18058   1.361  14.311  14.706  0.4224  0.0770  0.4212
 2442W        W18059   7.470  17.310   1.908 -0.0947 -0.3852  0.4169
 2443W        W18060   9.053   7.355  15.970  0.4244 -0.1562  0.0918
 2444W        W18061   1.561   2.337   2.772  0.2572  0.0642  0.1402
 2445W        W18062   6.256   2.538  13.955 -0.3413  0.1955  0.2190
 2446W        W18063  17.328   2.135   1.036  0.0180  0.0416 -0.1318
 2447W        W18064  13.297  10.145   4.938 -0.1030  0.1614 -0.2573
 2448W        W18065   1.555  16.400   1.581 -0.1458  0.0486 -0.1406
 2449W        W18066  13.788  14.509  14.758 -0.0191  0.3746  0.2179
 2450W        W18067  12.646  11.978   2.395 -0.2863 -0.0234 -0.0488
 2451W        W18068  12.640  10.504   0.972  0.2745  0.0410 -0.0632
 2452W        W18069  12.722   9.119   5.320  0.0374 -0.0568 -0.1111
 2453W        W18070   6.513  12.078  12.146 -0.0968  0.2038 -0.4793
 2454W        W18071   2.205  12.578   5.649 -0.0560  0.0926  0.1937
 2455W        W18072  13.738  16.073  12.967  0.0950  0.0041 -0.1254
 2456W        W18073  13.678   8.642   3.569 -0.1980  0.2915  0.0128
 2457W        W18074  15.272   5.880   5.140  0.2995  0.0065  0.2443
 2458W        W18075   7.431  11.030  14.753 -0.2193  0.0024  0.1999
 2459W        W18076   5.712  12.240  15.384  0.1458 -0.4619  0.0701
 2460W        W18077  14.432  14.816   6.191  0.0949 -0.1290 -0.0469
 2461W        W18078   4.462  10.477  16.351  0.1558 -0.0177  0.1181
 2462W        W18079   6.955  10.957  14.771  0.0167  0.0198  0.0883
 2463W        W18080   0.324  16.067   6.186 -0.0187 -0.0743 -0.0185
 2464W        W18081  12.512  16.291  16.757 -0.1910  0.0264  0.0184
 2465W        W18082   7.086   1.591  14.262  0.0573  0.3258 -0.0971
 2466W        W18083   1.031  14.520   2.670  0.0971  0.0472  0.1987
 2467W        W18084   8.945  15.911  11.185  0.1109 -0.0992  0.0388
 2468W        W18085  16.130  14.650  16.668  0.1324  0.0212  0.1853
 2469W        W18086   8.575   8.499   3.585  0.1131  0.2073 -0.0419
 2470W        W18087   6.552  11.381   5.050  0.0121 -0.0080 -0.0117
 2471W        W18088  12.663   9.846  15.000  0.0225 -0.2244  0.0421
 2472W        W18089   3.351   0.118  15.626 -0.0540 -0.1411  0.0586
 2473W        W18090  10.583   5.238   1.776  0.0287  0.3274  0.0310
 2474W        W18091   0.436  10.480   2.969 -0.2565  0.1300  0.0625
 2475W        W18092  14.231   0.283   0.896  0.2641 -0.2755 -0.0339
 2476W        W18093   1.147   7.255   1.972 -0.0434  0.0243 -0.1599
 2477W        W18094  12.278   7.375   0.223 -0.2501 -0.0584  0.1036
 2478W        W18095  17.858  14.765  12.125  0.1321 -0.2333  0.0230
 2479W        W18096   5.486   0.907  12.844 -0.1665 -0.0056 -0.1081
 2480W        W18097  15.475  14.590   0.067 -0.0858 -0.2748 -0.1422
 2481W        W18098   8.413   3.959   6.442  0.0895  0.1510 -0.0835
 2482W        W18099   3.475  14.490  12.990 -0.0797  0.1116  0.0224
 2483W        W18100   9.367  12.237   5.774 -0.0008 -0.0646 -0.0870
 2484W        W18101   5.759  13.388   4.142 -0.0723  0.0300  0.1049
 2485W        W18102   1.777  15.916  16.516 -0.1073 -0.2792  0.1061
 2486W        W18103   6.186   1.770  16.117  0.3747  0.2057  0.0497
 2487W        W18104  10.186   5.650  16.749  0.0257  0.3135 -0.1351
 2488W        W18105  17.396  11.233   1.516 -0.0557 -0.0182  0.0947
 2489W        W18106  10.117  16.298   2.903 -0.0158  0.2085  0.1004
 2490W        W18107   4.455   0.120  16.506 -0.1643 -0.2545  0.2656
 2491W        W18108  17.403   0.818   2.323 -0.1146  0.4201 -0.2750
 2492W        W18109  10.863  10.647   0.379 -0.6088  0.1667  0.0617
 2493W        W18110  11.336  12.084  12.072  0.0683 -0.0532 -0.2946
 2494W        W18111   1.865   9.057  15.868  0.1013 -0.2058 -0.0159
 2495W        W18112  12.459   6.688   1.180 -0.0005 -0.1245 -0.2342
 2496W        W18113   6.068   5.657   2.402 -0.2483  0.1345 -0.0072
 2497W        W18114   7.626  10.368   0.027  0.2005 -0.0339  0.0449
 2498W        W18115   3.510   8.421  13.267 -0.0889  0.2440 -0.0910
 2499W        W18116  11.561   0.273  15.756  0.0177  0.1262 -0.1880
 2500W        W18117   0.630  17.606  16.740  0.2060 -0.2592  0.1833
 2501W        W18118  15.158  10.684   0.669 -0.0995  0.1326 -0.0549
 2502W        W18119   5.096   9.902  16.255 -0.2098  0.3525  0.0030
 2503W        W18120   5.303   9.158   2.622 -0.2413  0.1535 -0.0883
 2504W        W18121  16.045   3.005   3.631  0.2046 -0.0638 -0.1656
 2505W        W18122   5.472  17.553  13.398 -0.2336  0.3045  0.0379
 2506W        W18123  10.185   5.578   3.726  0.0063 -0.2043  0.1536
 2507W        W18124   1.931  10.398  15.899 -0.1415 -0.0057 -0.0429
 2508W        W18125  12.652  12.843   1.322 -0.2156  0.0787 -0.0215
 2509W        W18126   6.387   8.920   2.667  0.0620 -0.1640 -0.0387
 2510W        W18127   9.808   7.831  12.994 -0.1786  0.3477  0.2801
 2511W        W18128   7.140   0.733  16.786  0.0218 -0.3701  0.3077
 2512W        W18129   9.490   1.260   0.015 -0.1199 -0.2198 -0.1748
 2513W        W18130   2.078  17.724   4.521  0.1687 -0.0304  0.1708
 2514W        W18131   9.934  14.698   0.525  0.1121  0.1935  0.0157
 2515W        W18132   6.938   5.745   0.140  0.1756 -0.3332 -0.0131
 2516W        W18133   3.079  11.064   6.298 -0.1503 -0.2324  0.3974
 2517W        W18134   5.536   4.882  14.165  0.1798 -0.0284 -0.2415
 2518W        W18135  17.479  10.336   0.041 -0.1948  0.0560 -0.1581
 2519W        W18136   2.799   3.083  15.930  0.2585 -0.0880 -0.1483
 2520W        W18137  11.069  17.859  13.297  0.0313  0.3280 -0.1440
 2521W        W18138   8.227   8.412   4.315 -0.3516  0.1409 -0.0751
 2522W        W18139   7.680   6.436  15.689 -0.2696 -0.0060 -0.1324
 2523W        W18140  11.674  13.715   2.374 -0.0274 -0.0495  0.0446
 2524W        W18141  15.782  12.134   5.854  0.0866  0.1764  0.0458
 2525W        W18142   3.496   3.596   2.505  0.0140  0.0718 -0.0718
 2526W        W18143   9.582  14.234  13.888  0.0721  0.0306  0.0217
 2527W        W18144  13.365  14.532   4.157 -0.0947 -0.1626 -0.1155
 2528W        W18145   3.541  16.239  14.491 -0.0364 -0.1731 -0.1681
 2529W        W18146  14.718  13.903  15.363  0.0116  0.2165 -0.1539
 2530W        W18147   7.666  14.306  16.470 -0.1914  0.1158 -0.1764
 2531W        W18148   6.240   3.146   5.054  0.1428  0.1252  0.2663
 2532W        W18149   1.553   1.605  12.769  0.1522 -0.0893  0.0523
 2533W        W18150  16.718   7.856   5.852  0.0865  0.0239 -0.1236
 2534W        W18151  10.681   4.861  13.498 -0.0618  0.1550  0.0356
 2535W        W18152   7.600   8.004  16.633 -0.0204 -0.0413  0.1103
 2536W        W18153   8.776  11.025  15.674  0.0684 -0.3380  0.0109
 2537W        W18154  17.060  12.872  14.067  0.0842  0.0314  0.0730
 2538W        W18155   8.710   8.558  16.013  0.2538 -0.0320 -0.1718
 2539W        W18156  16.023  11.167  13.632 -0.0983  0.0116 -0.2190
 2540W        W18157   2.543   6.759   4.145  0.1337 -0.1239  0.1571
 2541W        W18158  12.686   3.767   4.895  0.0092 -0.0559  0.2209
 2542W        W18159   2.970  11.600   0.889 -0.1932 -0.3985  0.1236
 2543W        W18160  10.390   3.216  13.898  0.0085 -0.0541  0.2870
 2544W        W18161  14.134  11.524   6.507  0.2126  0.1501 -0.1096
 2545W        W18162   4.455   5.094   0.708  0.0312 -0.2207  0.1089
 2546W        W18163  11.548  15.951   3.786  0.2258 -0.0030  0.3849
 2547W        W18164  14.867   7.612  13.274  0.1814  0.3131 -0.1480
 2548W        W18165   7.952   7.207   3.228 -0.0831 -0.1949  0.0234
 2549W        W18166   6.794   2.079  16.054  0.1411  0.0209 -0.2069
 2550W        W18167   2.746   1.744  16.334 -0.1371 -0.0881  0.0698
 2551W        W18168   8.677   3.116  12.735 -0.1038 -0.0081  0.0056
 2552W        W18169   7.635   3.535  16.143  0.1578 -0.1829  0.0589
 2553W        W18170  14.066   1.331  16.793  0.2002  0.1750 -0.0430
 2554W        W18171   9.273   5.004  14.516  0.0321  0.0139 -0.0532
 2555W        W18172   3.876   3.483  15.575 -0.0555 -0.1663  0.0747
 2556W        W18173   9.016  13.149   2.727  0.0803 -0.2136 -0.3133
 2557W        W18174   8.680   8.389   2.936 -0.0365 -0.1054  0.3145
 2558W        W18175   6.965  11.590   4.387 -0.2196 -0.2372  0.1835
 2559W        W18176  14.460   0.711   5.824  0.1375  0.4255  0.4414
 2560W        W18177  17.718  10.127   2.953 -0.2438 -0.4692  0.0102
 2561W        W18178  14.329  10.284   2.322 -0.3652  0.1545 -0.2391
 2562W        W18179   7.202  10.053   1.565  0.0456 -0.0769 -0.0015
 2563W        W18180  12.313   3.614   1.556  0.2452 -0.0316  0.1899
 2564W        W18181  14.825  12.142   4.222 -0.1106  0.0212 -0.0288
 2565W        W18182   3.435  12.412  16.426 -0.1198 -0.3633 -0.1437
 2566W        W18183   6.782   7.937   4.138  0.3619  0.1649 -0.1342
 2567W        W18184  11.809  14.461   5.753  0.2011  0.1151  0.1914
 2568W        W18185  11.871  14.720  15.912  0.1684  0.0405 -0.5013
 2569W        W18186   6.723  17.212   3.050  0.2955  0.2233  0.0119
 2570W        W18187  11.876  17.822  13.893 -0.1548 -0.0104  0.0541
 2571W        W18188   3.212   7.835  15.989 -0.1242  0.2017  0.0875
 2572W        W18189  15.440  11.713   2.226  0.3693 -0.0016  0.1776
 2573W        W18190  14.327   5.897   2.917  0.0038  0.1240 -0.1079
 2574W        W18191   3.541   7.905  13.176 -0.3455 -0.0895  0.2214
 2575W        W18192   2.860  13.465  14.648 -0.1560  0.2129 -0.1163
 2576W        W18193   4.879  10.384   2.115  0.2315  0.0631 -0.0787
 2577W        W18194   6.439  12.134   4.113 -0.1312  0.2075  0.1019
 2578W        W18195   8.652   4.932   5.766  0.2480 -0.1434  0.0181
 2579W        W18196  12.682   4.516  13.094 -0.1208  0.2571  0.1781
 2580W        W18197   1.131  11.680   3.360 -0.0425  0.0055 -0.1098
 2581W        W18198  13.856  17.629   1.079 -0.0063  0.0306 -0.0863
 2582W        W18199  17.680   1.882  15.079  0.1779  0.3252 -0.0795
 2583W        W18200  13.015  16.141   2.313 -0.0362  0.0221 -0.0480
 2584W        W18201   4.142  14.852   1.742 -0.1437  0.0498 -0.0988
 2585W        W18202  13.952   4.356  16.145 -0.1898  0.0872  0.0436
 2586W        W18203   2.935  14.140   3.751  0.4332 -0.0764  0.2125
 2587W        W18204   1.891  17.732  13.133  0.2311 -0.3947  0.0329
 2588W        W18205   2.988   9.559   4.620  0.0872 -0.1434  0.0339
 2589W        W18206   8.166   8.907  15.179 -0.0509  0.0781  0.0529
 2590W        W18207  15.127  12.475  12.688  0.1629 -0.1476 -0.1008
 2591W        W18208  13.875  12.679  14.998  0.2254 -0.0265  0.1586
 2592W        W18209  14.983  17.562   2.514 -0.0662  0.1841  0.0002
 2593W        W18210  10.035  17.556  12.064  0.0160 -0.0888  0.0534
 2594W        W18211  16.604  15.674  14.317 -0.2146  0.3050 -0.2140
 2595W        W18212   0.845   1.637  13.743 -0.2649 -0.1483  0.3086
 2596W        W18213  11.900   9.776  15.404 -0.2906 -0.2861 -0.1462
 2597W        W18214  14.367   7.004  13.058  0.1518 -0.1240 -0.3494
 2598W        W18215   7.639   4.517  15.807  0.0943  0.2189  0.3686
 2599W        W18216   6.290   3.735   2.708  0.0403  0.0629 -0.0475
 2600W        W18217  12.889   7.586   2.384  0.0907  0.3075 -0.0302
 2601W        W18218  17.466  14.644  14.331  0.1077  0.0982  0.0801
 2602W        W18219   5.483   4.675  14.621 -0.2363 -0.0021  0.1126
 2603W        W18220  13.502   6.628   3.829 -0.1910  0.3865 -0.1028
 2604W        W18221   0.898   4.478  16.391 -0.3731  0.1444 -0.2612
 2605W        W18222  10.680  12.318   1.799 -0.2513 -0.2277  0.0705
 2606W        W18223  13.104   6.447   1.954  0.0143 -0.2376 -0.2242
 2607W        W18224   7.068   4.799   2.730 -0.1192  0.2466 -0.3854
 2608W        W18225   9.708   9.995   3.247 -0.1019 -0.2289 -0.1533
 2609W        W18226   4.197   8.120   4.209  0.0312 -0.0847  0.1135
 2610W        W18227   7.579  16.809   6.182  0.0124  0.1422  0.2448
 2611W        W18228  13.878  12.356  16.536 -0.2702  0.0937 -0.1636
 2612W        W18229   5.218   8.493   0.415 -0.2284 -0.0094 -0.0421
 2613W        W18230  11.460  11.840  13.963  0.1769  0.1107 -0.0419
 2614W        W18231  17.483   9.278   3.975  0.1106 -0.0040  0.1109
 2615W        W18232  16.570  11.068   0.593  0.2237 -0.0271  0.3153
 2616W        W18233   0.978  17.867   0.196 -0.1227 -0.1481 -0.1045
 2617W        W18234  12.453   7.823   4.462 -0.0086  0.3599 -0.0480
 2618W        W18235  11.527  15.660  13.014  0.0492  0.1019  0.0132
 2619W        W18236  13.114  12.282   2.439  0.2645 -0.1236  0.2113
 2620W        W18237   6.638  16.707  14.700 -0.2129 -0.1254 -0.2085
 2621W        W18238   0.108  10.617   1.257  0.0256 -0.3572 -0.2880
 2622W        W18239  10.715   0.602  12.751 -0.0349  0.2011  0.3020
 2623W        W18240  11.072   7.683   1.870  0.0984  0.0047  0.1005
 2624W        W18241   2.853   7.863   2.483 -0.0045  0.0982 -0.2271
 2625W        W18242   7.246  11.424  12.044 -0.0213 -0.4337  0.0148
 2626W        W18243   5.518  10.049   5.480  0.3150 -0.3537 -0.1332
 2627W        W18244  14.720   7.137  11.840 -0.2338 -0.3468  0.0511
 2628W        W18245   9.089  15.955  16.507  0.1351  0.1950  0.0526
 2629W        W18246  17.433   6.568   6.109  0.2983  0.0838  0.0482
 2630W        W18247  16.101  13.170  12.973  0.0050  0.0153 -0.0190
 2631W        W18248   3.355  11.576   2.572 -0.5224 -0.0310 -0.0158
 2632W        W18249   2.377  17.476  11.651  0.0824  0.0420 -0.0861
 2633W        W18250   3.393  10.475   1.363  0.0921 -0.0870 -0.1164
 2634W        W18251   2.120   6.770  13.223 -0.0823 -0.1651 -0.2068
 2635W        W18252   1.120   4.811  13.727  0.2186 -0.0486 -0.3115
 2636W        W18253   1.088   0.331   1.929  0.0896 -0.0857  0.0588
 2637W        W18254   9.179  17.732   1.121  0.0894 -0.0692 -0.0786
 2638W        W18255   1.518  13.788  11.545  0.3533  0.0924  0.0606
 2639W        W18256  11.703  16.388   0.936 -0.1331  0.2104  0.0915
 2640W        W18257  12.145   2.791   4.823 -0.3841  0.0947 -0.0745
 2641W        W18258  11.196   8.563   0.617 -0.3225 -0.0292 -0.2162
 2642W        W18259   9.802  10.411  12.236 -0.1683 -0.0865  0.1847
 2643W        W18260  15.252   1.678  15.480  0.0703  0.1322  0.0572
 2644W        W18261   3.217  15.403   4.236 -0.1969  0.2044  0.1744
 2645W        W18262   8.033  12.957   1.468 -0.1572 -0.0726 -0.0990
 2646W        W18263  12.316   5.592  12.009  0.0965 -0.1618 -0.0968
 2647W        W18264  15.688   7.187  13.550  0.2232  0.1399 -0.0322
 2648W        W18265  15.749   3.341  16.602  0.3453  0.2974 -0.0271
 2649W        W18266  11.311  10.776   0.518 -0.0808  0.0384  0.1750
 2650W        W18267  14.979  11.340   2.838  0.0689  0.1856 -0.1367
 2651W        W18268   8.575  16.166  11.032  0.5341  0.1398 -0.1634
 2652W        W18269  14.372  15.969   4.424  0.2250  0.2200  0.0592
 2653W        W18270   4.084  12.514  16.144 -0.1021  0.1413 -0.0336
 2654W        W18271   7.676   6.299   2.764  0.2225 -0.3125  0.0319
 2655W        W18272   6.692   8.450   6.342 -0.1758  0.1997  0.1033
 2656W        W18273  10.013  14.189   3.686  0.0429  0.1875  0.2169
 2657W        W18274  13.091   7.685   4.523 -0.3495  0.1528 -0.0349
 2658W        W18275   8.417  16.493  16.705  0.0498 -0.0537 -0.3673
 2659W        W18276   8.899   8.336  14.131  0.0998  0.3566  0.0529
 2660W        W18277   3.662  10.959  13.170  0.1108 -0.1361 -0.0697
 2661W        W18278  10.860   5.634   0.164 -0.0217 -0.1136  0.0219
 2662W        W18279   7.812  15.655   2.560 -0.1667  0.3405  0.3081
 2663W        W18280  11.427   8.072  15.978  0.2041  0.0997 -0.1322
 2664W        W18281   5.875  10.453   0.790 -0.2198  0.4717  0.3595
 2665W        W18282   7.811   5.293  11.998 -0.2193 -0.2522  0.2803
 2666W        W18283   2.823  10.165   5.672 -0.2612  0.1602 -0.1270
 2667W        W18284  13.299   9.389  16.333  0.0759  0.1407 -0.0657
 2668W        W18285   2.098   4.309  14.019  0.1040  0.0046  0.0469
 2669W        W18286  10.695  16.017  16.764  0.3001 -0.0983  0.0163
 2670W        W18287   4.199  17.543  13.555  0.2783 -0.0428 -0.1287
 2671W        W18288   9.751   6.205   6.154  0.2556 -0.1695 -0.1400
 2672W        W18289   4.975  14.882  14.069  0.0999 -0.1647 -0.0077
 2673W        W18290   3.819  11.799   2.811 -0.2305  0.0398  0.0269
 2674W        W18291   6.980  16.938  16.578 -0.2587  0.0883 -0.1446
 2675W        W18292  13.708   9.495  12.955  0.1291  0.0632 -0.0908
 2676W        W18293  16.460  17.824  16.438  0.1396  0.2599 -0.0694
 2677W        W18294   3.086   3.453   2.706 -0.1301  0.0340  0.1070
 2678W        W18295  16.874  17.556  16.364 -0.0164  0.2287 -0.0929
 2679W        W18296   0.480   8.914  16.137  0.0705  0.2458  0.1635
 2680W        W18297   4.114  16.461   3.226 -0.0718  0.1971 -0.1392
 2681W        W18298  16.394   5.061   4.458  0.0860 -0.0498 -0.0875
 2682W        W18299   7.013   8.605   1.964  0.0391 -0.3116 -0.1175
 2683W        W18300  15.752  16.555   3.605  0.0310 -0.2246 -0.2317
 2684W        W18301  16.289  13.209  16.748 -0.2251 -0.0282  0.0572
 2685W        W18302   4.408  14.787  13.942 -0.1316  0.0395  0.1314
 2686W        W18303   5.077   8.670   2.709 -0.1218  0.0921 -0.1937
 2687W        W18304  11.179   1.017  11.549 -0.3282  0.1555 -0.2469
 2688W        W18305  16.590   5.730  15.623  0.0227 -0.1941 -0.0699
 2689W        W18306   3.123  14.957  13.745  0.1803 -0.2413  0.1950
 2690W        W18307  17.766   6.133   1.753  0.1274 -0.1389  0.1301
 2691W        W18308  16.420  14.350  13.883 -0.4484 -0.0525  0.0761
 2692W        W18309   6.697   8.847   3.078 -0.0169 -0.0463 -0.1140
 2693W        W18310  13.117   1.941   1.949  0.2379  0.1488 -0.3537
 2694W        W18311   8.523   0.532  11.742 -0.0227 -0.0123 -0.0006
 2695W        W18312   9.825  14.731  15.328 -0.0199  0.1772 -0.1001
 2696W        W18313   5.509  13.788  11.179  0.1799 -0.0343  0.1362
 2697W        W18314  12.197   7.739  16.102 -0.1556  0.1505 -0.1982
 2698W        W18315   6.823  15.795   3.492  0.1707 -0.0469 -0.2210
 2699W        W18316  12.269   5.874  11.596  0.0381 -0.0853  0.0691
 2700W        W18317  14.288  11.420  10.695  0.2303 -0.3185 -0.0294
 2701W        W18318   5.623  11.536   0.502  0.0085  0.0904 -0.1167
 2702W        W18319  15.345   6.324   0.118 -0.1374  0.1900  0.2426
 2703W        W18320   5.245   3.845  16.347  0.1636 -0.0165 -0.0116
 2704W        W18321  10.752  17.196   1.300  0.0570 -0.0416 -0.0269
 2705W        W18322  15.764   3.624  15.681  0.0149 -0.1083  0.0398
 2706W        W18323   4.549   9.888   0.709  0.1042  0.2135 -0.1587
 2707W        W18324  10.540   7.097   4.707 -0.0797 -0.0799 -0.0685
 2708W        W18325  17.380   8.382  11.728 -0.1055  0.0129 -0.1072
 2709W        W18326  11.370  14.966   4.137  0.4108  0.2741  0.1659
 2710W        W18327  13.436  13.562   4.368  0.0053  0.2017  0.2687
 2711W        W18328   6.100  14.913   2.870 -0.2761 -0.0284  0.1775
 2712W        W18329  10.065   6.365  12.549 -0.3039  0.0097 -0.0201
 2713W        W18330  16.472   4.787  16.651  0.4290 -0.1450  0.0146
 2714W        W18331  14.525   2.946   3.517  0.0014  0.1172  0.3727
 2715W        W18332   9.474  14.164  16.150 -0.3112 -0.0906  0.1426
 2716W        W18333   5.980   7.053  11.967  0.1404 -0.0008  0.0167
 2717W        W18334   8.287  10.465  13.301  0.0967  0.3091  0.0519
 2718W        W18335   5.550   5.112   1.391 -0.2010 -0.0180  0.1534
 2719W        W18336   5.276  16.299  14.731 -0.2248 -0.3344 -0.2027
 2720W        W18337  10.200   9.509  14.535  0.1366  0.1213  0.0155
 2721W        W18338  17.456   0.904   1.253  0.0103  0.2410 -0.1660
 2722W        W18339  11.049   1.626   0.020 -0.0516  0.2303  0.3641
 2723W        W18340  15.932   8.940   2.178  0.2173  0.0802  0.0748
 2724W        W18341  10.635   6.043   5.267 -0.1036 -0.1184 -0.1392
 2725W        W18342   3.698  17.155   2.726 -0.2020  0.1378 -0.1515
 2726W        W18343   9.701   9.378   0.763  0.0958 -0.0670 -0.0380
 2727W        W18344  15.657  10.131   1.176  0.1582  0.2088 -0.1543
 2728W        W18345   8.922   3.573   1.013  0.0820 -0.0755 -0.1074
 2729W        W18346   4.375  15.345   5.066 -0.2401 -0.0220  0.1438
 2730W        W18347  17.097  13.725  11.887 -0.0394  0.0910 -0.1992
 2731W        W18348   1.006  12.166   0.002  0.3336  0.1832 -0.1237
 2732W        W18349  16.643  15.489   5.462  0.1656  0.1973 -0.1708
 2733W        W18350  15.908   3.565   3.657 -0.0157  0.1152  0.0526
 2734W        W18351   8.750   6.978  13.409  0.0640  0.0828  0.1634
 2735W        W18352   1.328   6.935  14.024  0.1699 -0.2252 -0.1963
 2736W        W18353   0.995   7.794  16.665  0.1852  0.1875  0.0769
 2737W        W18354  16.497   9.734   3.059  0.0924  0.1416 -0.0970
 2738W        W18355   0.942  13.183   4.322  0.0999  0.0225  0.0795
 2739W        W18356  15.539  15.110   3.740  0.0952  0.1194 -0.1268
 2740W        W18357   4.564  12.493   0.006  0.0439 -0.0902  0.2754
 2741W        W18358   5.504   2.054   5.678  0.1698 -0.2210 -0.4291
 2742W        W18359  10.100   4.569  15.503 -0.0106  0.2111 -0.0856
 2743W        W18360   8.511   4.605  14.862  0.2258 -0.0353  0.2010
 2744W        W18361  15.857  11.007   2.887  0.0351  0.2215  0.1860
 2745W        W18362  16.496   2.391  13.363 -0.3475  0.3553 -0.3093
 2746W        W18363   4.083  12.651   1.212 -0.2379 -0.3762  0.0694
 2747W        W18364   5.747  10.870  15.496  0.2464  0.0955  0.0318
 2748W        W18365  14.680  14.240  15.021  0.1642  0.0159  0.0605
 2749W        W18366   7.437   4.994   1.203 -0.0129 -0.0645  0.3255
 2750W        W18367   3.310   3.608   4.726 -0.0569  0.1907 -0.0516
 2751W        W18368   9.888  12.117   0.412  0.1979 -0.2307  0.2403
 2752W        W18369  14.913   9.770   5.866 -0.1788  0.0945 -0.2331
 2753W        W18370   7.288   3.368   0.361  0.1397 -0.2413  0.0053
 2754W        W18371   4.456   8.679   2.192  0.0429  0.0530  0.2968
 2755W        W18372  12.102   3.636  14.023 -0.0071  0.0865 -0.0019
 2756W        W18373   5.196   2.927  15.925 -0.1652  0.2679  0.0636
 2757W        W18374  15.892  15.601  16.177 -0.0920 -0.1306  0.0949
 2758W        W18375   5.152  13.356  15.409  0.0776 -0.0440  0.1133
 2759W        W18376   4.286  14.152  11.601 -0.0051  0.1341 -0.2621
 2760W        W18377   5.864   9.716   4.493 -0.1154  0.0590  0.0682
 2761W        W18378  13.217  13.653  11.635  0.4081  0.0718 -0.6104
 2762W        W18379   3.020   9.494   0.905  0.1321  0.0734  0.1041
 2763W        W18380   0.209   3.116   0.211  0.3680 -0.0004 -0.3461
 2764W        W18381  11.568   8.820   3.921  0.0218  0.2010  0.0578
 2765W        W18382   6.413  15.602  11.354 -0.0413  0.4755  0.2071
 2766W        W18383   5.212   6.946   1.657 -0.1195  0.1072 -0.1482
 2767W        W18384   5.725   3.707  15.261  0.0358  0.0134  0.3594
 2768W        W18385   3.309   0.941  12.190  0.0488 -0.1360 -0.1528
 2769W        W18386   8.441  10.379   1.733  0.0168  0.0464  0.1182
 2770W        W18387   6.309  17.498   4.823 -0.2353  0.2493 -0.1119
 2771W        W18388   0.669   3.724   1.969 -0.0783  0.0652  0.1384
 2772W        W18389  10.347   2.626  14.882 -0.0902  0.2605 -0.1813
 2773W        W18390   1.303   4.713   1.270 -0.0734  0.1875 -0.0963
 2774W        W18391   0.276  17.852  11.705  0.0589 -0.1072  0.2328
 2775W        W18392   5.448  11.973  16.094 -0.2079  0.1510  0.0329
 2776W        W18393   9.651   2.700  14.258  0.1539 -0.0008 -0.1024
 2777W        W18394   0.235  16.607   5.394  0.1001  0.0548  0.2115
 2778W        W18395   9.859  15.950   0.521  0.0204 -0.0448  0.0007
 2779W        W18396   9.794   4.506  16.030 -0.0075  0.0365  0.2146
 2780W        W18397  15.274   2.639  13.660  0.0072  0.1133  0.2555
 2781W        W18398  14.463   6.303  12.574 -0.0430  0.2062  0.0401
 2782W        W18399  12.892   0.561   1.391  0.0495 -0.3561 -0.2841
 2783W        W18400   1.823  17.162  15.579 -0.1651  0.1705 -0.0494
 2784W        W18401   7.511  14.429  14.402  0.4805  0.2859  0.0501
 2785W        W18402  10.867  10.130   3.188 -0.0625 -0.1812 -0.2497
 2786W        W18403  17.849   0.173   1.833 -0.2805 -0.0978  0.2639
 2787W        W18404   5.059  16.421  13.753  0.0899 -0.0661  0.0241
 2788W        W18405   3.286  13.967   1.131 -0.2123  0.0963  0.2880
 2789W        W18406  13.334   0.552  15.744 -0.2213  0.1454  0.0203
 2790W        W18407   8.694  16.881   4.548  0.0113  0.2526 -0.3372
 2791W        W18408  11.189  16.247  14.585 -0.1614  0.1907 -0.0268
 2792W        W18409   3.444  12.359   3.483  0.1859  0.1901  0.1056
 2793W        W18410   9.792   7.040   0.542  0.4746  0.0807 -0.1324
 2794W        W18411  16.321  17.399  13.928 -0.1224 -0.1830 -0.0143
 2795W        W18412   7.971  15.559  16.025  0.2373 -0.1551  0.0113
 2796W        W18413  11.636  10.311   6.043 -0.0476  0.1294 -0.0761
 2797W        W18414  13.041  13.837   3.243  0.0920  0.2739  0.0145
 2798W        W18415   1.591  15.514  13.593 -0.2213  0.0879  0.1145
 2799W        W18416   3.865   7.122   4.100  0.2418 -0.2042  0.1332
 2800W        W18417  11.168   1.395  12.854 -0.0077 -0.0056 -0.0142
 2801W        W18418  14.828   5.331  11.784  0.1896  0.0634  0.0303
 2802W        W18419   7.958  13.944   5.262  0.0445 -0.1079 -0.1537
 2803W        W18420   7.311   9.170   2.857  0.2321  0.1266 -0.1463
 2804W        W18421   5.037  14.325   0.281 -0.0953  0.2923  0.1129
 2805W        W18422  13.183  15.245  14.674  0.0119  0.0603  0.2264
 2806W        W18423  11.872  10.450  12.046 -0.0632  0.0338 -0.0736
 2807W        W18424   8.693  11.638  14.455  0.0899 -0.0455  0.1031
 2808W        W18425   4.262   6.442  15.761 -0.0954 -0.0010  0.0410
 2809W        W18426  15.888  11.455   2.602  0.2015  0.0176  0.0007
 2810W        W18427  17.327   8.929   1.771  0.2279 -0.2334 -0.4006
 2811W        W18428  12.035   5.242  12.645 -0.1199  0.0282  0.0421
 2812W        W18429   7.920  16.638   0.872 -0.0377  0.0909 -0.2800
 2813W        W18430  13.517  12.797   5.013  0.1303 -0.0283  0.2286
 2814W        W18431   7.432   2.897   2.825 -0.0390  0.0216  0.2261
 2815W        W18432   8.726  15.396  13.404 -0.0185 -0.2459 -0.2439
 2816W        W18433  16.600  17.055  16.234  0.1830  0.1805  0.0740
 2817W        W18434   4.434  11.607  11.536  0.1287  0.1400  0.0621
 2818W        W18435   5.376   1.212   3.162  0.0365 -0.1406 -0.1630
 2819W        W18436  16.576   7.563  12.922 -0.1330 -0.0855  0.4571
 2820W        W18437   0.780  13.923  11.962  0.3000  0.0771  0.2480
 2821W        W18438  11.780   9.734   3.447  0.0427 -0.1429 -0.0791
 2822W        W18439   2.638  11.807   4.261  0.1943  0.0848 -0.0498
 2823W        W18440   4.708   1.251  15.055  0.0978 -0.0426 -0.0872
 2824W        W18441  11.526  17.843   1.959 -0.0341  0.1663 -0.2287
 2825W        W18442   6.244  12.017  15.664  0.1950  0.2222  0.0493
 2826W        W18443   5.721   5.619   1.375  0.0175  0.0824 -0.0810
 2827W        W18444  17.576  11.962   1.742 -0.1720 -0.1273  0.0975
 2828W        W18445  17.370  11.560  14.036 -0.2305 -0.4249  0.0168
 2829W        W18446   9.245   0.037  14.459 -0.0222  0.0441 -0.1365
 2830W        W18447  15.204   5.840  13.002  0.0022 -0.0617 -0.1911
 2831W        W18448  17.353  13.127  11.608 -0.0592  0.0206 -0.0475
 2832W        W18449  11.453  14.384  16.001 -0.3563  0.1241  0.2266
 2833W        W18450   2.873   5.211  15.538 -0.0621 -0.1444 -0.0743
 2834W        W18451   7.702  14.303   1.194  0.4079  0.0225 -0.0949
 2835W        W18452  12.890   5.935  15.924  0.0815 -0.1045  0.0515
 2836W        W18453  13.547   4.738  13.573 -0.0357  0.2297  0.2133
 2837W        W18454  16.815  17.276   0.210  0.1707  0.0366 -0.0256
 2838W        W18455   7.586   5.382  13.348 -0.4336 -0.1310  0.1002
 2839W        W18456   5.135  11.522  13.940  0.0749  0.0184 -0.1492
 2840W        W18457  15.721  10.038   3.916 -0.4142  0.1776  0.1239
 2841W        W18458  16.407   6.282  14.224 -0.0408 -0.0644 -0.0404
 2842W        W18459  12.486  13.038  15.738 -0.1432  0.4985  0.1182
 2843W        W18460   6.087  11.458   0.941  0.0498 -0.1041 -0.1663
 2844W        W18461  16.227   6.759  12.515 -0.1810  0.3090  0.1764
 2845W        W18462   0.597   7.014   0.940  0.0601 -0.1222  0.0608
 2846W        W18463   8.782  11.853   3.040  0.0677  0.1564  0.1910
 2847W        W18464  13.227  12.747   1.308  0.0563  0.1747 -0.0641
 2848W        W18465   8.947   2.662  15.789 -0.1509  0.0546  0.0651
 2849W        W18466  17.156  10.714  14.394  0.3558 -0.4199 -0.0295
 2850W        W18467   7.210  10.704   0.890 -0.1347  0.1729  0.0560
 2851W        W18468  12.238   7.820   1.762  0.1453 -0.2580 -0.0990
 2852W        W18469   4.889  14.877   2.154 -0.1587 -0.0500  0.0343
 2853W        W18470   2.526   1.622  14.499 -0.0150 -0.3849 -0.1110
 2854W        W18471   2.661  16.788  15.725  0.1173 -0.2385  0.1297
 2855W        W18472   2.243  12.870   3.250  0.3231 -0.0393 -0.3418
 2856W        W18473  10.608  15.923   2.968  0.0233  0.0924  0.1017
 2857W        W18474  14.288  16.864   5.566  0.2616  0.0058 -0.1375
 2858W        W18475   5.050  12.683  16.101 -0.2171 -0.1436  0.2872
 2859W        W18476   8.828   0.466   3.139 -0.1207  0.1635  0.2366
 2860W        W18477   1.401   6.958   6.765 -0.2595 -0.1771 -0.1958
 2861W        W18478  14.428  12.431  13.484  0.1163  0.2574 -0.2528
 2862W        W18479   2.896   8.271  15.811 -0.1679  0.0461 -0.2909
 2863W        W18480   7.240   6.710   0.191  0.2342 -0.0692 -0.1905
 2864W        W18481   9.791  10.923   4.232  0.0003 -0.1808 -0.3097
 2865W        W18482  16.076   1.360   2.732 -0.3069 -0.2015 -0.3343
 2866W        W18483  10.081  13.928  15.024 -0.0349  0.2692 -0.2126
 2867W        W18484   4.561   5.338  12.389  0.0198  0.1249 -0.0478
 2868W        W18485  14.235  16.575  16.768 -0.2155 -0.1948 -0.1102
 2869W        W18486   0.499  10.881  16.012  0.2909  0.0831  0.0376
 2870W        W18487   9.545   2.177  13.839  0.1405  0.0305  0.1952
 2871W        W18488   7.190  14.164  11.434 -0.0273 -0.1396 -0.1891
 2872W        W18489   5.902   3.525  16.819  0.1317  0.1819  0.0881
 2873W        W18490   5.689  15.039   4.786  0.1389 -0.0489  0.0338
 2874W        W18491  12.193   9.361  13.913  0.0422 -0.3655 -0.1394
 2875W        W18492   3.811   4.974   1.376 -0.1484  0.0144 -0.2790
 2876W        W18493  13.656  13.500  14.669  0.2818 -0.1303 -0.2803
 2877W        W18494   6.436  16.887  13.536  0.0705 -0.0636  0.0121
 2878W        W18495   1.233  13.896   0.488 -0.1655 -0.1922  0.0648
 2879W        W18496   0.226  17.418  15.744  0.0613  0.1024  0.0075
 2880W        W18497  15.363  17.055  16.235 -0.0836 -0.0452 -0.2840
 2881W        W18498   4.385   3.015   2.534 -0.0010 -0.2166  0.0386
 2882W        W18499  11.919   7.940   2.275 -0.0513  0.0676  0.0107
 2883W        W18500  10.271   8.045   3.704  0.1837 -0.0145 -0.0748
 2884W        W18501  17.817  10.745  16.672  0.1830  0.2355 -0.1128
 2885W        W18502   0.722   4.537   4.679 -0.0264 -0.0667 -0.1545
 2886W        W18503   7.342   3.716   1.416 -0.2140  0.0361 -0.3480
 2887W        W18504   9.073   6.192  14.030  0.1159  0.2266 -0.0975
 2888W        W18505  17.763  10.690   5.120  0.1034  0.1431  0.3237
 2889W        W18506  12.171   0.343  13.818 -0.1695 -0.3337 -0.1285
 2890W        W18507  15.301   2.125   2.605  0.0661 -0.2257 -0.1634
 2891W        W18508  13.155   4.455   1.076 -0.2184  0.3019 -0.2407
 2892W        W18509   3.037  11.574  16.198  0.1625  0.2432  0.3249
 2893W        W18510  12.850   4.553  15.189  0.0936  0.0620  0.0492
 2894W        W18511  10.061   5.906  16.364  0.2616 -0.0770 -0.1973
 2895W        W18512  11.585   2.773   0.761  0.0192 -0.1403  0.2881
 2896W        W18513  13.045  14.576   1.979 -0.2154  0.0225 -0.0735
 2897W        W18514   9.313  17.195   5.299  0.0470  0.0837 -0.3513
 2898W        W18515   5.989   7.856   0.424  0.0073  0.1167 -0.1626
 2899W        W18516  15.366   1.432   0.297 -0.3363  0.2190  0.0380
 2900W        W18517  15.344  10.829  13.982 -0.0512  0.2617  0.3920
 2901W        W18518   3.627  10.656  13.562 -0.0897  0.2674 -0.2256
 2902W        W18519   4.435   3.434   4.744 -0.1901  0.2929 -0.0441
 2903W        W18520  16.530  10.814  16.315  0.1137  0.0540  0.0237
 2904W        W18521  17.723   5.599   4.329  0.2161 -0.0630  0.1619
 2905W        W18522   4.636   2.124   2.364 -0.0148 -0.1344  0.0639
 2906W        W18523   2.169   8.266   3.470  0.3398 -0.4471 -0.0611
 2907W        W18524  13.124   8.802   5.518  0.2348  0.3616  0.0434
 2908W        W18525   5.469  15.689  16.676  0.1050  0.0161  0.1197
 2909W        W18526   8.018   8.468  14.970  0.0238 -0.0486 -0.1131
 2910W        W18527   5.894   6.193  13.139  0.3230  0.0505  0.3352
 2911W        W18528   2.015  16.184   1.715 -0.2490 -0.0787  0.1277
 2912W        W18529   9.068  10.122   3.482 -0.2247  0.0636  0.1975
 2913W        W18530   2.484   7.586   1.555  0.0232  0.3843  0.0804
 2914W        W18531  11.482  13.676  15.192 -0.1255  0.5368  0.1177
 2915W        W18532  16.711   0.934  12.845  0.0352  0.1948  0.0679
 2916W        W18533  17.619  11.654   3.341 -0.0004  0.3603 -0.0768
 2917W        W18534  16.914  17.751   0.493 -0.0023  0.1960  0.0100
 2918W        W18535  15.070   2.521   4.991 -0.2104  0.0915 -0.2184
 2919W        W18536  17.794   4.373  12.970 -0.0454 -0.2839 -0.0672
 2920W        W18537  14.106   0.854   1.869 -0.1635 -0.3162 -0.3507
 2921W        W18538  17.709  13.759   5.527 -0.0112 -0.1139  0.1055
 2922W        W18539  14.435  15.112  10.386  0.1656 -0.1615  0.1793
 2923W        W18540  16.896  14.191  14.513  0.0993 -0.3666 -0.1511
 2924W        W18541   6.133  17.116   5.108  0.1150  0.1900  0.4000
 2925W        W18542  17.436   1.728  16.783 -0.0354  0.1727 -0.1638
 2926W        W18543  17.448   3.354   2.782  0.2405 -0.0746 -0.1446
 2927W        W18544   9.363  14.060   4.349  0.1394  0.0286  0.0092
 2928W        W18545   5.571   9.229   1.417 -0.2163  0.3298  0.0834
 2929W        W18546   8.073  12.251   3.503  0.1199  0.2285 -0.0395
 2930W        W18547  15.278  12.269   4.987 -0.1616 -0.0084 -0.2520
 2931W        W18548   5.856   4.893  16.589  0.3081  0.0723 -0.4057
 2932W        W18549  13.148   7.246   0.685  0.2710  0.1485 -0.3460
 2933W        W18550  16.542  13.296   3.577  0.2286 -0.3686  0.3257
 2934W        W18551  12.338   1.095  14.785 -0.3107  0.1541 -0.4429
 2935W        W18552   0.297  14.655   3.135 -0.2747  0.4578 -0.4382
 2936W        W18553   7.043  11.377  14.494 -0.0680 -0.1138  0.1578
 2937W        W18554  10.450   2.990   1.335 -0.1055 -0.0016  0.0499
 2938W        W18555  10.730   7.251  16.257 -0.0378 -0.0006 -0.0134
 2939W        W18556   6.891   1.466   3.220 -0.0941 -0.2051 -0.1152
 2940W        W18557  10.249  16.575   1.155  0.1207  0.1461  0.2132
 2941W        W18558   9.598   3.994  14.086 -0.2365  0.3231 -0.2506
 2942W        W18559  10.051   7.586   1.078 -0.2027 -0.0574 -0.2569
 2943W        W18560  10.315   2.742  16.294  0.0584  0.2708  0.0331
 2944W        W18561  14.485  13.857  11.610 -0.0138  0.0734 -0.0405
 2945W        W18562  15.288   4.322  15.351 -0.0418  0.1990 -0.0373
 2946W        W18563   8.464  11.123  12.453 -0.0506  0.3628  0.1481
 2947W        W18564   8.227   0.524   0.484 -0.0954 -0.0952 -0.0392
 2948W        W18565  10.996  11.062   0.112  0.1318  0.0377  0.2015
 2949W        W18566  16.350   1.991  16.000  0.0866 -0.1883  0.0352
 2950W        W18567   9.723  10.529   3.264 -0.1443  0.0599  0.1187
 2951W        W18568   5.998  10.020   2.769 -0.0532  0.3752 -0.0816
 2952W        W18569  15.155  13.755  11.921  0.0872  0.0620  0.2771
 2953W        W18570   6.167  10.160  15.635 -0.1483 -0.0965 -0.0058
 2954W        W18571   2.279  12.486   0.633  0.2901  0.3003  0.2063
 2955W        W18572  13.169   6.865  15.014 -0.2513  0.1631  0.1757
 2956W        W18573  12.765   1.718  15.984 -0.0668  0.0477 -0.1250
 2957W        W18574   6.678  14.865  15.519  0.1615  0.1857 -0.0247
 2958W        W18575   4.746   1.300   2.019  0.1672 -0.2657 -0.1250
 2959W        W18576   9.011   5.360   0.862 -0.2524 -0.0811  0.1166
 2960W        W18577   0.762   5.301   2.889  0.1390 -0.0170  0.1088
 2961W        W18578   2.642   3.223   2.399  0.0410  0.0168 -0.2171
 2962W        W18579   4.217   4.394  16.355  0.0433 -0.1130 -0.0719
 2963W        W18580  16.823   5.164   4.225 -0.0411 -0.2060  0.0213
 2964W        W18581   4.563  14.577  14.351  0.1859 -0.2489  0.1349
 2965W        W18582   9.813  13.631   6.135  0.1309 -0.0570  0.1098
 2966W        W18583   0.561  13.812  14.143 -0.0414  0.0499 -0.0738
 2967W        W18584   5.254   3.116   0.504  0.3436 -0.0440  0.0535
 2968W        W18585   4.212   2.059   5.031  0.0957 -0.1117  0.2407
 2969W        W18586   8.061   0.002  14.801  0.0799  0.1055 -0.1111
 2970W        W18587  15.849   0.921   3.663  0.0250 -0.2723 -0.1302
 2971W        W18588  12.357   5.190   4.539  0.1717  0.1545  0.2715
 2972W        W18589   0.745  12.161  13.396  0.0341  0.0627  0.2178
 2973W        W18590   3.711  13.297   0.567 -0.0240  0.1187 -0.0648
 2974W        W18591  12.892  16.066  15.011 -0.0488  0.2395 -0.0310
 2975W        W18592   2.872  16.722   1.745  0.0677 -0.2542 -0.1712
 2976W        W18593   0.001  13.213   6.055 -0.1821 -0.5044  0.1407
 2977W        W18594  16.317  15.310   1.629 -0.0297 -0.0905 -0.1125
 2978W        W18595  10.011   2.570   5.428  0.0326  0.0497  0.0522
 2979W        W18596   5.052   8.608  12.742  0.1064 -0.2709  0.1400
 2980W        W18597   1.851  11.334  12.660 -0.2521 -0.1571 -0.1067
 2981W        W18598  12.441   4.869  12.745  0.0678 -0.1404  0.2221
 2982W        W18599  14.092   1.133   1.448  0.2027  0.1527  0.0402
 2983W        W18600   5.097   9.475  12.610  0.1253 -0.3182 -0.3338
 2984W        W18601   0.175  16.101  16.087 -0.1449  0.0666 -0.4672
 2985W        W18602  16.937   5.220   2.043 -0.2890  0.1438 -0.0757
 2986W        W18603   6.656  12.859  15.609  0.2006  0.1525  0.0824
 2987W        W18604  13.512   9.241   3.045  0.1459 -0.0843 -0.2670
 2988W        W18605   6.979   4.933   3.422 -0.3593 -0.0702  0.0300
 2989W        W18606   6.669  16.479   0.911  0.0714  0.2572 -0.3341
 2990W        W18607  14.678   6.348   3.118  0.1741 -0.2026 -0.1698
 2991W        W18608  12.511   8.003   3.478  0.2211 -0.1400  0.4693
 2992W        W18609  14.591  13.770   4.483 -0.0776  0.2064  0.3973
 2993W        W18610  12.399   2.409   5.647 -0.0560 -0.1102 -0.0860
 2994W        W18611   5.066   2.864   5.358  0.2203  0.0698 -0.2532
 2995W        W18612   4.292  10.106   5.865 -0.2710  0.0813  0.0584
 2996W        W18613  13.203   0.088   3.608  0.1991 -0.0252 -0.1293
 2997W        W18614  12.514  16.028  11.541  0.1938 -0.1949 -0.4784
 2998W        W18615  16.212   2.720  13.934 -0.1226  0.0842 -0.0802
 2999W        W18616  13.517   4.524  12.780 -0.0024  0.1222  0.2327
 3000W        W18617   5.340   3.853  12.399  0.1200  0.2167 -0.5291
 3001W        W18618   7.023   0.808   4.898  0.4207 -0.1200  0.1577
 3002W        W18619  10.213  12.615  14.825 -0.0263  0.1867  0.1038
 3003W        W18620   6.696   7.588  12.998 -0.2939 -0.0405 -0.1559
 3004W        W18621   3.097   5.706   3.137 -0.2628 -0.2239 -0.1121
 3005W        W18622  15.790   4.355  16.175 -0.0822 -0.4017 -0.0653
 3006W        W18623  15.463  15.127  13.268  0.0066  0.0632 -0.3556
 3007W        W18624   2.434   1.455  16.687  0.0384 -0.2442 -0.0086
 3008W        W18625  11.792  11.249  15.935 -0.0609 -0.0633  0.2804
 3009W        W18626   8.358   0.496  16.355  0.0011  0.3202 -0.1319
 3010W        W18627   1.478   9.194  15.549  0.1954 -0.1350  0.4367
 3011W        W18628  16.924  16.792  15.416  0.2433 -0.0916  0.0753
 3012W        W18629  10.127  13.299  16.557 -0.0404  0.4632 -0.2423
 3013W        W18630  13.357  15.319  12.978 -0.0996 -0.0004  0.1233
 3014W        W18631   6.870  10.478   3.667  0.0104 -0.1601 -0.1029
 3015W        W18632  16.935   1.378  11.375 -0.3988 -0.0152 -0.1611
 3016W        W18633  11.975  15.976  11.691 -0.2036  0.1603 -0.1301
 3017W        W18634   8.835  16.410   0.346 -0.0588 -0.0374  0.3807
 3018W        W18635   2.587   3.438   6.010 -0.0410 -0.0714 -0.1673
 3019W        W18636  10.841   4.221  15.604  0.4585 -0.1140  0.0147
 3020W        W18637  10.009   4.279   3.512 -0.1060  0.0513  0.1805
 3021W        W18638  15.613  11.528  13.482 -0.0166  0.0981 -0.1239
 3022W        W18639   0.863   0.788  13.658  0.0096 -0.0596 -0.0605
 3023W        W18640  14.679  16.435  11.918 -0.0814 -0.0979 -0.4003
 3024W        W18641  10.488   3.775  16.135  0.2456 -0.0926 -0.3331
 3025W        W18642  11.688   2.216  12.215  0.1177 -0.1549 -0.2175
 3026W        W18643   1.351  12.926  15.452  0.1641 -0.2220  0.1166
 3027W        W18644   0.911  11.168  15.919  0.2938 -0.2916 -0.0804
 3028W        W18645   0.393  10.540  15.179  0.1931 -0.1423  0.0964
 3029W        W18646   7.793   3.901   1.086 -0.3808  0.0221 -0.0078
 3030W        W18647  17.385  13.217  12.430  0.0484 -0.0008 -0.1164
 3031W        W18648   3.870  11.385   1.231  0.1556  0.2053  0.0009
 3032W        W18649  16.657  16.218   2.341 -0.2030 -0.2203 -0.1542
 3033W        W18650  14.625  15.236   2.753 -0.0932 -0.1123  0.0115
 3034W        W18651   2.202   4.082   2.507  0.2439 -0.0433  0.0948
 3035W        W18652   2.204  10.924  16.082  0.4367  0.1628 -0.0600
 3036W        W18653  11.899  12.827  10.050 -0.3642  0.1792 -0.0232
 3037W        W18654   5.210  11.170  14.786 -0.2778 -0.0691 -0.0232
 3038W        W18655   7.992   6.136  11.610  0.0173 -0.0660 -0.0330
 3039W        W18656   6.573   3.696  15.150  0.0041 -0.1041  0.1735
 3040W        W18657   2.990   8.728  14.531 -0.0165  0.0820  0.1284
 3041W        W18658  14.239   1.772  16.678  0.3315 -0.1079  0.0638
 3042W        W18659   3.526   8.857   2.571 -0.0056  0.1712 -0.3254
 3043W        W18660  14.315  10.689   1.303  0.0546 -0.1285  0.0766
 3044W        W18661  16.319  17.306  12.830 -0.2629  0.2895 -0.0599
 3045W        W18662  12.379   3.070  14.974 -0.0039 -0.2615  0.0280
 3046W        W18663  13.821  14.117  15.222 -0.3160 -0.0374 -0.2759
 3047W        W18664  12.792  15.557  11.696  0.0712  0.3798  0.0148
 3048W        W18665  14.697   8.175  16.689 -0.0599  0.1335  0.3725
 3049W        W18666   7.831   0.656  12.672  0.3244 -0.0931  0.0587
 3050W        W18667  14.424   9.147  15.816  0.0122  0.0919 -0.2166
 3051W        W18668   9.091  16.446  11.523  0.0030  0.3162  0.1528
 3052W        W18669   9.722  12.257  13.091 -0.1694 -0.0223  0.1971
 3053W        W18670  10.822  12.009   2.314  0.2396 -0.2062 -0.0904
 3054W        W18671   7.551   8.041  13.182 -0.0677 -0.1765 -0.2376
 3055W        W18672   0.927   3.165  15.202 -0.0857  0.2507  0.2453
 3056W        W18673   9.769   6.544   2.343  0.1757  0.1709  0.2062
 3057W        W18674   5.888  10.333   0.309  0.2630 -0.0416 -0.1873
 3058W        W18675  11.781  10.505   2.415 -0.1326 -0.2020  0.1838
 3059W        W18676   0.157   7.014   1.274  0.0345 -0.0518  0.2097
 3060W        W18677   3.475  11.947   0.776 -0.1086  0.1523 -0.0399
 3061W        W18678  14.964  11.726   4.530  0.3412  0.0003 -0.0547
 3062W        W18679   1.048  13.062  14.309 -0.2251  0.2886 -0.2098
 3063W        W18680   7.746   7.267   3.630  0.2237 -0.2084  0.6782
 3064W        W18681  14.666   9.826   5.174 -0.1678  0.0400 -0.2019
 3065W        W18682  14.940   1.373  15.747  0.0666 -0.1955 -0.3635
 3066W        W18683   4.943  13.735   0.283  0.1216 -0.1754 -0.1185
 3067W        W18684  17.643  10.012  16.072  0.0244 -0.0665  0.0011
 3068W        W18685   0.455   9.983   4.647 -0.0191  0.0563 -0.0578
 3069W        W18686  15.693   8.360  15.787 -0.0965  0.1862 -0.0209
 3070W        W18687   2.209  11.951   4.003 -0.0511  0.0957  0.0950
 3071W        W18688   6.957   3.071  14.153 -0.1340 -0.2610  0.3853
 3072W        W18689   0.015  12.342  12.296 -0.0414 -0.0428  0.0421
 3073W        W18690  16.539  11.376  12.899 -0.0044 -0.0673 -0.0314
 3074W        W18691  12.390   2.701   5.234 -0.2697 -0.1267  0.1429
 3075W        W18692   5.554  16.664   0.955  0.1617 -0.0508 -0.1629
 3076W        W18693  10.698  16.071   3.943 -0.0908 -0.0295 -0.0650
 3077W        W18694   8.297   9.869  16.256  0.0365  0.0687  0.1011
 3078W        W18695   9.713   0.811   4.479  0.3106  0.0945 -0.0044
 3079W        W18696   5.831   0.388  11.830 -0.0807 -0.2108  0.0978
 3080W        W18697  13.982   5.272   4.498  0.2518  0.2131  0.0724
 3081W        W18698  11.740   0.714   4.240  0.0348 -0.2115 -0.1146
 3082W        W18699  17.467  14.026   2.087 -0.1840 -0.2161  0.0939
 3083W        W18700  14.489  13.231  14.714 -0.0081 -0.0766 -0.0542
 3084W        W18701   1.748  15.194  14.913 -0.4776  0.2727 -0.0654
 3085W        W18702   0.390  12.883   5.876 -0.0618 -0.1556 -0.2603
 3086W        W18703  17.763   3.352  16.526 -0.4587  0.0534  0.1760
 3087W        W18704   2.300  10.844  11.656 -0.3079  0.3229  0.0623
 3088W        W18705   1.264  12.177   0.900  0.1975 -0.0212  0.0436
 3089W        W18706  14.762   4.990  14.064 -0.1612  0.0065  0.1056
 3090W        W18707  13.419   9.398   0.027 -0.2402  0.0767  0.1830
 3091W        W18708   2.054   2.443  12.188 -0.1522  0.0936 -0.1831
 3092W        W18709   3.808   5.422  15.826  0.0093 -0.0598 -0.1010
 3093W        W18710   4.734   5.061   1.485 -0.2023  0.3327 -0.1935
 3094W        W18711   8.803   7.592   5.945  0.1171 -0.1997 -0.0129
 3095W        W18712   9.514  15.202  11.134 -0.0365  0.2729  0.1348
 3096W        W18713   9.618  16.412   3.760  0.1540 -0.2998 -0.1133
 3097W        W18714   8.234   9.121  16.631  0.0304 -0.0335 -0.0685
 3098W        W18715  15.547   5.850  13.384  0.1944  0.0555 -0.1457
 3099W        W18716   2.461   7.528  13.003 -0.0716 -0.1623 -0.1122
 3100W        W18717   2.942   0.434  14.890  0.1572  0.0346 -0.2313
 3101W        W18718  14.176  14.119  11.987  0.2867 -0.0589  0.3550
 3102W        W18719   1.538   9.274  11.873 -0.0899 -0.2930 -0.0180
 3103W        W18720   8.560   5.511  12.173  0.0403 -0.1918 -0.2130
 3104W        W18721  10.547   4.436  13.320  0.2606  0.2835 -0.0952
 3105W        W18722  14.399   3.712   2.914 -0.0342 -0.3148  0.0756
 3106W        W18723   7.722  15.854  12.592 -0.2843  0.0379  0.0352
 3107W        W18724  16.822  15.338   3.156  0.3042  0.2136 -0.0754
 3108W        W18725  11.220  17.248   3.226  0.1412  0.2781  0.1883
 3109W        W18726   3.682  12.370   2.900 -0.0865  0.2680 -0.0845
 3110W        W18727  16.215   7.589   2.089 -0.2401 -0.0771 -0.1467
 3111W        W18728   1.081   0.159  14.790  0.2643  0.1596  0.3345
 3112W        W18729   6.340   1.704  12.363  0.1711 -0.3783 -0.1795
 3113W        W18730  17.046   6.582   2.218  0.0871 -0.0847  0.3420
 3114W        W18731   6.309   5.050  14.354 -0.0638 -0.1059 -0.3232
 3115W        W18732   3.787  15.049  16.554 -0.1369  0.2857  0.1280
 3116W        W18733   9.562   6.494  12.652  0.0298 -0.2326 -0.1149
 3117W        W18734  16.997  11.430  15.020 -0.3214  0.3472  0.0096
 3118W        W18735   5.919  17.000  15.771  0.0720  0.0204 -0.1096
 3119W        W18736   7.985   0.043  15.824 -0.0801 -0.1231  0.1438
 3120W        W18737   2.462   1.122  12.726  0.2656  0.2825  0.0568
 3121W        W18738   4.522  16.252  13.858  0.1362 -0.0375 -0.1888
 3122W        W18739   9.774  12.757   5.628 -0.2691  0.0789 -0.1369
 3123W        W18740  12.494  14.110   0.865 -0.0493 -0.0006  0.0586
 3124W        W18741  15.438   0.449  13.212 -0.0608 -0.1293  0.0717
 3125W        W18742   9.385  15.379  13.513 -0.2612 -0.3702 -0.1057
 3126W        W18743   1.622   6.088  13.534 -0.1404  0.0451  0.0087
 3127W        W18744   7.779   7.036  11.723 -0.0319  0.2216 -0.0050
 3128W        W18745   9.858  15.464   0.272  0.0791  0.2528 -0.0505
 3129W        W18746   3.900  15.795   2.093  0.1317  0.0233 -0.0252
 3130W        W18747   6.479   5.763  13.528  0.0853  0.1740 -0.1446
 3131W        W18748   5.475   6.114   2.530 -0.2946  0.0330 -0.1081
 3132W        W18749   3.938  10.692   3.061 -0.2184 -0.0127  0.0585
 3133W        W18750  10.943  12.796  15.355 -0.1247 -0.0060 -0.1791
 3134W        W18751  10.560  13.353   0.552 -0.2529 -0.0117  0.0985
 3135W        W18752   4.716   5.555  16.688 -0.0541  0.2228  0.1755
 3136W        W18753  11.280  12.429  15.670  0.1919 -0.2205 -0.4457
 3137W        W18754   6.072  11.664   1.421 -0.2263  0.0520  0.2237
 3138W        W18755   4.244  14.477  12.377 -0.1109  0.2132  0.1563
 3139W        W18756  15.588   2.474   2.361 -0.0980  0.2619  0.0067
 3140W        W18757  13.090   8.845   0.757 -0.1032 -0.1813 -0.2641
 3141W        W18758   6.062   1.502   4.562  0.1475  0.0534 -0.2980
 3142W        W18759  12.192   6.692  14.803 -0.1956  0.2584  0.0319
 3143W        W18760  15.375   2.123  15.137 -0.0327 -0.0397 -0.6383
 3144W        W18761   5.664   8.111   5.813 -0.1189  0.0042 -0.3320
 3145W        W18762   0.630   7.970   3.583  0.2550  0.2611  0.0402
 3146W        W18763  16.372  10.806   6.048 -0.0724 -0.2247 -0.3066
 3147W        W18764  16.673   9.543   6.146 -0.0942  0.0031  0.0963
 3148W        W18765   8.547  14.551   4.837 -0.0486 -0.1378 -0.1338
 3149W        W18766   0.299  15.912  14.879 -0.1612  0.0652  0.1200
 3150W        W18767  15.039  16.841  12.962  0.3342 -0.1964 -0.3161
 3151W        W18768   5.871   1.272  11.295 -0.1380  0.0624 -0.3212
 3152W        W18769  17.783   1.848   5.579  0.0304 -0.2025 -0.4635
 3153W        W18770   4.836  12.360  16.441 -0.2212 -0.1481 -0.1273
 3154W        W18771   0.469   9.258   5.276  0.0139 -0.0662 -0.2706
 3155W        W18772  14.132   3.755  12.974 -0.0608 -0.0124  0.1817
 3156W        W18773   7.429  10.291  12.058 -0.2593 -0.3424 -0.1364
 3157W        W18774   4.691   9.814   2.884  0.3400 -0.1878  0.4963
 3158W        W18775  10.094   3.947  16.642  0.2350  0.0509 -0.1148
 3159W        W18776  16.467   1.639   4.520 -0.3375  0.3002 -0.1192
 3160W        W18777   2.612  10.025   1.635  0.1072 -0.1429  0.2824
 3161W        W18778  10.776   8.898   3.010  0.0622 -0.1042 -0.1661
 3162W        W18779   0.595  16.715   4.592  0.2036  0.2598  0.2273
 3163W        W18780  11.276   8.983   3.055  0.0487  0.2715 -0.0028
 3164W        W18781  14.331  11.573   5.545 -0.1393 -0.2202 -0.0936
 3165W        W18782  15.905  17.592  11.912  0.2433 -0.1049  0.0823
 3166W        W18783  11.912   6.300   3.128 -0.1980  0.0632  0.1386
 3167W        W18784   1.876  16.106  14.723 -0.1852  0.0032  0.0026
 3168W        W18785  11.254   9.982   4.909  0.2909 -0.0840 -0.0554
 3169W        W18786  16.074  17.405  13.490 -0.4172 -0.1576  0.0514
 3170W        W18787   7.647  16.571  15.054 -0.1631 -0.0729  0.0729
 3171W        W18788  15.149  10.395   1.631 -0.0079  0.0352 -0.2596
 3172W        W18789  17.445   8.194  14.957  0.3242 -0.1468  0.3488
 3173W        W18790  10.103  11.492   3.410  0.0034  0.1818  0.1768
 3174W        W18791   8.856  16.074  10.611  0.0152  0.1306  0.0441
 3175W        W18792  11.115  13.480  15.828 -0.2948  0.0070 -0.0721
 3176W        W18793   3.430  11.189  12.289 -0.0170 -0.3011  0.0876
 3177W        W18794  17.780  16.619   1.372  0.2990 -0.0539 -0.6035
 3178W        W18795   3.669  17.461   1.274 -0.0242 -0.0742 -0.0946
 3179W        W18796   6.192   8.295  12.725 -0.1991 -0.3669  0.0525
 3180W        W18797   4.721   7.706   4.774  0.1023 -0.0410  0.0074
 3181W        W18798   5.664   9.199   4.357 -0.2412 -0.2063  0.2555
 3182W        W18799   3.875  16.627   1.705 -0.0467  0.2011  0.0235
 3183W        W18800   4.945   3.364   4.794  0.0430  0.2556  0.1609
 3184W        W18801  10.542  11.587   0.873  0.1295  0.0324 -0.1415
 3185W        W18802   2.223   0.694   4.881  0.1388  0.0999 -0.1843
 3186W        W18803  11.550   2.109  14.735 -0.0486  0.1200  0.3666
 3187W        W18804  15.553   4.252   0.304  0.4715 -0.1905  0.4430
 3188W        W18805  14.769   0.009  13.536  0.1374  0.3163 -0.1642
 3189W        W18806   8.773  15.783   1.902  0.2499 -0.1660 -0.0537
 3190W        W18807   6.130   6.576   1.845  0.3200  0.0580  0.0855
 3191W        W18808  17.000  11.757  16.696  0.3306 -0.2388 -0.0888
 3192W        W18809   6.433   3.540   4.444  0.2711 -0.1205 -0.1707
 3193W        W18810  17.241   1.183  14.656  0.1086  0.0972 -0.0029
 3194W        W18811   2.603   5.463   3.580 -0.0105 -0.0662  0.3018
 3195W        W18812   9.234  14.516   1.163 -0.0928  0.3586  0.1405
 3196W        W18813   8.470  11.451   5.363  0.0677  0.0402 -0.0667
 3197W        W18814  16.979   9.752  12.802  0.0496 -0.4012  0.1706
 3198W        W18815   3.648   8.978   6.055  0.2230  0.1685 -0.0255
 3199W        W18816  15.493   6.821  12.668 -0.0720 -0.1590  0.1064
 3200W        W18817   1.072  16.564  14.884  0.1370  0.1864 -0.3689
 3201W        W18818   0.302  16.123  12.224  0.1675 -0.1239 -0.1151
 3202W        W18819   7.293   9.515  16.613 -0.1663  0.3369 -0.0258
 3203W        W18820  16.765  17.234   2.600  0.0668  0.3463  0.1161
 3204W        W18821  12.155  13.510  16.288  0.1293 -0.0033  0.0360
 3205W        W18822  10.536  14.806  14.972  0.0739  0.0647 -0.2051
 3206W        W18823   1.160   6.710  14.819 -0.4110 -0.0060  0.1457
 3207W        W18824  16.966   2.617  16.625 -0.0405 -0.2087 -0.0360
 3208W        W18825   9.997   0.587  13.436 -0.0045  0.2541  0.0558
 3209W        W18826   2.928   0.151  11.899 -0.0166 -0.1901  0.4844
 3210W        W18827  13.308   3.103  16.486 -0.2716 -0.2825 -0.4497
 3211W        W18828   2.842  11.773  14.215  0.0396  0.1523  0.0195
 3212W        W18829   7.315  11.166  13.414  0.1033  0.1957 -0.0266
 3213W        W18830  16.343  12.212  13.378  0.1082  0.1354 -0.1590
 3214W        W18831   1.804   3.364   2.558 -0.1610 -0.3904 -0.0852
 3215W        W18832   2.101  15.072   1.131 -0.0372  0.2026  0.1676
 3216W        W18833  14.986   2.197  15.440  0.0280  0.0541  0.3638
 3217W        W18834   4.374  11.878   1.888  0.3603 -0.1419  0.0440
 3218W        W18835  12.241   6.747  12.117 -0.2649  0.3294  0.0224
 3219W        W18836  10.907   7.739  13.102 -0.3562 -0.0794 -0.1894
 3220W        W18837  12.149  15.906  13.691 -0.1023  0.0194 -0.1307
 3221W        W18838   9.486   2.904   6.206  0.2247 -0.0046 -0.1823
 3222W        W18839   3.496   0.897   2.106 -0.2108  0.0017  0.2178
 3223W        W18840   7.742   9.593   5.726  0.0205 -0.1799 -0.0769
 3224W        W18841   4.614  15.739  11.232  0.1433 -0.1950  0.4306
 3225W        W18842  15.321   3.754  13.496  0.1144  0.1152  0.5557
 3226W        W18843   2.956   1.540  16.748  0.1541  0.3142 -0.0163
 3227W        W18844   5.134   8.261  12.019 -0.1031 -0.3138 -0.3433
 3228W        W18845   7.335   4.691  16.679 -0.0084 -0.0948  0.0062
 3229W        W18846  12.548   8.752  14.734  0.2757  0.0404 -0.2455
 3230W        W18847   4.700   2.461  13.175  0.0232 -0.1232 -0.2212
 3231W        W18848   2.927  11.183  16.457 -0.2102  0.1138 -0.1013
 3232W        W18849   4.228   1.958   1.634  0.0160  0.1098  0.1083
 3233W        W18850  16.555  16.000  12.131  0.2036  0.0207  0.0778
 3234W        W18851  14.113  15.646  11.691  0.5246  0.0750  0.0481
 3235W        W18852  14.908   8.466  13.097  0.2385 -0.0361 -0.1021
 3236W        W18853  16.645   9.607   4.523  0.0356 -0.1268  0.0835
 3237W        W18854   2.723  15.818  10.850 -0.2055 -0.0595  0.0827
 3238W        W18855  16.628   2.266   3.922  0.0892  0.0665 -0.2802
 3239W        W18856   2.689   4.998   4.323  0.0339 -0.0883  0.0737
 3240W        W18857   7.319  17.326  16.596 -0.5378  0.0995  0.1537
 3241W        W18858  14.389   9.287  15.291  0.1823  0.0081 -0.1820
 3242W        W18859  11.710   4.827  11.967 -0.0021 -0.1121 -0.3465
 3243W        W18860  15.827   6.625  12.975  0.0215 -0.0313 -0.0167
 3244W        W18861   0.761   9.378   1.575  0.2250 -0.0219  0.2523
 3245W        W18862   5.959   5.222   1.048 -0.0623 -0.0543  0.1352
 3246W        W18863   6.081   7.881   1.025 -0.0150 -0.1512 -0.0734
 3247W        W18864   5.172   0.997  15.660 -0.0911  0.4361 -0.0323
 3248W        W18865   9.558   5.157   2.222  0.1169  0.1472 -0.0608
 3249W        W18866   8.193   1.177   4.431 -0.3129 -0.1107 -0.0489
 3250W        W18867   3.602   9.202   1.686 -0.1147 -0.0980  0.0361
 3251W        W18868   0.834   0.120   2.906 -0.0927 -0.1698 -0.1641
 3252W        W18869   9.726  12.722   2.893  0.0126  0.1407 -0.0772
 3253W        W18870   8.871  14.369   4.222 -0.1566  0.1240 -0.2234
 3254W        W18871  11.988   8.008  14.421 -0.0130  0.0849  0.0049
 3255W        W18872  12.607   0.704   2.563  0.2683 -0.0668  0.1319
 3256W        W18873  16.767  17.468   5.444  0.0898 -0.0487 -0.0949
 3257W        W18874   2.445   8.392   5.244 -0.0482 -0.2295  0.2493
 3258W        W18875  10.384   9.378  13.049 -0.1226  0.1672 -0.1208
 3259W        W18876   5.157  14.461   3.390 -0.2939  0.2234  0.3363
 3260W        W18877   8.367  14.323  15.432 -0.0089  0.0711 -0.0853
 3261W        W18878   9.659   9.610   2.873 -0.1415 -0.0719  0.0904
 3262W        W18879  16.694  17.148  14.672  0.3182 -0.2326 -0.0621
 3263W        W18880  15.369  10.004   0.757 -0.0403 -0.5084  0.0784
 3264W        W18881  16.221   3.498   5.224  0.0203  0.0196 -0.0236
 3265W        W18882   9.031   2.130  15.629 -0.1608 -0.0081 -0.1170
 3266W        W18883  10.471   9.316   2.717  0.2499  0.0663 -0.0463
 3267W        W18884  17.645   2.206   4.040  0.0725  0.1462  0.4099
 3268W        W18885   8.664   3.785  14.499 -0.1604 -0.1030  0.1995
 3269W        W18886   1.382  10.493  12.722  0.0392 -0.2263  0.4016
 3270W        W18887   7.335   8.818   4.580 -0.2405 -0.0109 -0.0989
 3271W        W18888   2.467  12.205  12.354 -0.1168 -0.0001 -0.1986
 3272W        W18889  14.576  11.018   2.948  0.1502  0.1355  0.0175
 3273W        W18890   8.334  14.817   5.219 -0.1012 -0.2115  0.0819
 3274W        W18891   4.772   9.934  13.671 -0.2193  0.1141 -0.0562
 3275W        W18892  15.774   6.639  12.302  0.0387  0.0159 -0.1897
 3276W        W18893  13.240  13.373   2.470 -0.0647  0.0185 -0.0850
 3277W        W18894   0.929  12.997   1.396  0.3039 -0.1185 -0.0445
 3278W        W18895  16.111   8.595  16.077  0.0670  0.1186 -0.1253
 3279W        W18896  15.207   3.265   2.924 -0.0106  0.1909 -0.0870
 3280W        W18897  13.393  12.137   6.378  0.1229  0.0113 -0.0144
 3281W        W18898   7.704   1.236   2.655 -0.2432 -0.0824 -0.2260
 3282W        W18899   8.318   7.870   5.908 -0.1174 -0.1791 -0.0942
 3283W        W18900  15.655  12.380  15.600 -0.4061 -0.1207 -0.0127
 3284W        W18901   1.135   9.572  13.138 -0.3157 -0.1009 -0.0396
 3285W        W18902  11.401   2.400   1.863 -0.3176  0.1307 -0.0374
 3286W        W18903  14.756  11.048   4.463 -0.1035  0.0549  0.1086
 3287W        W18904  13.862   4.812  13.962  0.0860  0.1816 -0.2567
 3288W        W18905  11.937   6.422  14.423  0.1381  0.3537  0.0170
 3289W        W18906  11.915   4.723   0.265  0.1321  0.3907  0.0955
 3290W        W18907   2.015  13.961  12.434 -0.1182  0.0545  0.1490
 3291W        W18908   8.465   7.985  13.382  0.1473  0.0894  0.1808
 3292W        W18909   0.079   3.487   2.910  0.0690  0.0113  0.0082
 3293W        W18910  17.558   5.252   0.053 -0.0538 -0.0044  0.2813
 3294W        W18911   1.014   5.487   2.485  0.2359  0.1036 -0.0448
 3295W        W18912   5.858   6.419  14.534 -0.2001 -0.0561  0.0796
 3296W        W18913   7.243   8.235  16.210 -0.0901  0.0182 -0.2034
 3297W        W18914   4.478  17.123   2.721  0.1645  0.0709 -0.3252
 3298W        W18915  14.811   8.403  15.268  0.2590  0.0883 -0.0371
 3299W        W18916  11.739  14.285   3.300  0.1228  0.0363 -0.1552
 3300W        W18917  11.224   8.071  15.330  0.1462  0.0907  0.0667
 3301W        W18918  12.520  10.665  14.373 -0.1075 -0.0949 -0.2430
 3302W        W18919  10.099   5.276  14.921 -0.2330 -0.3270 -0.0607
 3303W        W18920   2.739  11.473  15.708  0.3342  0.0194 -0.2336
 3304W        W18921  17.248  17.119   4.502 -0.0030  0.2220  0.0227
 3305W        W18922   0.658  15.290   4.798  0.1829 -0.1540  0.3096
 3306W        W18923   2.484  13.083   0.034 -0.1200 -0.0510 -0.0403
 3307W        W18924   2.190   8.093  14.643  0.1050  0.0845 -0.1755
 3308W        W18925  15.961   3.771   3.208 -0.0241  0.2251  0.1353
 3309W        W18926   8.074   9.656  13.942 -0.0179 -0.2833  0.2578
 3310W        W18927  11.003   1.747   4.847 -0.1134 -0.1200  0.3277
 3311W        W18928   2.959   3.599   0.013  0.1529  0.1458  0.1547
 3312W        W18929   5.151   4.891   0.533  0.1917 -0.2481 -0.0175
 3313W        W18930   7.480  11.384  15.623 -0.1291 -0.2004 -0.1446
 3314W        W18931   1.894   7.211  11.956  0.0987  0.0840 -0.1267
 3315W        W18932   4.648   8.335  12.935  0.0190 -0.0621 -0.0518
 3316W        W18933  11.809  14.552  12.874  0.1765  0.0260  0.0900
 3317W        W18934   7.018  15.475   3.077  0.2260  0.3062  0.3163
 3318W        W18935   7.624  15.650  14.916  0.0123  0.2122  0.0941
 3319W        W18936  14.937  15.251   0.050  0.1374  0.3458 -0.0655
 3320W        W18937   6.955  10.355   4.615  0.4497 -0.0808 -0.2713
 3321W        W18938  16.997  17.352  14.292  0.0223 -0.0579  0.0683
 3322W        W18939  11.856   4.438  12.892  0.0540 -0.3903 -0.0514
 3323W        W18940  10.437  13.410  13.069  0.1195 -0.2877  0.4997
 3324W        W18941  10.405   1.584  11.657 -0.1919  0.1270  0.0802
 3325W        W18942   8.890   4.365  14.029  0.0616  0.3600  0.0470
 3326W        W18943   6.652  11.778   5.330 -0.2372  0.0917 -0.0060
 3327W        W18944  16.671   5.579   3.034 -0.1934  0.2788 -0.0336
 3328W        W18945  15.490   6.320   0.943 -0.1512  0.0163 -0.0423
 3329W        W18946  11.828  16.854  15.121  0.2901 -0.2904  0.0213
 3330W        W18947  13.071   4.803   2.660 -0.2593  0.1430  0.0344
 3331W        W18948   1.231  16.032  12.763 -0.0758 -0.2687 -0.3846
 3332W        W18949   9.191   0.238   4.715  0.2114  0.2298 -0.0737
 3333W        W18950  16.330   5.698  13.705  0.2719 -0.0808  0.1101
 3334W        W18951   8.501   9.214   3.340  0.3323 -0.1318  0.1000
 3335W        W18952   9.333  12.957   5.720  0.0096  0.0597 -0.1941
 3336W        W18953   9.059   1.014  14.757  0.2172  0.3208 -0.0535
 3337W        W18954   5.507   9.146  12.299  0.1711  0.3905  0.0400
 3338W        W18955  12.661  15.919   3.758  0.1862 -0.0665  0.0806
 3339W        W18956   9.959   4.011   0.296 -0.2056 -0.1568 -0.0119
 3340W        W18957  15.780  16.225   0.518  0.2400  0.1942 -0.0699
 3341W        W18958  12.989  16.949   1.602 -0.0521 -0.1572  0.0376
 3342W        W18959   4.863  11.920  12.021  0.1045 -0.0364 -0.0841
 3343W        W18960  17.174   0.606   4.337  0.2957  0.0202  0.2819
 3344W        W18961   2.140  12.104   5.453 -0.1175  0.0009 -0.1383
 3345W        W18962  10.490   1.115  14.736  0.1044 -0.2232 -0.2595
 3346W        W18963  11.371   7.979   5.761 -0.1194  0.3711 -0.1497
 3347W        W18964   3.538   7.801   4.373 -0.2893  0.0777 -0.0871
 3348W        W18965   7.909  11.105   2.608  0.2160  0.0076 -0.0724
 3349W        W18966   0.686   0.545   3.104  0.4001 -0.1297 -0.0319
 3350W        W18967   2.040   6.266  15.176 -0.2969 -0.0349 -0.1491
 3351W        W18968  12.256   2.440   0.310 -0.2346 -0.3080  0.2954
 3352W        W18969  14.084  15.070   4.740 -0.1993 -0.2649  0.0495
 3353W        W18970  10.214  15.860   3.265  0.2746  0.3031  0.2432
 3354W        W18971   4.444   6.779  15.433  0.0122 -0.1903 -0.2017
 3355W        W18972  17.000  16.557  14.840  0.1664  0.2121 -0.1113
 3356W        W18973  15.244   4.887   4.684 -0.1149  0.1216  0.1961
 3357W        W18974   2.586   8.306  11.778 -0.0824 -0.0747 -0.2443
 3358W        W18975   9.922   8.380  16.360 -0.1008 -0.0605 -0.2746
 3359W        W18976  12.214  11.703  16.732 -0.0624 -0.1009 -0.1617
 3360W        W18977   7.630  15.519   5.607 -0.1123 -0.0418 -0.0948
 3361W        W18978   3.418   2.610   4.981  0.0225  0.1208 -0.0522
 3362W        W18979  17.489   8.729   0.586 -0.1327 -0.1653  0.0623
 3363W        W18980  11.172   6.770   1.067 -0.0066  0.0776  0.0766
 3364W        W18981  11.533  17.725  13.482  0.1702 -0.0073  0.1090
 3365W        W18982  14.560   4.189   2.784  0.1418  0.1682 -0.2512
 3366W        W18983   0.422   9.135   0.182  0.2815 -0.1739  0.2571
 3367W        W18984  11.248   2.561  16.052  0.5164 -0.2150  0.1067
 3368W        W18985  15.158   0.121   5.344  0.3277  0.1913  0.4651
 3369W        W18986   7.792  15.143   4.208  0.0269 -0.1334 -0.1532
 3370W        W18987   9.406   9.690   3.657 -0.0913 -0.0688 -0.3052
 3371W        W18988   3.356  16.379   2.442  0.2758  0.0254  0.1443
 3372W        W18989  10.144   2.845  14.195 -0.2287 -0.0035  0.0370
 3373W        W18990  10.345   4.104  12.455 -0.0511  0.1067  0.0189
 3374W        W18991  10.271  15.107   0.178  0.0406 -0.0059 -0.0636
 3375W        W18992  16.401  10.309  13.888  0.0340 -0.0545 -0.0239
 3376W        W18993  16.342   3.690  14.518 -0.1513  0.1326 -0.0078
 3377W        W18994   3.531   3.154  14.757 -0.2071  0.2246 -0.0424
 3378W        W18995   5.920   2.052   6.189 -0.2850  0.0236  0.3627
 3379W        W18996   0.279   4.020  11.630 -0.2329  0.0993  0.0603
 3380W        W18997   3.893  15.341  12.506 -0.2250 -0.3392  0.1524
 3381W        W18998   9.424   2.683  13.742 -0.0378  0.1666 -0.1334
 3382W        W18999   5.247  10.829   4.226 -0.1161  0.2454  0.1616
 3383W        W19000  11.139  10.301   0.788  0.0729  0.2424  0.4547
 3384W        W19001   3.591  11.293  12.792  0.0856  0.0244 -0.0359
 3385W        W19002   7.858   1.140  11.769 -0.3022 -0.1566  0.2473
 3386W        W19003   4.028  10.878   5.608 -0.0195  0.1874  0.1369
 3387W        W19004   3.584   9.333  13.391  0.0125  0.0842  0.0334
 3388W        W19005   0.308  11.287   5.020  0.0425 -0.2538  0.3149
 3389W        W19006  16.086  16.775  16.218  0.0100 -0.1607 -0.3056
 3390W        W19007  17.218  11.763  12.445  0.1324  0.0803 -0.0085
 3391W        W19008  11.008   5.536  12.181  0.1364  0.0211  0.1877
 3392W        W19009   7.345  12.649   0.292 -0.0629  0.1312  0.0141
 3393W        W19010   2.518  16.044   4.096 -0.0062 -0.2961 -0.2116
 3394W        W19011  15.712  15.719   3.436  0.3057 -0.1013 -0.1634
 3395W        W19012  11.080  12.905   5.857 -0.0889  0.2468 -0.1287
 3396W        W19013  11.327  10.888   3.383  0.0899 -0.0733 -0.1918
 3397W        W19014   5.830   0.208   3.821  0.0498  0.0743  0.1560
 3398W        W19015   5.120  14.737  14.651  0.2308  0.0597  0.1726
 3399W        W19016   8.186  10.701  12.345  0.2729  0.0144  0.0582
 3400W        W19017   6.476   3.474  14.246 -0.1627 -0.0451  0.0153
 3401W        W19018  10.817  16.378  11.053  0.1177 -0.0107 -0.0882
 3402W        W19019   6.925   8.438   0.584 -0.0745  0.0052  0.3444
 3403W        W19020  17.588   0.213   4.540  0.0799 -0.0021  0.0923
 3404W        W19021  13.813   5.698   4.920 -0.2345 -0.1877  0.1043
 3405W        W19022  14.700  16.905  12.102 -0.1676 -0.2738  0.0350
 3406W        W19023  13.953   7.192  16.615  0.1271 -0.0366 -0.0512
 3407W        W19024   2.281   5.647  16.547 -0.1620 -0.3558 -0.2581
 3408W        W19025   3.722   8.223   2.880  0.2439  0.3361 -0.1294
 3409W        W19026  13.314   4.065  12.919  0.0543  0.0733 -0.2289
 3410W        W19027   5.813  17.840  14.611  0.2527 -0.1265 -0.0744
 3411W        W19028  10.680   5.925   5.815  0.3315  0.1639 -0.0535
 3412W        W19029   7.783  10.289   3.321  0.0395 -0.1293  0.1966
 3413W        W19030   4.741  17.291  12.169  0.0070 -0.0847 -0.2195
 3414W        W19031  16.692  11.777  15.654 -0.2841 -0.0014  0.3369
 3415W        W19032  17.080   3.869   4.116 -0.1175  0.1033  0.0124
 3416W        W19033   3.732   5.939  12.726 -0.2403 -0.0110 -0.3166
 3417W        W19034   0.673  17.038   0.052 -0.0449 -0.1882  0.1386
 3418W        W19035   8.931   2.269  16.108 -0.0806 -0.0156  0.0321
 3419W        W19036   8.137   5.778   3.548  0.4359 -0.2640 -0.0670
 3420W        W19037  12.453  16.476   4.124 -0.1476  0.2553  0.0862
 3421W        W19038  16.489   1.372  12.751 -0.2933  0.1685  0.2249
 3422W        W19039  15.058  11.025   5.794 -0.1351  0.0594 -0.1072
 3423W        W19040   3.600   3.104   4.895 -0.3596  0.2160 -0.3245
 3424W        W19041  13.315   4.949  12.633 -0.2950 -0.2568 -0.1058
 3425W        W19042  16.067  16.847   2.095 -0.2470  0.0672  0.1292
 3426W        W19043  13.993   7.816   5.508 -0.2195  0.2017  0.1718
 3427W        W19044   3.391   4.088   0.904 -0.0597  0.0602  0.0575
 3428W        W19045   5.201   3.084   2.139 -0.1891 -0.0159 -0.0915
 3429W        W19046  12.495   5.621   4.681  0.2385 -0.2144  0.0557
 3430W        W19047   7.196   6.414   2.871  0.4053 -0.0294  0.1618
 3431W        W19048  11.601   8.563  14.724  0.2656 -0.3307 -0.1940
 3432W        W19049  12.459   8.789   0.132 -0.2449 -0.0955  0.5263
 3433W        W19050  17.444  10.706  15.159 -0.0016 -0.0669  0.2895
 3434W        W19051  10.625  14.102  14.176 -0.0385  0.0135  0.3783
 3435W        W19052  17.291  15.563  12.091  0.2182 -0.2972 -0.2386
 3436W        W19053   8.745  17.201  13.850 -0.0354 -0.1045  0.0380
 3437W        W19054  10.318  13.515   6.056  0.1144 -0.3451 -0.0664
 3438W        W19055   0.275  16.369   4.422  0.0861 -0.2866 -0.2311
 3439W        W19056  13.286   2.618   1.670  0.0952 -0.2006 -0.2957
 3440W        W19057  10.209   8.757  13.979 -0.1056 -0.0869  0.4074
 3441W        W19058  17.575  15.247   2.888  0.1571 -0.3171 -0.0359
 3442W        W19059   2.271   6.023  15.674  0.5008  0.2581 -0.0047
 3443W        W19060  11.841   3.510   1.204  0.1336  0.0745  0.0718
 3444W        W19061  11.413   9.826   5.709 -0.1020  0.0566  0.1044
 3445W        W19062   2.504   5.577   5.454  0.1189  0.1448 -0.0734
 3446W        W19063   4.007  15.430  15.769 -0.0053  0.0587  0.2099
 3447W        W19064   1.435   4.688   2.856 -0.2137  0.0423  0.0641
 3448W        W19065  15.433   5.060  12.070 -0.1448 -0.2744 -0.1228
 3449W        W19066   2.323  10.645   1.695  0.0281 -0.2812  0.0151
 3450W        W19067  15.857  13.037   2.942  0.2362  0.0379  0.3777
 3451W        W19068   6.883   7.086   0.242  0.4343 -0.2061  0.3184
 3452W        W19069   4.797  13.737  15.669 -0.1683  0.1403  0.0314
 3453W        W19070  17.039   5.354   4.881  0.1782 -0.3834  0.2155
 3454W        W19071  14.766   0.941  15.809  0.2310  0.1527  0.0341
 3455W        W19072   1.342   1.308  11.918 -0.1577 -0.0712  0.0372
 3456W        W19073   9.563   6.203  16.046 -0.1595 -0.1710  0.1139
 3457W        W19074  14.815   9.279   4.503 -0.1453  0.0895 -0.0934
 3458W        W19075   1.413   7.980  15.220 -0.0445  0.0489  0.0902
 3459W        W19076   1.232  10.239   1.832 -0.0657 -0.0652 -0.0426
 3460W        W19077  10.504   2.057  11.613 -0.1657  0.0751 -0.0214
 3461W        W19078   4.298   9.110  16.358  0.0615  0.0982  0.0592
 3462W        W19079   5.930   2.601  13.580 -0.0577  0.0196  0.4090
 3463W        W19080   9.726   1.286   0.438 -0.3879  0.1311  0.1887
 3464W        W19081   5.716  14.722   2.523 -0.2999 -0.0613 -0.2026
 3465W        W19082   6.611  12.748   1.802  0.0961  0.3053 -0.2324
 3466W        W19083   9.331   7.345  14.061 -0.1613  0.2605 -0.1613
 3467W        W19084  13.340   6.285  16.497  0.2387  0.0136 -0.2713
 3468W        W19085  12.256  12.553  15.726 -0.4533 -0.2062 -0.0111
 3469W        W19086   5.498   2.495   4.434 -0.3931 -0.0643 -0.0816
 3470W        W19087  12.041   5.067   6.373  0.2261  0.3251  0.3599
 3471W        W19088   2.040   5.654   5.726 -0.0235 -0.1528  0.0082
 3472W        W19089   6.837   9.010   4.773  0.0161  0.1446  0.2717
 3473W        W19090   9.885  11.878   2.138 -0.1332 -0.0601  0.1444
 3474W        W19091  13.003   5.991   1.815 -0.1481 -0.4281  0.0906
 3475W        W19092   9.259   3.212  16.744  0.0942 -0.1752 -0.5276
 3476W        W19093  13.810   8.632  12.389  0.0506  0.1129 -0.1257
 3477W        W19094  12.818  12.409  13.896  0.0446  0.0551 -0.0730
 3478W        W19095   9.364   9.920  16.023  0.2402 -0.1100 -0.1050
 3479W        W19096   1.782   3.929  14.183 -0.0721  0.1195  0.1645
 3480W        W19097   3.268   6.518   2.649 -0.2617  0.0409  0.0942
 3481W        W19098  11.142   4.610   0.018  0.0737 -0.0008  0.2545
 3482W        W19099   4.392   6.214  10.528 -0.1671  0.2417 -0.0530
 3483W        W19100   7.998  15.820  11.428  0.1806 -0.1214  0.2519
 3484W        W19101   2.736  13.950   4.336 -0.1226 -0.1425 -0.2435
 3485W        W19102   4.183   3.221  11.684  0.1068 -0.0856  0.1186
 3486W        W19103   1.806  14.949  13.361  0.3213 -0.0642  0.0183
 3487W        W19104   7.650   0.146   0.715  0.2957 -0.1334 -0.3257
 3488W        W19105  15.672   6.611   1.288  0.0599  0.1243 -0.2572
 3489W        W19106   8.350  17.091  14.845  0.1457 -0.3347  0.0910
 3490W        W19107  12.924  11.735   4.201 -0.2973  0.2966 -0.1572
 3491W        W19108  13.447  12.250  13.172 -0.0935 -0.1481 -0.1512
 3492W        W19109   1.033  14.870   0.909 -0.1045 -0.3520  0.2809
 3493W        W19110   9.096  13.677   0.788 -0.1315 -0.3327 -0.1478
 3494W        W19111  17.666  16.265   4.594 -0.0113  0.2803  0.0955
 3495W        W19112   0.937   9.472   3.958  0.0009  0.2621  0.0425
 3496W        W19113   2.047   7.156   3.121  0.0418 -0.2410  0.2806
 3497W        W19114  15.999   9.509   4.541  0.1240 -0.1933  0.0201
 3498W        W19115  10.768  10.661  12.869 -0.1250  0.0557 -0.0550
 3499W        W19116   4.815  12.204  14.635  0.0466 -0.0191 -0.0290
 3500W        W19117  13.104   8.964  12.143 -0.2896  0.0848 -0.3942
 3501W        W19118  13.155  12.597  12.874 -0.2484 -0.1287 -0.2026
 3502W        W19119  16.656   5.625  11.748 -0.2831  0.1002 -0.1249
 3503W        W19120   0.759   0.418  15.890  0.2918 -0.1364 -0.3653
 3504W        W19121  11.020  13.254   1.931  0.2118 -0.1756  0.0710
 3505W        W19122   9.932   9.736   4.899  0.4639  0.1776 -0.0744
 3506W        W19123  16.640   2.184   0.628 -0.0284 -0.0374  0.0906
 3507W        W19124   5.563  11.118   0.134 -0.1941  0.0123 -0.0031
 3508W        W19125  17.325  17.415   0.006  0.0343 -0.0471  0.0336
 3509W        W19126  11.483   1.794  13.239  0.1762 -0.1807 -0.0844
 3510W        W19127  15.775  16.401   0.019 -0.2901  0.2670 -0.1682
 3511W        W19128   0.020  10.425  12.795  0.1120  0.1576  0.2103
 3512W        W19129  16.628  11.204   5.917 -0.0543  0.1797  0.1419
 3513W        W19130  13.409   9.804   0.816 -0.3331 -0.1493  0.1682
 3514W        W19131  16.671   7.342  15.891  0.0751  0.1448 -0.1388
 3515W        W19132  15.468  11.258   1.908 -0.1456  0.1677  0.0664
 3516W        W19133  14.517   6.331   0.399 -0.2203 -0.0802 -0.2504
 3517W        W19134   3.193  12.757   3.738  0.1235 -0.0053  0.1070
 3518W        W19135   5.476  11.144   2.086 -0.0527 -0.0407 -0.0299
 3519W        W19136   7.776   4.408  14.958 -0.2748  0.0844 -0.1096
 3520W        W19137   4.402   8.525   3.516 -0.1518 -0.3043  0.1370
 3521W        W19138   3.918   9.836   0.660 -0.0192 -0.2723  0.1839
 3522W        W19139   9.287  15.335   2.426  0.0353  0.1184  0.1375
 3523W        W19140   1.344  12.959   2.760  0.0215  0.3208 -0.1734
 3524W        W19141   0.746  13.778  16.348 -0.0489  0.2040  0.1886
 3525W        W19142  17.299  15.981   2.169  0.0893 -0.0491  0.0715
 3526W        W19143   6.237  12.370   1.777  0.0319 -0.0958  0.1723
 3527W        W19144   2.715   8.918   0.485  0.0848 -0.0579  0.2686
 3528W        W19145  16.043   6.451   1.571 -0.0087 -0.1186 -0.0379
 3529W        W19146  14.742   2.106   2.370 -0.0171 -0.2031  0.0541
 3530W        W19147  12.901   9.487  13.675  0.2792  0.1395  0.2305
 3531W        W19148  14.363  16.910   0.972  0.0630  0.0004  0.0108
 3532W        W19149  14.980  17.433  14.214  0.0288  0.2796  0.0167
 3533W        W19150  16.879   0.371   0.016  0.0433  0.4467  0.4097
 3534W        W19151  10.384  17.793  15.799  0.1685 -0.1870 -0.1687
 3535W        W19152   8.004   6.227   1.735 -0.0010 -0.0855  0.3400
 3536W        W19153   1.981   4.664  13.736  0.0017  0.2527  0.2254
 3537W        W19154   8.574  10.308   2.381  0.0448  0.1518 -0.1641
 3538W        W19155  13.312   0.259   3.141 -0.1417 -0.1874  0.2507
 3539W        W19156  11.003   3.898   5.810 -0.0505 -0.1356 -0.0930
 3540W        W19157  12.480  17.816   5.877  0.3977 -0.0466  0.1364
 3541W        W19158   3.372   5.537   5.278 -0.3070 -0.0202  0.2922
 3542W        W19159   2.745  14.131  10.414 -0.0105  0.0204  0.0873
 3543W        W19160   0.422  15.730   2.324  0.0420 -0.0282  0.2036
 3544W        W19161   1.404  17.802  13.349 -0.1404 -0.0631 -0.0802
 3545W        W19162  16.771   0.646  13.323 -0.3268 -0.0495  0.1716
 3546W        W19163   9.967   0.573  14.900  0.1637 -0.1810  0.1413
 3547W        W19164  11.350  14.964  14.345 -0.2626 -0.1076 -0.1368
 3548W        W19165   7.832   6.678   1.602 -0.1887 -0.2758  0.0733
 3549W        W19166   1.269   6.418  10.699  0.3994 -0.3257 -0.2352
 3550W        W19167   9.079  11.789  14.118  0.0037  0.1281  0.1854
 3551W        W19168   4.353   1.636  14.786 -0.2741 -0.0189 -0.1850
 3552W        W19169  16.762  14.346  13.494  0.1157  0.1819 -0.2382
 3553W        W19170  15.765   6.143   3.775 -0.1304  0.2145 -0.2064
 3554W        W19171   7.690   2.300  13.251  0.0789  0.1942 -0.2986
 3555W        W19172  16.587   3.759  16.139 -0.1497  0.0623 -0.2846
 3556W        W19173  16.823  16.236  16.650  0.1419 -0.0112 -0.1627
 3557W        W19174   1.462  16.138  10.023  0.2306 -0.1191  0.2015
 3558W        W19175  14.474  10.542   5.709  0.1745 -0.3406  0.1290
 3559W        W19176   3.806  13.578   3.504  0.0447 -0.0873 -0.2030
 3560W        W19177  11.592  14.716   2.067 -0.0959 -0.2907  0.2470
 3561W        W19178  15.782   8.670   4.153 -0.0379  0.0298 -0.0936
 3562W        W19179   4.526   6.227   5.963  0.0213 -0.2954  0.1938
 3563W        W19180   0.149   2.605   0.337  0.0270 -0.1258 -0.2462
 3564W        W19181   0.401   4.281  15.573  0.0559 -0.2326 -0.1012
 3565W        W19182   4.420  10.029  14.748 -0.0414 -0.3339 -0.0351
 3566W        W19183  13.837  11.700   1.928 -0.0390 -0.1867 -0.0522
 3567W        W19184  13.985   6.775   0.045  0.2524 -0.0577  0.0267
 3568W        W19185   5.815   6.985   2.353  0.0425 -0.1188  0.2549
 3569W        W19186   4.667   1.434  12.811 -0.0348  0.3493  0.2965
 3570W        W19187   6.301   2.237   3.887 -0.1525 -0.1425 -0.1110
 3571W        W19188  11.671   1.139   5.195  0.3832  0.0249 -0.1992
 3572W        W19189   2.724  15.927  13.385 -0.0976 -0.0005  0.1450
 3573W        W19190  16.641  13.198   5.549 -0.1211 -0.1476 -0.4003
 3574W        W19191  17.016   3.835   1.979 -0.1349  0.2736  0.0928
 3575W        W19192  13.965   6.716  13.211  0.0096  0.1585  0.0838
 3576W        W19193  11.975   2.993   0.994 -0.1781 -0.0057 -0.0912
 3577W        W19194  12.827   9.142  14.568 -0.0250 -0.2945  0.2392
 3578W        W19195  16.719  13.019  11.570  0.1285 -0.0808  0.2251
 3579W        W19196   7.662   1.283   5.177  0.0270 -0.0948 -0.1749
 3580W        W19197  15.670   9.595  15.233 -0.0452 -0.0731  0.2751
 3581W        W19198   7.898  15.985   2.129 -0.1488  0.2733  0.0947
 3582W        W19199  11.219  13.474   4.318  0.0133  0.0093 -0.0699
 3583W        W19200  12.123   7.161   2.883 -0.1243  0.0824 -0.1177
 3584W        W19201  15.617   3.848  16.658  0.0277 -0.0617  0.0640
 3585W        W19202   1.124  17.073   2.239 -0.2995  0.1024 -0.2703
 3586W        W19203  16.574   6.455  15.586  0.0025 -0.0364  0.1201
 3587W        W19204   3.384  16.752   0.450 -0.0157  0.3237 -0.0274
 3588W        W19205   2.666   9.264   1.603  0.4918  0.2603  0.0435
 3589W        W19206  12.006   4.762  12.475 -0.0554 -0.0867  0.0300
 3590W        W19207   8.165   6.101   5.276  0.1374  0.1696  0.0210
 3591W        W19208   8.693   7.906   0.075  0.1071  0.2300 -0.0716
 3592W        W19209  14.361   5.951   3.848  0.2380  0.0594  0.1263
 3593W        W19210   1.197   9.984   3.864  0.2529  0.1424  0.0000
 3594W        W19211  13.632   8.163   5.291 -0.2832 -0.1442 -0.1491
 3595W        W19212   5.873  12.080   0.820 -0.0182  0.0161  0.2299
 3596W        W19213   1.563  17.815  16.235  0.0885  0.0039 -0.3633
 3597W        W19214   9.106   9.645   2.673  0.1697 -0.3532  0.3972
 3598W        W19215   8.481  17.399  11.844  0.1236  0.1301  0.0596
 3599W        W19216   4.908  12.323   4.755  0.0030 -0.2226  0.0174
 3600W        W19217   6.443  16.139  16.187 -0.1597  0.0540  0.1863
 3601W        W19218   8.894   1.974   1.844 -0.0826 -0.3222 -0.1677
 3602W        W19219   9.246   8.701  15.115  0.1864  0.0799  0.1560
 3603W        W19220   6.209  17.770  12.731 -0.2110  0.1030  0.3576
 3604W        W19221   3.289  10.844   4.250 -0.3974  0.1487  0.3465
 3605W        W19222  13.857   4.926   1.902  0.3110  0.1092  0.0718
 3606W        W19223   4.677   2.766   2.912 -0.1493  0.2873  0.2386
 3607W        W19224  12.590   7.408   5.755  0.1771 -0.2948  0.0204
 3608W        W19225  10.112  14.311  15.369  0.0519 -0.1528 -0.0909
 3609W        W19226   3.783   7.701  12.757  0.0182 -0.2165  0.1017
 3610W        W19227   3.757   3.245   4.394 -0.2052 -0.1631  0.1555
 3611W        W19228  13.871   9.265   2.330  0.2179  0.1360  0.1062
 3612W        W19229   6.128   7.489   5.315  0.1556 -0.1326  0.0251
 3613W        W19230   9.922   0.861   5.212  0.0432 -0.3217  0.0145
 3614W        W19231   4.136  15.573  11.148 -0.4923  0.2929  0.3281
 3615W        W19232   4.229  17.156   1.451 -0.3167 -0.3452  0.0336
 3616W        W19233   7.108   3.041  13.642 -0.1202  0.2580 -0.1881
 3617W        W19234  11.263   8.246   2.683 -0.2675 -0.1928 -0.1872
 3618W        W19235  14.385  16.532  12.385 -0.1147 -0.0307  0.0912
 3619W        W19236   3.128  17.588  12.021 -0.2663 -0.2619  0.1046
 3620W        W19237   2.552  12.788   2.813 -0.0505  0.1269  0.1029
 3621W        W19238   5.612   6.289  15.040  0.0731 -0.2074 -0.2409
 3622W        W19239   7.605  17.008  13.479 -0.1023  0.2782 -0.0671
 3623W        W19240  13.431   9.452  13.769  0.0099  0.1430 -0.2257
 3624W        W19241  16.122  10.383  10.481 -0.0980  0.2116 -0.0901
 3625W        W19242  15.175   4.578   3.195 -0.1948  0.0652 -0.0645
 3626W        W19243   9.506   9.497   1.677 -0.1593  0.0103 -0.0352
 3627W        W19244  14.900  15.542   3.126  0.0221 -0.2870 -0.2512
 3628W        W19245   6.438   8.787  13.438 -0.2698  0.0498  0.0653
 3629W        W19246   7.765  15.995   4.182 -0.3216  0.1061  0.0146
 3630W        W19247  14.759  15.711   0.183 -0.0160  0.2201 -0.2727
 3631W        W19248  13.883  10.037  15.784  0.1157 -0.2547 -0.1690
 3632W        W19249   2.600   1.966  14.959  0.1646 -0.2161  0.0665
 3633W        W19250  14.478  12.889   0.136  0.0874 -0.0484  0.1188
 3634W        W19251  15.170   0.330  12.415 -0.1104  0.0465  0.0960
 3635W        W19252   6.056   6.408   4.139  0.3332 -0.0152 -0.0959
 3636W        W19253   8.516  12.910   3.818 -0.2092 -0.1639  0.2351
 3637W        W19254   9.940   6.612   0.742  0.0237  0.1885 -0.2436
 3638W        W19255  15.237   8.985  14.118  0.0884 -0.0568 -0.0665
 3639W        W19256   2.592   9.343   1.068 -0.2159  0.0847 -0.1690
 3640W        W19257   1.468   3.996   4.508  0.0510 -0.0641 -0.1966
 3641W        W19258  10.916  11.373   2.225 -0.0856  0.1074 -0.1508
 3642W        W19259   3.404  15.298   5.076 -0.1390 -0.0566  0.0011
 3643W        W19260   1.262  14.390   2.219  0.0409  0.0319  0.5253
 3644W        W19261   1.772  14.354  12.634  0.1004  0.0105 -0.0392
 3645W        W19262   6.994  11.718   0.484  0.1987 -0.2187 -0.0366
 3646W        W19263  10.631  15.082   0.829  0.1450 -0.3307 -0.3976
 3647W        W19264   0.030   1.021  13.901  0.3613 -0.1001 -0.1926
 3648W        W19265  13.314   3.901  13.400  0.3136  0.0365 -0.1247
 3649W        W19266  12.522  11.284  16.586 -0.3506 -0.1516 -0.0897
 3650W        W19267  10.735   6.296  13.436 -0.2181 -0.3056  0.0587
 3651W        W19268  17.553   8.898  12.011  0.2511  0.0246  0.1956
 3652W        W19269   8.313   6.693  13.384 -0.0331 -0.1366 -0.1508
 3653W        W19270   2.093  14.116  13.029 -0.2157 -0.1135 -0.1884
 3654W        W19271   0.874   3.869  13.821 -0.0118  0.1121 -0.1585
 3655W        W19272   7.193   5.932  12.094 -0.0551 -0.1155 -0.1373
 3656W        W19273  14.000   4.419  13.678 -0.1190 -0.1423  0.0289
 3657W        W19274   8.742  17.438   4.595 -0.3417  0.2233  0.2031
 3658W        W19275   6.750  13.928   1.135 -0.1089 -0.1450  0.0140
 3659W        W19276   8.950   8.129   3.730 -0.1678 -0.0603 -0.2120
 3660W        W19277  16.106   7.011   4.701 -0.1177  0.2256  0.0798
 3661W        W19278   1.052  17.098   5.228 -0.0795 -0.2419  0.2460
 3662W        W19279   8.496   8.407  13.145 -0.2097  0.0194  0.0270
 3663W        W19280  17.244  13.624  13.900  0.0068  0.1151  0.1406
 3664W        W19281  14.992   0.540  14.159  0.0593  0.3638 -0.2944
 3665W        W19282  17.714  11.643   5.394 -0.2429  0.2426  0.3538
 3666W        W19283   3.900   8.187   4.595 -0.0389 -0.4527 -0.1007
 3667W        W19284   3.631   5.143   3.544 -0.1503  0.0159  0.4000
 3668W        W19285   0.631   5.135   0.249 -0.2340  0.1256  0.1740
 3669W        W19286   8.932   8.256  15.060  0.0929 -0.2889 -0.2861
 3670W        W19287   7.359  11.714  13.250 -0.0202  0.0075  0.1506
 3671W        W19288   7.290  12.646  12.632  0.0612  0.0334 -0.0778
 3672W        W19289   8.222  11.782   2.235  0.4490  0.0974 -0.1199
 3673W        W19290  13.576   8.436  13.175 -0.0132  0.3293  0.0137
 3674W        W19291   6.896  15.155   5.443 -0.1891  0.0892 -0.0190
 3675W        W19292   1.009  13.594   2.082 -0.1898 -0.1827 -0.1246
 3676W        W19293   5.688  16.542  11.000 -0.1984 -0.0268  0.0305
 3677W        W19294  15.745  13.902   3.846 -0.0799 -0.3231  0.1691
 3678W        W19295  11.444   0.190   4.782  0.1413  0.0722 -0.0186
 3679W        W19296   7.628   8.069  11.943  0.2775 -0.1169  0.0729
 3680W        W19297   2.826  14.226  11.465 -0.0689 -0.1630  0.0808
 3681W        W19298  14.622  15.603   5.095  0.1060 -0.0223 -0.0315
 3682W        W19299   8.556  14.205  11.771  0.1113 -0.0282  0.3064
 3683W        W19300   3.149   6.672  16.371 -0.1709  0.5567 -0.1083
 3684W        W19301  14.315  14.445   1.322  0.0762  0.1878 -0.4185
 3685W        W19302  13.583   7.835   4.727 -0.0504 -0.0686  0.0515
 3686W        W19303   9.524  16.383  11.685  0.0949  0.1005 -0.1385
 3687W        W19304  16.741  14.765   4.920  0.0277  0.0445  0.2989
 3688W        W19305   7.106  10.195  15.972  0.0445  0.1296 -0.0443
 3689W        W19306   6.464  16.597   3.836 -0.0160 -0.0906 -0.0279
 3690W        W19307   0.050  10.921  12.862 -0.1175 -0.1603  0.1977
 3691W        W19308  14.621   0.884  14.099  0.2083 -0.0092  0.2300
 3692W        W19309  12.051   3.970  15.838  0.1183  0.0254 -0.0503
 3693W        W19310  16.951  17.626   2.834  0.1512  0.0387  0.0352
 3694W        W19311  17.467   3.290  15.624  0.1101  0.1821 -0.0381
 3695W        W19312  17.338  15.190  13.191 -0.0215 -0.1728  0.2843
 3696W        W19313  10.342  13.596   4.613 -0.0589  0.2270 -0.1498
 3697W        W19314   5.610   3.489  13.040 -0.0462  0.1110  0.1540
 3698W        W19315   1.386   2.464  15.373  0.1566  0.0599  0.1859
 3699W        W19316   1.882   0.904   2.297  0.0193  0.0948 -0.1621
 3700W        W19317  16.301  13.639   0.812 -0.0976  0.0593 -0.0968
 3701W        W19318  15.432  10.279   4.306 -0.0768  0.1429 -0.3194
 3702W        W19319  10.143  13.413  12.589  0.0874 -0.2418  0.1263
 3703W        W19320   0.877  10.976   4.044  0.0643  0.0387 -0.0430
 3704W        W19321   9.081   6.881  15.647 -0.0373  0.1172  0.0891
 3705W        W19322  15.735  16.240  11.846 -0.1343  0.1027 -0.0845
 3706W        W19323   1.605  17.842   4.665 -0.1653 -0.2765  0.1302
 3707W        W19324   2.474  11.381  16.145 -0.0423  0.3313  0.0333
 3708W        W19325  13.131   0.083  14.678  0.1460  0.0963 -0.0015
 3709W        W19326  15.459   3.510  15.028  0.3316 -0.1891 -0.1677
 3710W        W19327   7.484   3.738  13.290 -0.3461  0.0959 -0.1444
 3711W        W19328   5.878   9.334   4.833  0.0099  0.0172 -0.0927
 3712W        W19329  13.256  11.255   5.443  0.2776 -0.1742  0.1309
 3713W        W19330   9.549  12.286   1.718 -0.0347 -0.0537 -0.2407
 3714W        W19331   1.460  15.208  13.057  0.1191  0.0080  0.0406
 3715W        W19332   5.881  13.158  13.592  0.3654  0.0659 -0.0866
 3716W        W19333  10.631   2.170   2.765  0.0793  0.0094  0.0035
 3717W        W19334   9.403  17.223  12.873  0.0780  0.0949 -0.0982
 3718W        W19335   7.925   3.372  14.257  0.0239 -0.0490  0.0555
 3719W        W19336  11.084   4.540   5.769  0.1522  0.0167  0.0206
 3720W        W19337  11.091  14.243   2.874  0.1575 -0.1139 -0.2210
 3721W        W19338  16.251   2.253  15.214 -0.0147 -0.1241  0.3197
 3722W        W19339   7.234   1.118   2.935 -0.0197  0.0030 -0.0546
 3723W        W19340   5.856   8.707  14.207 -0.4031 -0.0083  0.2398
 3724W        W19341  13.135   9.053  13.727  0.1659  0.3655  0.1108
 3725W        W19342   0.124   2.964  13.977  0.0766  0.4990 -0.2696
 3726W        W19343   0.631  13.552  12.230 -0.0851  0.2322  0.1455
 3727W        W19344   5.239   5.151   4.011 -0.1705  0.0253 -0.0540
 3728W        W19345   9.369   4.957   2.649 -0.3914  0.1867  0.1577
 3729W        W19346  11.723  12.122   2.237 -0.0383  0.2416 -0.2248
 3730W        W19347   5.536   1.825  15.329  0.0440 -0.2302  0.0939
 3731W        W19348   0.611  17.349   1.029 -0.0675  0.0035 -0.1782
 3732W        W19349   5.035   8.566   1.002  0.3652  0.1043 -0.3145
 3733W        W19350  11.574   1.598   3.893 -0.1064  0.0552 -0.3446
 3734W        W19351  17.760  10.382   0.906 -0.2922  0.1851  0.5667
 3735W        W19352   8.812  12.738   5.033  0.0056  0.2874 -0.2163
 3736W        W19353   2.078  16.504  13.390 -0.2185 -0.0088 -0.0377
 3737W        W19354  12.449  13.748   2.907  0.0075 -0.0526 -0.2114
 3738W        W19355   4.589  12.092  11.469  0.1072  0.5909 -0.0506
 3739W        W19356  16.468  14.127  11.306  0.0602  0.0997  0.0467
 3740W        W19357   5.933  10.995   3.678  0.2392  0.3031 -0.1232
 3741W        W19358  13.475   9.910  13.925  0.1581 -0.1244 -0.0814
 3742W        W19359  13.772   2.121  11.292 -0.1246 -0.1082  0.0351
 3743W        W19360   0.102   2.905   0.926  0.1361 -0.0366  0.0475
 3744W        W19361  13.055  14.231  12.202  0.3923 -0.1773  0.2115
 3745W        W19362   9.573  10.537  11.801  0.4013  0.0939 -0.1353
 3746W        W19363   8.646  11.470   3.882  0.2364 -0.1073  0.0378
 3747W        W19364   0.736   1.739   4.755  0.0701  0.0681 -0.1659
 3748W        W19365   3.452  14.903   1.384  0.4356 -0.4449  0.1889
 3749W        W19366   2.571   3.390   1.816 -0.1957 -0.2629  0.2944
 3750W        W19367   0.807  10.370  15.432  0.0472 -0.4257  0.0683
 3751W        W19368   6.061   6.479  16.045 -0.1451 -0.1056  0.0776
 3752W        W19369  15.036   8.820   4.557  0.0286 -0.0784  0.2360
 3753W        W19370  13.136   5.488   1.702 -0.3135 -0.0539  0.0070
 3754W        W19371   3.719   3.095  15.882  0.0398  0.0370 -0.0160
 3755W        W19372   2.012   3.469   0.081  0.0551  0.0173 -0.2620
 3756W        W19373   3.970   1.925  13.141 -0.0152 -0.0136  0.0108
 3757W        W19374  10.424  10.427  12.094  0.0630 -0.2042 -0.0854
 3758W        W19375  17.208  12.194   3.026 -0.0726  0.0144  0.0753
 3759W        W19376  17.400   9.352  12.131 -0.0593  0.1397  0.0949
 3760W        W19377   7.054   5.509   5.525 -0.1402 -0.0018 -0.0657
 3761W        W19378  17.293  16.364   4.173  0.0145 -0.0070  0.0734
 3762W        W19379   8.742   8.786   3.228 -0.1315 -0.0423 -0.1457
 3763W        W19380   6.512   4.325   0.394  0.2920 -0.2341  0.1346
 3764W        W19381   6.430  10.112  13.496  0.0706 -0.0232  0.1385
 3765W        W19382  11.028   6.107   0.460 -0.2052  0.0892  0.0396
 3766W        W19383  10.724   2.946   4.763  0.1103  0.0058  0.1883
 3767W        W19384   2.508  15.164  11.670  0.0026  0.0217  0.1931
 3768W        W19385   4.280   9.038   4.257 -0.1385 -0.0980 -0.1630
 3769W        W19386  13.976   7.298   5.352 -0.1264 -0.0274 -0.1352
 3770W        W19387   8.239  15.996   4.425 -0.2604 -0.3611  0.4671
 3771W        W19388   4.316   0.394   4.817  0.1286 -0.1074  0.0389
 3772W        W19389   1.566   3.394  11.898  0.0889 -0.1963  0.0153
 3773W        W19390  17.797   5.548   2.867 -0.1560 -0.2173  0.3035
 3774W        W19391   3.638   3.195   2.852 -0.1147  0.3897  0.0836
 3775W        W19392  17.023   8.225   0.608 -0.2997  0.2382 -0.1127
 3776W        W19393  17.444  14.328  14.651 -0.3232  0.1198  0.1767
 3777W        W19394  17.112  12.237  11.819  0.4182 -0.2334 -0.1425
 3778W        W19395   5.218  11.551  13.432 -0.0339  0.0008 -0.0868
 3779W        W19396   8.013   5.981  13.905 -0.1445 -0.2156 -0.1915
 3780W        W19397   7.299  17.776   2.173  0.1145 -0.0253 -0.1748
 3781W        W19398  10.985  13.685  14.991  0.3438 -0.1652  0.1850
 3782W        W19399  17.159   9.199   3.200 -0.1650 -0.0595 -0.1422
 3783W        W19400   6.264   4.532   4.063  0.1153  0.2086  0.2843
 3784W        W19401   6.447  14.601  16.733 -0.1416  0.0367 -0.0315
 3785W        W19402   8.470   6.151   4.799 -0.3059 -0.2208 -0.0086
 3786W        W19403   8.366   7.111   2.949  0.1271  0.0865 -0.0552
 3787W        W19404  17.450   7.882   4.549 -0.1074  0.1946  0.3958
 3788W        W19405   7.790   9.388  15.123  0.3178  0.0568 -0.3764
 3789W        W19406   3.267  11.776  13.888  0.2097 -0.1173  0.0993
 3790W        W19407   4.146  15.952   1.228  0.1788 -0.0998 -0.1953
 3791W        W19408  16.832   7.365   5.328 -0.2805 -0.0586 -0.2736
 3792W        W19409   7.224   2.568   3.920 -0.0549  0.3493  0.0119
 3793W        W19410   4.040   1.036   5.289 -0.1841 -0.2679  0.1057
 3794W        W19411   9.372   5.668   2.325  0.0964  0.1060  0.3571
 3795W        W19412  10.566  11.472  14.911 -0.1547 -0.0609  0.0161
 3796W        W19413  10.122   7.832  14.353  0.0468  0.0425  0.1523
 3797W        W19414   5.032   6.912   4.612 -0.2964 -0.0665  0.2390
 3798W        W19415   7.097  15.858  11.875  0.0925 -0.2404  0.1305
 3799W        W19416   1.167   2.973  12.824 -0.0358  0.0229  0.5349
 3800W        W19417   4.106  11.099   2.878 -0.0836 -0.1665  0.1517
 3801W        W19418   0.709  15.178  12.422  0.2553 -0.1794  0.1794
 3802W        W19419  16.376  14.775   0.845 -0.0547 -0.0173 -0.1258
 3803W        W19420  13.437  11.302  13.426 -0.0352 -0.0757 -0.0752
 3804W        W19421  12.757   3.601   1.239 -0.2298 -0.3026  0.0215
 3805W        W19422   2.516  12.595   0.169  0.0284 -0.0220 -0.0377
 3806W        W19423  13.688  13.687  11.648 -0.0917 -0.1644  0.0475
 3807W        W19424  15.408  14.736   3.384  0.0956  0.3850  0.5251
 3808W        W19425   0.692  13.728  13.637 -0.4797 -0.0392  0.0759
 3809W        W19426   3.653   9.331  15.544  0.0139 -0.1186  0.0670
 3810W        W19427  10.551  17.371   6.222  0.2404 -0.0350 -0.0279
 3811W        W19428   4.687   8.142   4.395 -0.0227 -0.3620  0.0265
 3812W        W19429  13.230   4.852  16.200 -0.0172  0.0460  0.0015
 3813W        W19430  14.778  14.226  15.899  0.1958  0.0995  0.2853
 3814W        W19431  12.917   8.186   4.805 -0.0894 -0.1338 -0.0061
 3815W        W19432  12.219  10.195  11.873  0.2828 -0.4214  0.1721
 3816W        W19433   3.272   1.351  12.877 -0.2035 -0.1909 -0.0207
 3817W        W19434   4.665   2.055   1.447  0.0327 -0.0789  0.1205
 3818W        W19435   1.583   1.949  14.621  0.1118 -0.3332 -0.0073
 3819W        W19436   5.091  16.548  12.629 -0.0764  0.0695 -0.2886
 3820W        W19437   3.965   9.269   4.694 -0.1046  0.1838 -0.1128
 3821W        W19438   1.436   3.879  12.818 -0.0393 -0.1200 -0.2195
 3822W        W19439   6.993   3.170   3.066 -0.0126  0.1516 -0.2461
 3823W        W19440  16.417   4.251   2.694  0.0067 -0.2357 -0.1077
 3824W        W19441  12.457  14.423  14.379  0.0604 -0.0107 -0.1479
 3825W        W19442  11.454   8.244  14.359 -0.0431 -0.1969  0.0984
 3826W        W19443   0.530  14.647   5.521 -0.0322 -0.2723  0.0016
 3827W        W19444  12.597   5.185   5.582  0.2189  0.0977  0.2356
 3828W        W19445   5.822   8.770  12.479  0.1465  0.2073 -0.2501
 3829W        W19446   1.142  10.652  13.292  0.0505 -0.0057  0.1151
 3830W        W19447   2.215   4.972   2.195  0.2030 -0.0110 -0.1773
 3831W        W19448   0.874   4.751  11.680 -0.1718 -0.1157  0.1738
 3832W        W19449  14.132  11.441  16.035  0.5115  0.0706  0.0530
 3833W        W19450  10.073  11.717  15.046 -0.0667 -0.3510 -0.0083
 3834W        W19451   4.861  14.649  16.176  0.0624  0.2787 -0.1349
 3835W        W19452   8.880   5.127  15.774  0.0267  0.0198  0.2475
 3836W        W19453  12.950   9.517  13.039  0.3073  0.0257 -0.2813
 3837W        W19454   1.225  12.197   5.092 -0.4090  0.0807  0.2426
 3838W        W19455  11.242   4.918   3.881 -0.3274  0.0222 -0.1645
 3839W        W19456  15.371   8.363   1.729  0.1311  0.0125  0.0281
 3840W        W19457   4.977   1.638  14.837 -0.0913  0.2784  0.1143
 3841W        W19458  10.061   7.764   1.683 -0.0361  0.3307  0.1591
 3842W        W19459  12.918  11.882   1.574 -0.0359  0.0993  0.0423
 3843W        W19460   5.279   2.097   4.217  0.2859 -0.1607 -0.2717
 3844W        W19461   4.176   7.100   0.810  0.2173 -0.0521 -0.2597
 3845W        W19462   0.803  15.027   3.837  0.0571 -0.1609 -0.0680
 3846W        W19463   0.131   9.394  16.676  0.1296  0.1742  0.1376
 3847W        W19464   3.369  11.852  16.408  0.1047 -0.0197 -0.0117
 3848W        W19465   0.310  13.207  14.941 -0.1226 -0.0557  0.0119
 3849W        W19466   6.520  11.076  14.468 -0.0021  0.0885  0.1634
 3850W        W19467   9.611  10.698   3.756  0.0236 -0.3349 -0.0394
 3851W        W19468   3.476  10.823  14.580  0.0212 -0.0911  0.0789
 3852W        W19469  17.388   7.038  15.676 -0.1084  0.4026 -0.0316
 3853W        W19470   7.136  15.700  14.832 -0.1134  0.0134  0.0522
 3854W        W19471   8.729  10.222  14.397  0.1027  0.1846  0.0520
 3855W        W19472  12.005  12.865  14.963  0.0999 -0.0174 -0.3320
 3856W        W19473  14.122  12.035  13.410  0.0266  0.0381  0.0108
 3857W        W19474   9.517  12.350   3.966  0.2223  0.2645  0.4765
 3858W        W19475   7.260   6.345   0.589 -0.3135 -0.1312  0.2028
 3859W        W19476   8.520   8.680   6.360  0.3674  0.1557 -0.0533
 3860W        W19477   8.787   0.818   6.905  0.1868  0.1782 -0.0933
 3861W        W19478  11.683  17.812  16.672 -0.0876  0.1084  0.1791
 3862W        W19479   0.944   2.812   1.472  0.2467 -0.0475 -0.1824
 3863W        W19480  16.247   3.722  16.499  0.1121 -0.2210 -0.0211
 3864W        W19481   0.845   3.856  12.793  0.0747 -0.2504  0.0039
 3865W        W19482   2.825  17.594  11.574 -0.3934 -0.0902 -0.3536
 3866W        W19483  10.339   4.338  11.910 -0.2626 -0.2180  0.3754
 3867W        W19484   8.712  13.105   2.240 -0.0995  0.0460  0.0210
 3868W        W19485  15.132  15.271   2.782 -0.1694  0.1843  0.0055
 3869W        W19486  11.120   6.180   5.640  0.1188 -0.1051  0.0899
 3870W        W19487   3.230   7.316  14.941  0.2670 -0.2168  0.0353
 3871W        W19488   6.993   3.399  15.707  0.1801 -0.1280 -0.0096
 3872W        W19489  15.200  16.797   2.241  0.1041  0.2235  0.0879
 3873W        W19490   6.198   3.008   1.877 -0.1358 -0.0595  0.4655
 3874W        W19491  16.954   1.661   2.492 -0.2051 -0.0020 -0.1584
 3875W        W19492  10.615  10.320   0.600  0.0624 -0.2302 -0.2354
 3876W        W19493  11.345   1.349   5.610 -0.0131  0.0861 -0.1614
 3877W        W19494  10.997   0.295  13.759 -0.3005 -0.0872  0.0505
 3878W        W19495   0.289   1.303  14.416  0.0723 -0.0063 -0.3476
 3879W        W19496   5.421   6.414   1.669 -0.2786 -0.3260  0.0782
 3880W        W19497   4.970   6.694  14.547 -0.0112 -0.0962  0.0815
 3881W        W19498  11.814   2.460   4.850 -0.2493  0.0400 -0.0641
 3882W        W19499   8.562   3.668  15.119 -0.0706  0.0981 -0.0120
 3883W        W19500   1.156   7.963  14.211 -0.1658  0.0686  0.1229
 3884W        W19501   5.073   2.472  14.849  0.1629 -0.1671 -0.1767
 3885W        W19502   8.082   5.114   0.390  0.2063 -0.1197  0.0709
 3886W        W19503  16.405  16.216  13.079 -0.1125 -0.0412  0.0252
 3887W        W19504  13.389   8.564  14.785 -0.1215 -0.0155 -0.1827
 3888W        W19505  14.863   9.224  16.688  0.0807  0.0305 -0.0136
 3889W        W19506  11.464   2.713  15.320 -0.2620  0.0111  0.0272
 3890W        W19507   3.532   7.769   3.151  0.1944  0.0766 -0.0462
 3891W        W19508   8.135   1.393   0.876  0.0397 -0.0477  0.0095
 3892W        W19509   6.384   3.832   0.446 -0.2355  0.2822 -0.0639
 3893W        W19510   9.899  14.281  12.465  0.5247 -0.0697 -0.0058
 3894W        W19511  17.404   9.121  15.160  0.1946  0.1154 -0.2901
 3895W        W19512   9.386  11.993   2.213  0.2192 -0.0257 -0.0799
 3896W        W19513  11.744  11.717   3.239  0.0980  0.0391 -0.0384
 3897W        W19514  15.462  17.116   6.326  0.0334 -0.1138 -0.5346
 3898W        W19515  17.172   8.344   3.685  0.0442  0.0178  0.0600
 3899W        W19516   0.389  14.964  13.283  0.2407 -0.2472  0.2015
 3900W        W19517   9.664  12.134   5.371  0.0496  0.3439  0.4294
 3901W        W19518  13.261   3.750  11.521  0.1222 -0.0404  0.0408
 3902W        W19519   8.964   3.720   0.490 -0.1693  0.4864 -0.3285
 3903W        W19520   6.056  17.449  11.890  0.1273  0.0107 -0.2662
 3904W        W19521  13.901   8.003   2.822  0.1330 -0.1145  0.0931
 3905W        W19522  15.125  11.470   1.150  0.0946  0.0332  0.1674
 3906W        W19523   0.202   0.554  14.881 -0.1469 -0.1407  0.1346
 3907W        W19524   7.234  16.545   4.520 -0.1376  0.0666  0.2001
 3908W        W19525   5.087  17.760   0.270 -0.0340  0.0635  0.2244
 3909W        W19526   0.103  16.168   1.557  0.0533 -0.1480 -0.0350
 3910W        W19527   6.436   3.001   0.573  0.2738 -0.0585  0.0074
 3911W        W19528   8.799  12.979   4.197  0.1784 -0.0154 -0.1684
 3912W        W19529  10.688  15.641  11.721  0.1197 -0.1005  0.0641
 3913W        W19530   3.424   0.184   3.211  0.0689 -0.0923  0.1332
 3914W        W19531   6.691   5.849  16.500 -0.0342  0.0696  0.1140
 3915W        W19532   0.411   0.496   4.127  0.1310  0.3047  0.1918
 3916W        W19533   0.590   0.433   3.575  0.2845  0.1773  0.2621
 3917W        W19534  11.639  12.595  14.506  0.1342  0.0382 -0.0102
 3918W        W19535  12.128   0.343   2.750  0.0862 -0.0811 -0.1134
 3919W        W19536  12.447   1.688   2.857  0.2018 -0.2609 -0.4043
 3920W        W19537   4.811   7.244   4.885  0.0771 -0.1278 -0.1794
 3921W        W19538   4.046  14.982  12.124 -0.2436  0.1896  0.2336
 3922W        W19539  13.375   4.463   3.749 -0.2190  0.1222  0.1987
 3923W        W19540   3.013   5.205  13.727  0.0610  0.0269 -0.1812
 3924W        W19541  15.504   5.393  12.943  0.3208 -0.0445  0.0281
 3925W        W19542  15.404  13.464  14.348  0.1685  0.0267  0.2616
 3926W        W19543   9.439   9.404  12.337  0.1340 -0.0517  0.1242
 3927W        W19544   4.846  10.204  12.872  0.2439  0.3364  0.0683
 3928W        W19545  17.820  11.150  12.091  0.0201 -0.2674  0.1222
 3929W        W19546   4.559   1.755  16.588  0.2893 -0.1160 -0.0296
 3930W        W19547  10.407   6.600  15.735  0.0688  0.0127 -0.2449
 3931W        W19548  17.043   2.935  14.409 -0.0508 -0.2784  0.0739
 3932W        W19549   9.687  14.268  15.698 -0.0025 -0.1115  0.0507
 3933W        W19550   8.349  11.793   4.245  0.1809 -0.0195  0.1728
 3934W        W19551   8.404   4.641  13.320  0.4559  0.0824  0.1065
 3935W        W19552  16.104  11.668   5.025  0.0071  0.1304 -0.1872
 3936W        W19553   7.158  17.147  16.120 -0.0489  0.3721 -0.1051
 3937W        W19554   6.954   9.185  14.282  0.1774 -0.0315 -0.2370
 3938W        W19555  11.713  12.809  13.167 -0.1865 -0.0647  0.3447
 3939W        W19556  17.623   6.565  16.187  0.2205 -0.1657 -0.1084
 3940W        W19557   8.782  12.384   1.247  0.2589  0.0288 -0.0735
 3941W        W19558  11.253   3.857   5.189 -0.0163  0.2846 -0.2307
 3942W        W19559   5.477   9.082   4.749  0.0898 -0.0040  0.1303
 3943W        W19560  15.468  14.787  12.294  0.0816 -0.1862 -0.1157
 3944W        W19561   3.515  13.733   4.587  0.2010 -0.0306  0.0452
 3945W        W19562   1.251   6.067  13.141  0.0335  0.0589  0.1487
 3946W        W19563  10.416   4.504  13.828 -0.1316  0.2215  0.3200
 3947W        W19564  10.031   6.387   5.732  0.2560 -0.2059 -0.0422
 3948W        W19565  14.627  10.896  13.039 -0.2202  0.3295  0.0859
 3949W        W19566   6.889  12.927   3.982  0.0640  0.0607  0.1498
 3950W        W19567  11.572   0.844   0.968  0.2165  0.1553 -0.2197
 3951W        W19568   6.491   3.311   2.263 -0.3480 -0.0385  0.1513
 3952W        W19569   6.983  11.855   3.951 -0.2440  0.0016 -0.0534
 3953W        W19570   6.448   8.343   3.764 -0.1066 -0.1326 -0.1600
 3954W        W19571  14.836   4.585  15.084  0.1525  0.1294  0.0651
 3955W        W19572  14.031   8.729  13.301 -0.1788  0.1172 -0.0126
 3956W        W19573   9.130   7.136   2.611 -0.2284 -0.2283 -0.1709
 3957W        W19574   9.121   2.772  14.958  0.3501  0.1026  0.1067
 3958W        W19575   7.454  13.669   0.306  0.2294  0.3970  0.0722
 3959W        W19576   9.374  10.230  15.456 -0.1946  0.0721  0.1584
 3960W        W19577   4.381   4.586   0.792 -0.0667  0.1881 -0.2046
 3961W        W19578   3.199  15.339   3.613  0.0620 -0.1123 -0.0648
 3962W        W19579  14.930   5.888   3.065 -0.0390 -0.4495 -0.0183
 3963W        W19580  10.346   0.997   1.853 -0.0976  0.3128 -0.3664
 3964W        W19581  12.838   8.482  12.080 -0.5038 -0.1681 -0.0848
 3965W        W19582   3.688  12.763  14.074 -0.1831  0.0380 -0.0751
 3966W        W19583   6.003   5.427   4.244  0.0964 -0.0583 -0.0142
 3967W        W19584   7.571   5.797   2.673  0.1671 -0.1242 -0.1266
 3968W        W19585   6.700   3.137  16.027  0.0999  0.0287 -0.0839
 3969W        W19586   1.362   2.427   3.903  0.0355  0.1394  0.1389
 3970W        W19587  12.079   5.397   5.560  0.2364 -0.1800 -0.0557
 3971W        W19588  11.319   2.630   4.621 -0.0038 -0.2592  0.3244
 3972W        W19589   0.067  13.273   5.460  0.0158  0.3115 -0.4701
 3973W        W19590  17.480  11.214   5.675 -0.3281  0.0622  0.2402
 3974W        W19591   8.701  15.287  12.841  0.0729  0.1753 -0.0945
 3975W        W19592  13.528   8.842   4.026  0.0869 -0.0141  0.0181
 3976W        W19593   3.415   3.645   1.871  0.1774 -0.0778  0.1520
 3977W        W19594  16.786  15.355  11.466  0.2112  0.1684 -0.2912
 3978W        W19595   8.060   2.085   2.069  0.0381 -0.0075  0.0474
 3979W        W19596   9.125  16.308  14.694 -0.0159 -0.2842  0.1437
 3980W        W19597  10.255   0.602   0.844  0.2639 -0.2704  0.0000
 3981W        W19598  13.239  17.701  12.168  0.0162 -0.0487  0.1660
 3982W        W19599   8.080  14.180  15.909 -0.1787  0.1418  0.1033
 3983W        W19600  15.494  14.367  13.185  0.1938  0.3038 -0.0242
 3984W        W19601   0.727  12.972  15.274  0.0277  0.5778  0.0424
 3985W        W19602  15.159   4.235   4.772 -0.1698  0.0241  0.0516
 3986W        W19603   6.213   9.876  11.851 -0.1576 -0.2370 -0.2523
 3987W        W19604  10.829   0.802   3.579  0.2630  0.0056 -0.3269
 3988W        W19605   8.223   7.664   5.473  0.1817  0.4149 -0.0590
 3989W        W19606   7.626   8.306   6.268  0.0089  0.1512  0.2920
 3990W        W19607   2.082  11.075   5.235  0.1219 -0.0527 -0.1388
 3991W        W19608   3.002  10.125   1.267 -0.2032 -0.1808 -0.1337
 3992W        W19609   9.548   2.841   0.902  0.2005  0.0873  0.2394
 3993W        W19610   5.488  17.597  11.440 -0.0166 -0.0316  0.3862
 3994W        W19611   4.618   4.187   2.059 -0.2427  0.0113 -0.0741
 3995W        W19612   4.899  14.979  10.884 -0.0440  0.0388 -0.1557
 3996W        W19613   4.314   8.860   5.748 -0.0319  0.2057 -0.0089
 3997W        W19614   6.415   2.331  14.638 -0.2505  0.3289  0.5055
 3998W        W19615  12.213   4.238   5.109  0.0017  0.1931  0.0405
 3999W        W19616   4.494  15.322  15.795 -0.0492 -0.1762 -0.0610
 4000W        W19617  15.366  15.012  15.422  0.2060  0.0335  0.0188
 4001W        W19618   7.244  13.216   5.798 -0.0049 -0.0197 -0.3915
 4002W        W19619  14.744  15.552  11.163  0.1726  0.1972  0.2208
 4003W        W19620   8.670   2.327  16.583  0.0256  0.0380  0.0236
 4004W        W19621  12.738  15.430   4.147  0.3111  0.0595 -0.2529
 4005W        W19622  13.067   6.850  14.216 -0.1983  0.0680  0.1816
 4006W        W19623  14.739  14.652   1.101  0.0073 -0.1234 -0.4282
 4007W        W19624  16.048  15.130   0.704  0.0320 -0.0280 -0.0474
 4008W        W19625  17.229   2.907  11.610  0.1471  0.3023  0.0610
 4009W        W19626  11.441   5.274   1.497  0.1368 -0.1268 -0.0754
 4010W        W19627   3.911  17.862   6.162  0.0669 -0.0801 -0.2083
 4011W        W19628  14.234   1.268   2.719 -0.1634  0.1389  0.1362
 4012W        W19629   7.588   8.287  15.128 -0.0660 -0.1309 -0.0458
 4013W        W19630   2.405  12.991  15.303  0.0142  0.0199  0.1017
 4014W        W19631   2.106   3.713  11.895 -0.1036  0.0447  0.5314
 4015W        W19632   3.765   9.779  14.368  0.0732 -0.0708 -0.1864
 4016W        W19633  11.256   8.595  16.112  0.0211  0.1647 -0.0937
 4017W        W19634  10.010  11.038  15.871  0.1303 -0.3430 -0.0437
 4018W        W19635   8.327   6.200   2.176  0.0746  0.2218 -0.0086
 4019W        W19636  15.949  16.509  13.292 -0.1149 -0.0201  0.1579
 4020W        W19637  12.250  13.334  13.464 -0.0748  0.0494 -0.1699
 4021W        W19638   8.664   7.953  12.421 -0.2397  0.0629 -0.1665
 4022W        W19639   4.095   7.172  13.328  0.0739 -0.1419 -0.1567
 4023W        W19640   9.000   8.526   6.276 -0.0090 -0.1720 -0.3471
 4024W        W19641  12.883   0.792  15.941  0.1937 -0.0107  0.0743
 4025W        W19642  10.651   9.867  16.287  0.0202 -0.3411 -0.2779
 4026W        W19643   9.515   9.228   5.301 -0.2803 -0.2090  0.1753
 4027W        W19644   1.700   4.460   1.713 -0.1885  0.0549  0.0620
 4028W        W19645  15.603  11.845   4.976 -0.0196 -0.2048 -0.1552
 4029W        W19646   2.250  10.423  16.281 -0.0524  0.0853  0.1968
 4030W        W19647  16.025   7.891   5.372 -0.2174 -0.0750  0.3318
 4031W        W19648   0.530   3.332   3.168 -0.2534 -0.0055 -0.0469
 4032W        W19649   0.102   8.700   3.434 -0.0285  0.0895 -0.0116
 4033W        W19650   1.853  14.189   2.101  0.1302  0.1342  0.2180
 4034W        W19651   4.155  12.000  16.064 -0.1190  0.0995 -0.0342
 4035W        W19652   9.811   1.005   3.969 -0.0866  0.1100  0.0964
 4036W        W19653  12.803   7.625   3.288  0.0410 -0.2088  0.1439
 4037W        W19654   4.474   1.798  10.501  0.0471  0.0176  0.2823
 4038W        W19655   4.476  10.197  12.551  0.0522  0.4158  0.0721
 4039W        W19656   4.231   1.463   5.154  0.1974 -0.0438  0.0987
 4040W        W19657   0.119  16.135   3.500  0.0578 -0.3421  0.4209
 4041W        W19658   0.134  12.403  11.648  0.1250 -0.0964  0.0122
 4042W        W19659   3.361   2.355   3.441 -0.2296  0.2713 -0.5119
 4043W        W19660  14.852   7.684   1.181 -0.3077 -0.1544 -0.1947
 4044W        W19661   2.833   6.389   1.087  0.0987 -0.0102 -0.3326
 4045W        W19662   6.416   6.461  15.267 -0.1199  0.1915  0.2235
 4046W        W19663   4.510  13.988  14.362 -0.0901 -0.1385  0.2320
 4047W        W19664   9.574   2.842  13.290 -0.0876 -0.0900 -0.2785
 4048W        W19665   1.022   3.426  11.959  0.1080  0.0361 -0.0770
 4049W        W19666  11.478   9.134   3.546  0.0021  0.1021 -0.0046
 4050W        W19667   6.080  16.579  12.872  0.1739 -0.4289 -0.0326
 4051W        W19668   7.795   4.857  12.720 -0.0012  0.3452 -0.0699
 4052W        W19669  13.964   6.807   3.764 -0.2173  0.3710 -0.2455
 4053W        W19670  14.256  17.666  13.108  0.3759 -0.0840 -0.0172
 4054W        W19671  13.898   6.333  15.511  0.2826  0.1347 -0.1567
 4055W        W19672  14.080  15.791   5.385  0.0725  0.0422  0.2546
 4056W        W19673   0.144   1.708  13.021  0.1532 -0.2163  0.1674
 4057W        W19674  12.936  14.555   4.594  0.1675  0.0417  0.0074
 4058W        W19675   9.204   3.214   2.745  0.0813 -0.2669 -0.1444
 4059W        W19676   5.913   0.871  14.312 -0.1199  0.1471  0.0770
 4060W        W19677  14.324   4.687   1.711 -0.0108  0.0619  0.0490
 4061W        W19678   6.260   6.661   4.593  0.1977 -0.0841  0.2721
 4062W        W19679  17.299   4.771   0.751 -0.2443  0.2457  0.0809
 4063W        W19680  17.477   7.532   3.482 -0.0263 -0.0879 -0.2176
 4064W        W19681  13.753   0.811  15.611  0.3154 -0.2555  0.1941
 4065W        W19682  16.473  12.454  14.736 -0.1126 -0.0671 -0.2155
 4066W        W19683   2.532   4.666  15.184  0.2422 -0.0330 -0.0566
 4067W        W19684   1.141  13.595  12.122  0.0310  0.0602 -0.1749
 4068W        W19685  14.781   0.365  13.186  0.0618  0.0894  0.1415
 4069W        W19686   0.970   0.031   4.799  0.0129 -0.2211  0.0337
 4070W        W19687   5.948   6.972  12.544 -0.1564  0.1586 -0.0433
 4071W        W19688  10.824  15.546   4.558 -0.1293  0.2016  0.0272
 4072W        W19689  13.328  11.666  15.520  0.1055  0.2367 -0.1989
 4073W        W19690  14.173   7.266   3.556  0.0506  0.0852 -0.1019
 4074W        W19691  11.353  12.578  12.808 -0.0971  0.1236  0.2327
 4075W        W19692   6.773  13.991   2.766  0.0739 -0.2840 -0.2352
 4076W        W19693  12.961   2.073   5.721 -0.2977  0.0317 -0.1680
 4077W        W19694   7.850  12.955   1.963 -0.0069  0.1435 -0.2523
 4078W        W19695  16.548  13.454  15.881  0.0164  0.1204  0.3469
 4079W        W19696  15.141   4.512   0.177 -0.0619 -0.1376 -0.0786
 4080W        W19697   4.360  11.906   2.427  0.2272 -0.2963  0.1945
 4081W        W19698  11.224  14.284   4.692 -0.1929 -0.1848 -0.0350
 4082W        W19699  11.722  17.385  16.430  0.4304  0.1716 -0.0124
 4083W        W19700   1.636   4.227  12.426  0.4028 -0.0027  0.0522
 4084W        W19701  13.005   2.161  16.099 -0.1839  0.1015 -0.2233
 4085W        W19702  11.153   6.648  16.292  0.2801 -0.3063  0.1483
 4086W        W19703  17.644  16.616  11.447  0.2509 -0.0548  0.0423
 4087W        W19704   4.243   3.545  15.948  0.2395 -0.0604 -0.1249
 4088W        W19705   9.535   6.911   3.570 -0.0509 -0.2368 -0.3909
 4089W        W19706   5.436  14.088  16.238 -0.1384  0.0090  0.0539
 4090W        W19707   0.010   3.699  15.741  0.1728 -0.3083  0.6531
 4091W        W19708  13.208   7.100  13.440  0.0780 -0.0840 -0.1365
 4092W        W19709   7.616   7.680  13.534  0.0788  0.0490  0.1100
 4093W        W19710   8.351  15.193   2.178  0.1479 -0.0417 -0.0753
 4094W        W19711  14.279  10.166   1.192 -0.0692  0.4732 -0.2486
 4095W        W19712   4.124   2.593   2.249  0.2197 -0.2496 -0.2130
 4096W        W19713   3.297  17.503   3.306  0.3440  0.2821 -0.0077
 4097W        W19714   0.071   5.447  12.268  0.2032 -0.1857 -0.2654
 4098W        W19715   3.853  14.844  12.576  0.0930  0.0671 -0.1390
 4099W        W19716   0.091   4.616  15.316  0.0554 -0.0630 -0.1789
 4100W        W19717   8.908  11.671   1.656 -0.2606  0.0409 -0.0522
 4101W        W19718   1.715   4.843  15.807 -0.2003 -0.0272  0.2117
 4102W        W19719  12.152  10.374   0.988 -0.4933 -0.0519  0.2509
 4103W        W19720   5.873   8.381  14.623 -0.2272 -0.2529 -0.0267
 4104W        W19721  16.770  15.642   4.057 -0.0657 -0.0105 -0.1402
 4105W        W19722  16.010   1.264  15.444  0.1779 -0.2617  0.3235
 4106W        W19723  16.076   3.860   5.930 -0.1738 -0.0750 -0.0291
 4107W        W19724   1.245  15.111  11.926 -0.2010 -0.0529  0.0212
 4108W        W19725   0.591  17.581   0.487  0.1736 -0.2639  0.2108
 4109W        W19726   5.751  11.850   2.745 -0.1134 -0.1892  0.3398
 4110W        W19727  10.202   7.252  14.171 -0.2853  0.2596  0.0817
 4111W        W19728   9.142   0.203  11.930  0.0119  0.1829 -0.2177
 4112W        W19729   1.952  14.447  14.573  0.3733 -0.0416 -0.5121
 4113W        W19730  13.391  16.503   5.859 -0.1591 -0.0160  0.1027
 4114W        W19731   3.311   5.240  12.802 -0.1335 -0.1053  0.0391
 4115W        W19732   6.627   8.365  14.013 -0.3193  0.0204 -0.0062
 4116W        W19733  16.621  17.296   0.707 -0.1017  0.1470 -0.1061
 4117W        W19734  12.373   8.934   3.557  0.1712  0.2721  0.3302
 4118W        W19735   7.999  13.328  12.239  0.0605  0.1061 -0.0516
 4119W        W19736   2.085   2.522  16.440  0.0128 -0.3579 -0.0581
 4120W        W19737   8.299  16.183  15.200  0.2270  0.0393  0.0222
 4121W        W19738   9.131  14.664  14.482 -0.2924 -0.0703  0.0975
 4122W        W19739   6.729   9.397  16.427  0.1412 -0.1426  0.2221
 4123W        W19740   2.672   8.995   5.909  0.3002 -0.0018  0.0796
 4124W        W19741  12.355   6.428  15.823  0.3288  0.1964 -0.0853
 4125W        W19742   9.473  17.521   3.618 -0.1782 -0.0913 -0.3205
 4126W        W19743   7.077   9.863  13.867 -0.0712 -0.0468 -0.1062
 4127W        W19744  12.091  15.190   5.143 -0.1237 -0.0228 -0.0770
 4128W        W19745   8.120   1.502  16.231 -0.0998 -0.0232 -0.3137
 4129W        W19746  11.432  10.485   3.620 -0.2516  0.0746  0.4155
 4130W        W19747   6.201   1.141  15.288 -0.0477 -0.0270  0.0554
 4131W        W19748   9.274   3.030  11.721  0.0709  0.0029  0.1763
 4132W        W19749  15.156   6.605   4.591 -0.0296  0.0211  0.0962
 4133W        W19750   7.881  10.400   4.068  0.1558 -0.3106  0.2586
 4134W        W19751   5.544  16.223   5.338  0.2095  0.1676 -0.1948
 4135W        W19752   8.139  15.899  13.687  0.0484 -0.0023 -0.2289
 4136W        W19753   3.250   3.701  12.891 -0.0395 -0.1667  0.3212
 4137W        W19754   1.471  16.270   0.669  0.2463 -0.0308 -0.1173
 4138W        W19755   4.814  10.800   6.117  0.0343  0.1056  0.0423
 4139W        W19756   6.089  13.658  15.287  0.1435 -0.0744 -0.2076
 4140W        W19757  14.129  14.470   6.096 -0.1430  0.3260 -0.4096
 4141W        W19758   1.891  16.113   4.922  0.3245 -0.1906  0.2391
 4142W        W19759   9.005  17.623   5.326 -0.0965  0.1432 -0.0412
 4143W        W19760  15.951   0.070   5.558  0.2222 -0.1422 -0.0484
 4144W        W19761   7.330   7.050  12.474  0.0161 -0.1041  0.2439
 4145W        W19762  13.247   9.911   0.032  0.2885  0.0212  0.1935
 4146W        W19763   6.668   1.122   3.500 -0.2514 -0.1523 -0.2005
 4147W        W19764  13.197  14.321  15.915 -0.0411 -0.0335  0.2171
 4148W        W19765   1.217   9.417   4.421  0.0851  0.0009  0.0533
 4149W        W19766   9.072  10.471  13.453 -0.0211  0.0861 -0.1368
 4150W        W19767   5.612  13.804  15.440  0.0659  0.0120  0.0363
 4151W        W19768  12.393  14.714  14.992 -0.0599 -0.0814 -0.0112
 4152W        W19769   6.093  14.890   0.196  0.0512  0.1794 -0.0913
 4153W        W19770  15.669   2.645   1.875  0.1247 -0.0019  0.2058
 4154W        W19771  17.840   5.964   3.179  0.1248 -0.1724  0.0803
 4155W        W19772   4.863   7.005   5.842 -0.2861 -0.2148 -0.0015
 4156W        W19773   9.853   0.794   0.351 -0.0223 -0.0556 -0.3205
 4157W        W19774   5.191   5.337  15.926 -0.0683  0.1590 -0.3529
 4158W        W19775  16.370  17.224   4.416  0.0098  0.1909 -0.1101
 4159W        W19776   2.638   9.963  12.506 -0.1336 -0.0321 -0.2938
 4160W        W19777   1.538   7.852   2.779  0.2098 -0.2450 -0.1329
 4161W        W19778  12.898   5.060  12.873  0.2123 -0.1048 -0.2169
 4162W        W19779   4.486   5.347  15.379 -0.0118  0.1372  0.0180
 4163W        W19780   7.305  11.912  13.741 -0.1753  0.1785 -0.2764
 4164W        W19781   2.001  11.504   3.819  0.0028  0.0814  0.0557
 4165W        W19782  10.292   0.912  10.589 -0.0085 -0.1872 -0.3431
 4166W        W19783   8.819   0.258  14.246  0.3889  0.0318 -0.2811
 4167W        W19784   9.037  15.803  13.673  0.0725  0.0432  0.2110
 4168W        W19785  10.963  17.091  14.976  0.2624 -0.0585 -0.1228
 4169W        W19786   5.473  15.618  14.279 -0.2273 -0.0420  0.0049
 4170W        W19787  17.827   8.794  12.828  0.0886  0.1924  0.4354
 4171W        W19788   0.111   7.464  12.752  0.1928 -0.3501 -0.2243
 4172W        W19789   7.465   4.926   0.348  0.0549 -0.0889  0.0028
 4173W        W19790  13.203   7.449   1.145 -0.1740 -0.1116 -0.1416
 4174W        W19791  10.497   5.461   4.096  0.1933  0.0206 -0.0776
 4175W        W19792   6.529   9.597   0.523 -0.0185  0.2303  0.1350
 4176W        W19793  17.476  14.429  12.165 -0.0130  0.0180 -0.0732
 4177W        W19794   2.016   1.515  14.543 -0.1146 -0.0754 -0.0202
 4178W        W19795   8.997   1.501   4.521  0.2085 -0.3770  0.1453
 4179W        W19796   2.959   5.547  14.128 -0.0962 -0.0795  0.2616
 4180W        W19797   6.562   6.803   2.669 -0.0072 -0.0903  0.1861
 4181W        W19798   4.083   7.992  15.626  0.1601  0.0391  0.1646
 4182W        W19799   8.437  14.670  11.979 -0.0840  0.0993  0.0097
 4183W        W19800   7.615  10.189   2.296  0.0785  0.0997  0.1012
 4184W        W19801  10.763   8.261  12.251 -0.0480 -0.2469 -0.2292
 4185W        W19802  15.469  14.241   0.485  0.3268  0.0137 -0.0163
 4186W        W19803   2.726   2.794   5.875  0.1245 -0.2524  0.2010
 4187W        W19804   7.733   4.025   2.300  0.0726 -0.0721 -0.1684
 4188W        W19805   8.231  17.557   9.980 -0.4273 -0.0165 -0.0828
 4189W        W19806   3.190  13.199   1.445  0.1081 -0.1486  0.2290
 4190W        W19807   0.506   5.204  16.056 -0.0500  0.0786 -0.0201
 4191W        W19808   2.664  14.832   1.181 -0.3339 -0.2979 -0.0606
 4192W        W19809  14.858   9.461   1.629  0.2328  0.2882  0.1648
 4193W        W19810  15.938   0.577  14.975  0.0081  0.1594  0.1358
 4194W        W19811   6.597   2.965   3.278  0.2317  0.1322  0.1710
 4195W        W19812   3.559  16.818  10.747 -0.0333 -0.2185 -0.0494
 4196W        W19813   3.594   8.979  16.599 -0.1020 -0.1608 -0.1727
 4197W        W19814   0.487  11.650   5.385 -0.3612 -0.1324 -0.0213
 4198W        W19815   7.147  11.062  12.586 -0.0087  0.2038 -0.0208
 4199W        W19816   2.018  16.705   3.204  0.0407 -0.0056 -0.0895
 4200W        W19817   9.205   8.125  12.328  0.1089 -0.0950 -0.1562
 4201W        W19818  14.914  12.673  16.805 -0.5937  0.1495  0.1323
 4202W        W19819  11.663   8.845   0.608  0.0197 -0.1134 -0.0686
 4203W        W19820  17.097   7.398   0.984  0.0614 -0.0207 -0.0213
 4204W        W19821   4.211  11.744   0.299  0.0694  0.2320  0.0924
 4205W        W19822  11.087   5.619  15.141 -0.0032  0.0275  0.0384
 4206W        W19823   1.653   5.358  14.828  0.1286 -0.0626  0.1409
 4207W        W19824   9.356  16.722  16.647 -0.0947 -0.1021  0.1866
 4208W        W19825  17.600  14.452  11.646 -0.1239  0.1135 -0.1041
 4209W        W19826   7.054  13.854  15.494 -0.2589 -0.0142  0.1147
 4210W        W19827   8.440  15.166   4.230  0.2151 -0.1059  0.0845
 4211W        W19828   7.591  14.166  16.032  0.0032  0.2778  0.1431
 4212W        W19829  16.291   2.801   1.785 -0.0518 -0.0189  0.0927
 4213W        W19830  11.415  14.849  16.124  0.0405  0.1090 -0.0957
 4214W        W19831  13.571   6.287   4.175 -0.2108  0.0444  0.2735
 4215W        W19832  16.735  17.748   0.037 -0.1881  0.2716 -0.0185
 4216W        W19833   5.176   7.992  14.042  0.1757 -0.3086  0.0636
 4217W        W19834   4.638  17.122   5.255  0.0947 -0.1227  0.2426
 4218W        W19835  10.387   3.293  16.185 -0.3241  0.2930 -0.2937
 4219W        W19836   3.997   4.041  12.326  0.1243 -0.3037  0.1821
 4220W        W19837  17.357   3.952  13.750 -0.3149 -0.0366 -0.0293
 4221W        W19838   4.760  16.626  11.486 -0.1335  0.2883  0.0241
 4222W        W19839   8.825  12.466   0.381 -0.0779  0.0760 -0.2399
 4223W        W19840   0.207   3.531   5.300  0.3309  0.1652 -0.2508
 4224W        W19841   2.395  15.429   1.963  0.0054 -0.0461 -0.0265
 4225W        W19842  13.024  11.779  15.886 -0.2687 -0.0355  0.2595
 4226W        W19843  10.022  15.671   1.644  0.1729  0.4368 -0.0703
 4227W        W19844   7.427   6.181   2.335  0.1188  0.1377 -0.1257
 4228W        W19845  14.338   2.137  14.082 -0.1259 -0.2109  0.0110
 4229W        W19846  10.166   9.081  12.248 -0.0334  0.1423  0.0432
 4230W        W19847   2.566  17.287  10.676 -0.2216  0.2423 -0.3852
 4231W        W19848  15.956  12.530   6.277  0.5753  0.2474  0.0027
 4232W        W19849  15.575   8.943  14.630  0.0041  0.1092  0.2064
 4233W        W19850  11.640  14.263  11.540 -0.1826 -0.0792 -0.1740
 4234W        W19851   6.480  15.168   1.403 -0.0152 -0.1369  0.0034
 4235W        W19852   8.800   7.740   4.114 -0.2559 -0.3603 -0.0998
 4236W        W19853   5.567  16.368   2.087  0.0584  0.0319 -0.2697
 4237W        W19854   6.065   3.200   3.954 -0.0131 -0.0023 -0.0855
 4238W        W19855   8.180   4.644  11.931 -0.2633 -0.1587  0.0712
 4239W        W19856  10.439  13.407  14.219 -0.1053 -0.1237  0.0107
 4240W        W19857   0.398  11.938  13.120 -0.2291 -0.1483  0.4469
 4241W        W19858   8.502   0.300  15.427  0.1285 -0.2962  0.3978
 4242W        W19859  11.304  15.981  15.499  0.3860  0.1404  0.0256
 4243W        W19860   5.975  12.387  12.018  0.0981 -0.3158  0.1820
 4244W        W19861  17.343  13.121  10.389 -0.2185  0.0073 -0.1822
 4245W        W19862   4.085   1.113  11.946  0.1085  0.0882  0.1410
 4246W        W19863   3.915   7.723   0.218 -0.0563 -0.0636  0.2785
 4247W        W19864  12.517  13.384  14.379  0.1641  0.0912 -0.1226
 4248W        W19865   3.675   0.562   5.131 -0.0541 -0.2501  0.2099
 4249W        W19866   6.115   8.483  13.830 -0.2013 -0.1055  0.1349
 4250W        W19867   6.970  12.990  15.265 -0.2139  0.0691  0.0348
 4251W        W19868  17.153   7.556  14.363 -0.0858 -0.0706 -0.1714
 4252W        W19869   6.271   1.628   2.561  0.0098  0.2745 -0.1077
 4253W        W19870   7.138  13.163  12.807 -0.0035 -0.2367  0.1646
 4254W        W19871  10.020   2.931  14.679  0.0473 -0.1870 -0.1091
 4255W        W19872  14.564   6.515  13.063  0.0421 -0.1896 -0.2922
 4256W        W19873   2.305   6.620   1.857 -0.1648  0.0132 -0.1812
 4257W        W19874   0.247  16.341   3.040  0.0449 -0.0271  0.0914
 4258W        W19875   7.962   7.769  12.670  0.0693  0.1202  0.0008
 4259W        W19876   7.331   9.475   5.511  0.0247 -0.1674 -0.2206
 4260W        W19877   6.178   8.988   3.214  0.0277 -0.0160  0.0522
 4261W        W19878   9.107  13.545   2.082 -0.1497 -0.0779 -0.2080
 4262W        W19879  12.462   9.146   1.555  0.4553 -0.2246  0.2056
 4263W        W19880  16.516   5.716   1.877 -0.2932 -0.1709  0.0529
 4264W        W19881  12.372   7.911  14.126 -0.0851  0.3041  0.1988
 4265W        W19882   4.695   5.430   3.318 -0.1325 -0.1177  0.0440
 4266W        W19883   3.205   3.910   2.259  0.1267 -0.1526  0.0794
 4267W        W19884  15.469  15.816  11.948 -0.0469 -0.1260 -0.1525
 4268W        W19885   0.050   2.513   3.036  0.0681 -0.0533 -0.1825
 4269W        W19886   1.501   2.072   1.332  0.0743 -0.0981  0.0958
 4270W        W19887   2.578   8.022   3.207  0.0102 -0.0041 -0.2240
 4271W        W19888   3.897  16.382   5.148 -0.1264 -0.0691  0.1439
 4272W        W19889  14.035  10.029   4.466  0.2067  0.0674 -0.0275
 4273W        W19890   9.612   0.202  12.260 -0.0060  0.1904  0.1308
 4274W        W19891  10.683  16.340  15.528  0.0755 -0.0988 -0.0768
 4275W        W19892   2.040  14.115   4.799 -0.1079  0.0163 -0.1892
 4276W        W19893  11.557  17.167   3.994 -0.1244 -0.0319 -0.0005
 4277W        W19894   9.165  12.852  13.532  0.4424 -0.1522 -0.1998
 4278W        W19895  11.576   6.619  13.158  0.1769  0.1935 -0.0314
 4279W        W19896  15.724  12.507   5.287 -0.1691 -0.1518 -0.1790
 4280W        W19897  14.963  13.089  13.571  0.2869  0.2705  0.2866
 4281W        W19898   6.598  10.091  14.723  0.3727  0.1608  0.0043
 4282W        W19899   9.188   1.835  13.980  0.1619 -0.1447 -0.1561
 4283W        W19900  17.676  10.436  13.369  0.1498  0.0509 -0.0273
 4284W        W19901  16.003   2.102  11.857 -0.1017  0.0409 -0.2115
 4285W        W19902  16.442  10.590  12.999 -0.2752  0.0184  0.0371
 4286W        W19903  11.287   4.796   1.434 -0.3342  0.1367  0.0233
 4287W        W19904   7.044  11.112  16.622  0.0144 -0.1399 -0.0426
 4288W        W19905  15.684   3.274   4.072 -0.0624 -0.2007  0.0718
 4289W        W19906   3.861   0.825   2.520  0.2090  0.2275 -0.1901
 4290W        W19907  13.023  13.392  14.309  0.0885 -0.1886  0.1966
 4291W        W19908  10.393  16.669   5.102  0.1866  0.1253  0.0628
 4292W        W19909   6.630   4.745   3.821 -0.0047  0.1033  0.0834
 4293W        W19910  14.847   8.884   0.819 -0.0817  0.0281 -0.2073
 4294W        W19911  16.153  14.144  16.660  0.2492  0.1821  0.1578
 4295W        W19912   4.696   9.104  14.933  0.0244 -0.0482  0.0818
 4296W        W19913   3.790   4.314  15.430  0.0397  0.1197 -0.0318
 4297W        W19914  15.740   7.935   1.639 -0.2423 -0.0589  0.2128
 4298W        W19915  16.203  12.712   3.411 -0.1208 -0.2089  0.0384
 4299W        W19916   1.788  13.897   1.639  0.1717  0.4232 -0.1768
 4300W        W19917  14.862   8.444   1.484  0.0682  0.1094 -0.0767
 4301W        W19918  14.965  15.568   4.567  0.1617  0.0975 -0.0644
 4302W        W19919   3.982   2.664   3.773  0.1199 -0.0490 -0.3636
 4303W        W19920  13.580   3.588   1.831 -0.2202  0.1965  0.0618
 4304W        W19921   1.475  12.683  14.496 -0.3146 -0.0263  0.0702
 4305W        W19922  13.606  10.018   2.479  0.1923 -0.1113 -0.0833
 4306W        W19923  10.995   7.895   2.383 -0.2461  0.2214 -0.0213
 4307W        W19924  11.754  14.329   2.403  0.1959  0.1330 -0.0136
 4308W        W19925   2.203  13.884   3.260  0.1528  0.0642  0.3622
 4309W        W19926  11.639   8.550   0.179 -0.0434 -0.4032  0.0216
 4310W        W19927   5.973  16.258   3.658 -0.4833 -0.0563 -0.0199
 4311W        W19928   1.385   7.709   5.322 -0.0260  0.0797 -0.0676
 4312W        W19929   6.022   8.557   5.212  0.2834  0.0896  0.0430
 4313W        W19930   6.917  13.887  13.591 -0.0679 -0.0484 -0.0470
 4314W        W19931   6.963  15.772   4.742 -0.0696  0.1115 -0.2404
 4315W        W19932  12.864   2.589  13.651 -0.0848  0.3868  0.1008
 4316W        W19933  10.173  14.880  13.009 -0.2059  0.3130  0.2784
 4317W        W19934   8.788   2.683  13.975  0.0171 -0.2100  0.1585
 4318W        W19935   3.946  10.648   1.148  0.3036 -0.1191  0.1815
 4319W        W19936  11.846  11.837  15.243  0.0496 -0.0808 -0.2418
 4320W        W19937   1.195  16.430   5.794 -0.0373 -0.1502 -0.1249
 4321W        W19938  15.681   7.151   2.897 -0.0627 -0.1341 -0.1675
 4322W        W19939   3.305   3.451   4.239 -0.1835  0.3358 -0.1461
 4323W        W19940  16.489   7.817   4.007  0.0097  0.0361  0.2412
 4324W        W19941   3.663   6.637  16.394 -0.0129  0.0413  0.1606
 4325W        W19942  14.440  10.302  12.539  0.0257 -0.0209  0.3073
 4326W        W19943   5.880   1.261   2.382 -0.0653  0.1369 -0.2860
 4327W        W19944   7.199  17.480   3.295 -0.4071  0.2175 -0.4215
 4328W        W19945   3.803  16.667  13.443 -0.4126  0.2238 -0.0731
 4329W        W19946  11.639   3.464   4.497 -0.0439 -0.1983  0.0468
 4330W        W19947   7.403   0.598  14.329 -0.0713  0.1050 -0.0354
 4331W        W19948   0.542  13.904  15.491 -0.2752 -0.3664 -0.2202
 4332W        W19949   7.150  11.382  15.119 -0.1859 -0.0040 -0.0231
 4333W        W19950   9.047   3.726  14.965  0.1364 -0.1872  0.1174
 4334W        W19951  14.078   0.849  12.855 -0.2333 -0.2053 -0.0054
 4335W        W19952   5.964   1.145  10.658  0.1147  0.2381  0.2692
 4336W        W19953  12.370   7.758  13.632 -0.1587 -0.1743 -0.2198
 4337W        W19954   7.113  11.748   1.583 -0.1373  0.1900  0.1006
 4338W        W19955  17.481  12.670   4.330  0.3985 -0.2384  0.2908
 4339W        W19956  17.022   8.781   0.693  0.2337  0.0723  0.1154
 4340W        W19957   1.220   6.140  13.993  0.3127  0.0265  0.3148
 4341W        W19958  11.290  16.923   5.549  0.2374 -0.1833  0.2077
 4342W        W19959  15.287  17.479  15.832  0.0635  0.1596  0.1909
 4343W        W19960   5.423   6.670   2.143 -0.0999  0.0852 -0.0895
 4344W        W19961   4.405   8.568   4.356 -0.0753  0.1538 -0.1581
 4345W        W19962  13.350   8.133   0.266  0.0095  0.1711 -0.2674
 4346W        W19963  15.369  12.616  14.662 -0.1288 -0.0682 -0.1210
 4347W        W19964  13.200  11.636  16.404  0.1564 -0.1012 -0.5045
 4348W        W19965   0.834   7.546   3.354  0.3119  0.3245  0.1830
 4349W        W19966   9.290   4.263   4.854  0.0452 -0.1642  0.0306
 4350W        W19967  10.197  14.599   0.100  0.1261  0.1269  0.2766
 4351W        W19968   9.659  15.239  15.808 -0.1303  0.2536 -0.0806
 4352W        W19969  17.549   9.793   1.453  0.2202  0.1703 -0.2549
 4353W        W19970   5.800   9.038  15.931  0.1774 -0.1112  0.1894
 4354W        W19971   4.470   9.552  11.474 -0.2368  0.0110  0.1054
 4355W        W19972   4.493   6.879   3.139 -0.0408  0.1450 -0.5109
 4356W        W19973   5.029   4.087   0.512  0.1979 -0.1134  0.1959
 4357W        W19974   6.140  16.058  12.893  0.0455 -0.1546  0.0251
 4358W        W19975   1.557  17.796  12.797  0.1734 -0.4088  0.1728
 4359W        W19976  14.895  13.454  15.493  0.0470 -0.1384  0.0528
 4360W        W19977   8.135   1.089  10.259  0.2647 -0.2875  0.2164
 4361W        W19978  17.395   5.711   2.473 -0.1693  0.1524  0.0977
 4362W        W19979   7.975   2.313   5.688  0.0711 -0.0409 -0.2935
 4363W        W19980  13.719   0.182  10.518 -0.0501  0.2148  0.0872
 4364W        W19981   6.809  11.179  13.546 -0.2508  0.0092  0.1163
 4365W        W19982   8.099  16.252   2.491  0.0211 -0.1122  0.1105
 4366W        W19983  11.416   4.069   0.621 -0.0600  0.1445  0.1925
 4367W        W19984   0.733  13.658   2.662  0.0509  0.0431  0.2173
 4368W        W19985  15.455   4.592  11.965  0.1843  0.1159 -0.3214
 4369W        W19986  15.549  13.032   0.454  0.2481 -0.0394  0.0322
 4370W        W19987   9.956   1.824   4.810 -0.0965 -0.0214  0.0228
 4371W        W19988  17.760   6.089   3.686  0.2811  0.0774 -0.1524
 4372W        W19989  17.140  12.165   1.708  0.0681  0.3338  0.0913
 4373W        W19990   1.586   0.441  13.976  0.1955 -0.2184 -0.1761
 4374W        W19991  11.734  11.931   2.747  0.1780 -0.0147  0.1536
 4375W        W19992  14.429   5.099   1.285 -0.0334  0.1055 -0.0143
 4376W        W19993   9.184   0.310  15.876 -0.0745  0.0716 -0.2474
 4377W        W19994  17.371  11.289  12.302 -0.4558 -0.1679  0.4400
 4378W        W19995  10.729   2.304  16.252 -0.1026 -0.0937  0.1563
 4379W        W19996   2.963   5.507  16.665  0.2305 -0.0571  0.1295
 4380W        W19997  15.275   8.058  16.001 -0.1202  0.0513 -0.0423
 4381W        W19998  15.662   7.580   2.256  0.0891 -0.3197 -0.1252
 4382W        W19999   0.461   3.510   0.912 -0.0770  0.2563  0.2313
 4383W        W20000  11.072  13.746   3.069 -0.0935  0.0311 -0.0533
 4384W        W20001  10.995   4.497  13.092  0.1491 -0.1057 -0.0590
 4385W        W20002   7.025   8.218  12.181 -0.0531 -0.1439 -0.1347
 4386W        W20003  11.555  17.375  13.853 -0.1218 -0.1115  0.0188
 4387W        W20004  10.051  16.941  12.234  0.1510  0.3633 -0.2839
 4388W        W20005   5.265   0.076  11.202  0.2359  0.1485  0.3171
 4389W        W20006   5.578   1.703   4.645  0.1568 -0.0651  0.3848
 4390W        W20007   1.137   2.251   1.668 -0.1265 -0.1341  0.2152
 4391W        W20008  13.989  12.109   0.373  0.1480  0.0575 -0.0672
 4392W        W20009  13.729   3.054   0.060 -0.1339  0.4616 -0.0798
 4393W        W20010  13.546  13.433   0.393  0.2326  0.1312 -0.3051
 4394W        W20011   7.820  15.720  14.033 -0.0917  0.1166  0.2022
 4395W        W20012   5.716  15.857   3.835 -0.2507 -0.0062 -0.2147
 4396W        W20013   1.517   1.754  13.357  0.2782 -0.0127  0.1617
 4397W        W20014   6.449   7.627   0.874 -0.1002 -0.3075  0.0916
 4398W        W20015  14.709  15.660   2.435 -0.1508 -0.1693  0.0544
 4399W        W20016  13.904   3.220  14.628  0.0886  0.0053  0.0029
 4400W        W20017   0.952  12.510  14.652 -0.0128 -0.0474  0.2666
 4401W        W20018  16.874  16.477  12.641 -0.0140  0.0458 -0.0098
 4402W        W20019  15.209  13.872   3.341 -0.1700  0.2366  0.1680
 4403W        W20020  10.486  15.479   2.773 -0.0161  0.0302 -0.3651
 4404W        W20021  12.072  10.939  14.008  0.2839 -0.2216  0.0340
 4405W        W20022  10.847  15.181  12.856  0.0257  0.0300 -0.1476
 4406W        W20023  14.326  13.933   0.550 -0.1157  0.0064  0.0026
 4407W        W20024   1.463   4.419  12.007 -0.0678  0.1844 -0.0913
 4408W        W20025   4.239   1.169  12.458  0.1110 -0.1792 -0.0556
 4409W        W20026   0.572   8.396  16.123  0.1514  0.0300  0.2161
 4410W        W20027  10.805  13.657  13.934  0.2655  0.3297 -0.2387
 4411W        W20028   0.912   4.392  15.580  0.2244  0.1983  0.1856
 4412W        W20029   2.205   6.004   2.149 -0.1402  0.3281 -0.2125
 4413W        W20030   7.707   0.877  15.472 -0.1853  0.0211 -0.0944
 4414W        W20031   1.009  10.693  15.789 -0.0400 -0.0780  0.0141
 4415W        W20032  11.939   4.429   6.429 -0.0282  0.0531  0.0308
 4416W        W20033   8.054  13.709  11.867 -0.1876  0.3920  0.0188
 4417W        W20034  13.402  17.769   4.567 -0.1238  0.0407 -0.1596
 4418W        W20035  14.589   0.875   2.899 -0.1776 -0.0214  0.1672
 4419W        W20036   6.573  12.553   1.325  0.0309  0.4909 -0.1440
 4420W        W20037   5.569   0.444  15.047 -0.1359  0.2327 -0.1251
 4421W        W20038   6.902   9.791  16.713  0.0366  0.0882 -0.1030
 4422W        W20039  10.761   5.369  13.397 -0.0730  0.0700  0.2268
 4423W        W20040  12.128  10.095  15.107  0.3731  0.0445 -0.3224
 4424W        W20041  14.054  16.691  15.485 -0.0941 -0.0168 -0.1254
 4425W        W20042  13.962  11.066  10.672  0.0348 -0.1000  0.2205
 4426W        W20043  13.715   0.614  12.490 -0.1523 -0.1056 -0.1629
 4427W        W20044  16.782   4.369  11.984  0.3533 -0.1694 -0.1520
 4428W        W20045  10.765  13.004  14.079  0.1449  0.2325  0.0180
 4429W        W20046   7.423  16.390   4.043 -0.0362  0.2113  0.3758
 4430W        W20047   4.081   3.932  16.328 -0.0514  0.1079 -0.1065
 4431W        W20048   1.397  14.057  13.218  0.1875 -0.1014 -0.4164
 4432W        W20049  13.484   5.822   2.557  0.0016 -0.0321 -0.1369
 4433W        W20050   4.024   1.576   3.103 -0.0912  0.0327 -0.0275
 4434W        W20051  11.126  16.099   4.647 -0.1579 -0.0233 -0.2032
 4435W        W20052   0.068  15.752  12.660  0.1669  0.0312 -0.2339
 4436W        W20053  14.381   0.870   2.383  0.0042 -0.0669  0.1866
 4437W        W20054   9.175   5.982   1.970  0.0533  0.2557  0.2285
 4438W        W20055  11.914   2.816   2.381  0.1444 -0.1529 -0.2670
 4439W        W20056   1.862  11.256  13.201  0.0612  0.2519 -0.0496
 4440W        W20057  10.190   8.229   3.215  0.0986  0.1977  0.0977
 4441W        W20058   9.826   5.762  14.289 -0.0121  0.3585  0.1245
 4442W        W20059  13.785  11.977   3.352 -0.0216 -0.0079  0.1307
 4443W        W20060  13.602  10.013  12.015 -0.2296  0.0905 -0.0232
 4444W        W20061  10.319  14.508   5.664 -0.2268 -0.0732  0.0080
 4445W        W20062  16.454  13.205  12.450 -0.2930 -0.0175  0.2998
 4446W        W20063   8.182  15.990  16.684 -0.0447 -0.2707  0.1984
 4447W        W20064   5.175  11.478  15.290 -0.2007  0.3573  0.1888
 4448W        W20065   6.148   8.705  16.116 -0.0160  0.1572 -0.3237
 4449W        W20066   4.885   6.431   0.854  0.1034  0.1926 -0.1440
 4450W        W20067  13.826  11.608   4.505  0.1429 -0.0885  0.0288
 4451W        W20068  11.528  11.196   0.087 -0.1005  0.1853 -0.1732
 4452W        W20069   6.783  13.610   1.772 -0.1595  0.3176 -0.3770
 4453W        W20070   8.594   7.655   2.149 -0.0769  0.0993  0.1390
 4454W        W20071   1.637   9.039   3.193  0.3620 -0.2723 -0.0483
 4455W        W20072   6.322   4.528   2.671 -0.1246 -0.1358 -0.0108
 4456W        W20073   4.086   2.936  15.177 -0.2506 -0.0557 -0.2586
 4457W        W20074  11.367  10.446  13.908  0.0497 -0.0897  0.0584
 4458W        W20075  17.608  16.951  14.241  0.1857 -0.3351  0.0995
 4459W        W20076   8.337   7.037  14.582 -0.2206 -0.2559  0.3158
 4460W        W20077   3.585   5.411   4.499 -0.0562  0.0547  0.0477
 4461W        W20078  15.127   1.910  14.292 -0.1031 -0.1086  0.0484
 4462W        W20079  11.704   7.744   6.128 -0.3094  0.0885  0.1115
 4463W        W20080  11.975   2.211   1.025 -0.0811 -0.0257 -0.0434
 4464W        W20081   8.117  11.325  12.949  0.0177  0.1212 -0.0618
 4465W        W20082   3.388   5.589   5.877  0.2773  0.1768  0.2112
 4466W        W20083   9.921   8.356   4.045  0.4454  0.0968  0.0487
 4467W        W20084  12.300   1.616   2.368  0.1983 -0.1634 -0.3226
 4468W        W20085   2.050  11.382   1.364 -0.2708 -0.4582 -0.1104
 4469W        W20086   5.625  12.240  14.435  0.2805 -0.0165  0.2200
 4470W        W20087  11.792   2.505   0.373  0.3307  0.1476 -0.0184
 4471W        W20088  15.965  10.979  14.146 -0.0406 -0.1092  0.2070
 4472W        W20089   6.914   5.430   3.413 -0.1625  0.0013  0.2623
 4473W        W20090   6.509  12.982  10.163  0.0612  0.2381 -0.0891
 4474W        W20091  12.584  14.246  14.878 -0.1026  0.0267 -0.1811
 4475W        W20092  15.113   6.300   5.376  0.0625  0.2489 -0.1556
 4476W        W20093   3.238   6.931  13.870 -0.0828  0.0182 -0.1534
 4477W        W20094   7.560  11.207  12.985  0.1979  0.0632 -0.1097
 4478W        W20095   7.391   4.131  14.898  0.1298  0.0647 -0.1036
 4479W        W20096  10.617  13.875  16.692  0.1212  0.1951 -0.1077
 4480W        W20097  10.653   9.455  15.983 -0.0872  0.1601  0.2547
 4481W        W20098   4.535  15.766   1.492  0.0611  0.0192 -0.1402
 4482W        W20099  10.433  13.632   5.533  0.0513 -0.2002  0.2303
 4483W        W20100   6.385   9.012  11.120 -0.0270 -0.0886 -0.1111
 4484W        W20101  11.459   3.813  15.937 -0.1174  0.0209 -0.3233
 4485W        W20102  12.754  11.794  13.314  0.0645 -0.0420  0.3667
 4486W        W20103  12.517  14.342  13.341 -0.0231 -0.3624 -0.0203
 4487W        W20104  15.005   0.763   2.329 -0.0288 -0.1788 -0.0055
 4488W        W20105   5.167   6.707  12.154 -0.0198  0.0132  0.2349
 4489W        W20106   6.365   7.647   1.492  0.0919  0.3129  0.4100
 4490W        W20107   6.520   1.917   3.310 -0.0786  0.1779  0.0166
 4491W        W20108  11.057  12.395   2.107 -0.1321  0.5032 -0.2472
 4492W        W20109  10.631   9.933  13.842  0.2386  0.4800  0.3054
 4493W        W20110   9.430   8.183  12.983  0.1361  0.1063  0.1055
 4494W        W20111   9.914  13.161  16.120  0.0209 -0.1202 -0.2349
 4495W        W20112  10.640  11.028  14.677  0.2760  0.0966 -0.1872
 4496W        W20113  10.040   2.981  12.336 -0.0719  0.1540 -0.0116
 4497W        W20114  13.714  15.204   3.409  0.2783 -0.0486 -0.0414
 4498W        W20115  10.113   7.334   4.652 -0.0476 -0.1086 -0.1097
 4499W        W20116  11.538   8.639   4.976 -0.0361  0.2144 -0.1339
 4500W        W20117   1.788   1.679   1.581 -0.0394  0.0018  0.1229
 4501W        W20118   8.449  10.106  12.494 -0.0117 -0.0353 -0.1721
 4502W        W20119  10.301  17.225  14.290  0.5081  0.0687 -0.0980
 4503W        W20120   0.538   4.802  12.803 -0.0312 -0.1540  0.0657
 4504W        W20121   0.759  11.480  11.935  0.3025 -0.4146  0.1310
 4505W        W20122  13.671  15.437  12.005 -0.0015 -0.0353 -0.1323
 4506W        W20123  14.451   1.459   0.206 -0.0005  0.2025  0.0295
 4507W        W20124  16.856   4.301  13.034 -0.2119 -0.0392  0.0937
 4508W        W20125  10.933   6.847  14.644 -0.0049 -0.0449  0.1824
 4509W        W20126   7.161   4.293  15.823  0.1969  0.0098  0.3591
 4510W        W20127   9.274  14.941   2.928  0.0124 -0.0013 -0.2970
 4511W        W20128   0.936   0.925   1.328  0.0244  0.2470  0.1930
 4512W        W20129   3.724  17.361   3.740  0.3069 -0.0037  0.2272
 4513W        W20130   0.471   3.711   2.448  0.0112 -0.2105 -0.0226
 4514W        W20131  16.713  14.047   1.051 -0.2699  0.4509 -0.0915
 4515W        W20132  16.514  17.322   3.575  0.1837 -0.1451  0.3106
 4516W        W20133  17.715   9.907   3.427  0.2281  0.2309  0.0203
 4517W        W20134   6.579   3.717   1.308  0.2200  0.1326  0.0221
 4518W        W20135  11.511  16.034   0.110  0.0062  0.1239  0.1668
 4519W        W20136   3.211   5.447   0.803  0.0543 -0.0338  0.0553
 4520W        W20137  13.371   7.323   4.902 -0.1037 -0.2862  0.0422
 4521W        W20138  16.053  11.546  13.919 -0.1907  0.1219 -0.2086
 4522W        W20139  12.201  11.937   2.128 -0.0674 -0.1609  0.0975
 4523W        W20140   8.853  15.446  11.397 -0.2775 -0.0924  0.3145
 4524W        W20141  16.809  15.270  13.069  0.1171  0.0590 -0.3679
 4525W        W20142  11.617  10.015  13.610  0.2463  0.1944  0.1690
 4526W        W20143   7.152   0.114   2.822  0.2787  0.3631  0.2064
 4527W        W20144   2.649   5.973  11.782 -0.1761 -0.1651 -0.4203
 4528W        W20145   4.203  13.319   0.544  0.0330  0.0763 -0.0155
 4529W        W20146   8.906  15.173  14.356  0.1161  0.2862 -0.0968
 4530W        W20147   8.815   5.798   0.428 -0.2355 -0.0267  0.0041
 4531W        W20148   2.323   9.086  15.726  0.2725  0.2922 -0.0952
 4532W        W20149   2.713   8.061  13.781  0.1599 -0.1573  0.2185
 4533W        W20150  11.526   9.443  12.078 -0.4889 -0.1972  0.1881
 4534W        W20151   5.685  11.087   4.139 -0.1532 -0.0282  0.2335
 4535W        W20152  13.865  11.013   0.759 -0.1278 -0.1778  0.3036
 4536W        W20153   0.994  14.101   1.866 -0.2459  0.0781 -0.1025
 4537W        W20154   9.642   2.879  15.106 -0.2491  0.0088  0.1548
 4538W        W20155   2.328  10.520  14.765  0.0575  0.2430 -0.0109
 4539W        W20156   3.193   1.592   0.991 -0.0592  0.1612  0.1253
 4540W        W20157   3.427  16.356   5.180  0.0433 -0.1831  0.0596
 4541W        W20158   5.541  15.690  15.289  0.1697  0.0945  0.2395
 4542W        W20159  10.298   1.649   2.046  0.2139  0.2145  0.2627
 4543W        W20160   4.569   6.008   4.688 -0.0297 -0.2271  0.3550
 4544W        W20161  11.788   5.863   4.067  0.2284 -0.1949 -0.1443
 4545W        W20162   8.560  12.735  16.003 -0.1304 -0.1773  0.0757
 4546W        W20163   3.478   2.408   5.455 -0.1788  0.0292  0.0902
 4547W        W20164  12.108  10.090  12.361  0.2137 -0.0687 -0.0495
 4548W        W20165  11.395  16.986  13.505 -0.1958 -0.0868  0.2316
 4549W        W20166   0.043  11.120  15.949 -0.1760  0.2128  0.1021
 4550W        W20167  13.304   9.771  12.823 -0.0519 -0.0803  0.0044
 4551W        W20168  15.619   5.460   0.691  0.2418  0.2292  0.0759
 4552W        W20169  12.061  13.398   2.406 -0.0664 -0.3057 -0.0075
 4553W        W20170  16.565   5.495   4.666  0.0433 -0.0965 -0.0771
 4554W        W20171  13.495   1.849   4.359 -0.0265  0.0465 -0.0909
 4555W        W20172  14.250   9.603  10.981 -0.0059  0.2219 -0.0805
 4556W        W20173   4.919   2.712   3.861  0.1335  0.0756 -0.2055
 4557W        W20174   9.501  11.918   0.186  0.1029 -0.3823 -0.3456
 4558W        W20175  15.479   0.636   2.643  0.1191  0.2839 -0.0697
 4559W        W20176  14.057  13.306  14.384  0.1958  0.1271  0.1045
 4560W        W20177   1.504   2.087  12.943 -0.1866  0.0612  0.0757
 4561W        W20178  14.834   8.934  13.216  0.1016  0.1144 -0.0431
 4562W        W20179   6.601  13.625  14.699 -0.0911  0.2788  0.0814
 4563W        W20180   2.459  17.842   5.084  0.0789  0.2519 -0.1610
 4564W        W20181  11.257  12.779  11.834  0.0688  0.1670 -0.0667
 4565W        W20182   6.438  16.015  16.801 -0.0193  0.0177 -0.0608
 4566W        W20183   0.638   7.105   4.717 -0.0251 -0.2489  0.0251
 4567W        W20184  17.182   2.377  11.821  0.2760  0.2338 -0.2459
 4568W        W20185   3.158  15.803   0.212  0.1804  0.1870  0.1841
 4569W        W20186  12.488  10.995   2.964 -0.0443 -0.0750  0.2808
 4570W        W20187  10.487   9.791   0.784 -0.0563 -0.0990 -0.0804
 4571W        W20188  15.538  13.936   1.788  0.4100 -0.0594  0.0323
 4572W        W20189   0.075   7.943  16.224 -0.1699  0.0644  0.1184
 4573W        W20190   4.235  15.369   3.342 -0.0551  0.1735  0.2509
 4574W        W20191  15.048  14.838   6.413 -0.3590  0.0433 -0.0304
 4575W        W20192  15.707  17.500   1.753 -0.0688 -0.0070 -0.2035
 4576W        W20193   6.369   5.027  15.353  0.1340  0.1590  0.0610
 4577W        W20194   7.218  12.973   4.489  0.1230 -0.0276 -0.0178
 4578W        W20195  14.239   7.671   3.978  0.0311  0.1448  0.0904
 4579W        W20196  14.034   8.030   4.988 -0.0114  0.0082  0.0503
 4580W        W20197   0.149   6.403  16.450  0.0422 -0.1880  0.0458
 4581W        W20198  11.973   3.403   5.371  0.0179 -0.3006 -0.1305
 4582W        W20199   9.610   4.149   0.816 -0.3072 -0.0034 -0.1953
 4583W        W20200   6.817  16.674   4.192  0.0755 -0.0441  0.3821
 4584W        W20201  15.627   5.677   4.365  0.0661 -0.0617 -0.0034
 4585W        W20202   6.405   3.449   0.088 -0.1101 -0.1633 -0.1965
 4586W        W20203   8.563  15.910   5.280  0.2130  0.0339 -0.1448
 4587W        W20204  17.302   0.980  11.596 -0.0793 -0.1253  0.0676
 4588W        W20205  14.139  17.720   2.811  0.1504 -0.1464 -0.0903
 4589W        W20206   8.688   1.583  14.097 -0.1279 -0.2187 -0.2062
 4590W        W20207  10.873   9.244   4.295 -0.2644 -0.0697 -0.2513
 4591W        W20208  12.360  17.814   4.879  0.0404  0.2739  0.1149
 4592W        W20209  16.131   0.469  13.881 -0.0458  0.2240  0.0618
 4593W        W20210   4.345  16.016   0.676  0.0940  0.0132 -0.1508
 4594W        W20211  16.964   9.565   2.945  0.0280  0.2470 -0.0151
 4595W        W20212  15.464   9.227   2.257 -0.0432  0.0369 -0.1169
 4596W        W20213   0.674   8.683   3.064  0.0149 -0.0924 -0.2851
 4597W        W20214   2.895   1.398  13.286 -0.1440 -0.0474 -0.1357
 4598W        W20215  15.692  11.217  14.800  0.3258  0.1047 -0.4628
 4599W        W20216  11.159  11.600   5.417  0.3898  0.0619 -0.2124
 4600W        W20217   8.445   9.753  15.706 -0.1391  0.0375 -0.0667
 4601W        W20218   4.716   5.353  11.939 -0.0069 -0.2329  0.0949
 4602W        W20219  17.617   3.950  11.582  0.3469 -0.2393  0.2357
 4603W        W20220   1.280  16.086   5.424  0.1783  0.0106  0.0032
 4604W        W20221   5.404   6.834  14.918 -0.1467  0.0813  0.1952
 4605W        W20222   4.298  14.750   4.218 -0.3955  0.2377  0.1436
 4606W        W20223  13.435   8.769   5.040 -0.0575  0.0629  0.1184
 4607W        W20224   7.723   3.388   1.122 -0.1054  0.4048  0.0722
 4608W        W20225   0.470   8.472  14.597 -0.0839  0.0561  0.0940
 4609W        W20226   3.529   9.671   3.859 -0.1672 -0.0227  0.2196
 4610W        W20227   6.611  10.055   0.253  0.0835 -0.1145 -0.2105
 4611W        W20228   7.566  10.210   4.949  0.0023 -0.1144  0.1798
 4612W        W20229  11.061  15.972   0.704 -0.1195  0.2500 -0.0761
 4613W        W20230  13.554   2.975  11.585  0.2367  0.1359 -0.1337
 4614W        W20231   0.143  10.081   5.976 -0.3089 -0.1609  0.1955
 4615W        W20232   2.878  15.824  11.487  0.0660 -0.1254 -0.1804
 4616W        W20233   6.719  17.576   3.529 -0.2100  0.2265  0.2066
 4617W        W20234   8.008   7.722  14.184 -0.1377 -0.1757 -0.1003
 4618W        W20235   1.588  13.315  15.013 -0.1888 -0.2704  0.2538
 4619W        W20236  17.406  17.419   2.990  0.1151 -0.1361  0.1676
 4620W        W20237  10.391   1.339   3.463 -0.0170 -0.0170 -0.1445
 4621W        W20238  16.160  14.596   2.800 -0.1221 -0.1168 -0.3584
 4622W        W20239  13.363  14.857   2.431  0.0036  0.0169 -0.0346
 4623W        W20240   7.480   5.363  10.798 -0.1302  0.0342  0.1034
 4624W        W20241   6.727  10.907  14.003  0.0095 -0.0134 -0.0397
 4625W        W20242   8.536   9.289   3.932  0.1998  0.1031 -0.1233
 4626W        W20243  13.033   3.245  12.240 -0.2331 -0.2555 -0.1613
 4627W        W20244   4.121   5.405   1.079 -0.2788  0.1465 -0.2391
 4628W        W20245   3.676  12.525   2.320 -0.0604 -0.4096  0.0576
 4629W        W20246   4.740   0.524  16.550 -0.2886  0.3520  0.1415
 4630W        W20247  16.402  10.785   4.983 -0.0524  0.1796  0.1479
 4631W        W20248  11.495  17.140  11.082  0.0035  0.0131 -0.2485
 4632W        W20249   6.343  15.579  16.614  0.0468 -0.0493  0.2394
 4633W        W20250   0.347   1.536  13.495  0.3520  0.3725 -0.1519
 4634W        W20251  15.919   6.762   0.719  0.0338  0.2360 -0.2226
 4635W        W20252   8.537   7.773   5.089 -0.2320 -0.0891  0.3135
 4636W        W20253   2.405  14.065   1.710  0.0785 -0.2346 -0.1570
 4637W        W20254  11.792  13.082   3.984  0.1925 -0.1110  0.2256
 4638W        W20255  10.422   1.720  15.618 -0.0885 -0.0869  0.0019
 4639W        W20256   9.811  17.123  13.983  0.2363  0.0204 -0.2041
 4640W        W20257  15.286  14.591  15.144 -0.1091 -0.1300  0.1769
 4641W        W20258   1.046   5.488   1.810 -0.2511 -0.1482  0.0965
 4642W        W20259  13.676  12.860   3.957  0.1374 -0.0471 -0.2539
 4643W        W20260  16.268  11.821  12.875 -0.0557 -0.2453 -0.1314
 4644W        W20261   7.467   0.011  15.684 -0.0812  0.1704  0.1586
 4645W        W20262   6.318  15.976  12.392  0.2087 -0.0767  0.0464
 4646W        W20263  10.711  13.661   1.924  0.0188  0.0551 -0.0038
 4647W        W20264   6.185   3.329  12.132  0.0330 -0.0788 -0.0810
 4648W        W20265  12.472  14.786   0.881 -0.1896  0.0214 -0.3820
 4649W        W20266   1.218   8.225   4.652  0.0517  0.0568 -0.1405
 4650W        W20267  16.069  10.947  16.545  0.1992 -0.1003  0.2572
 4651W        W20268  17.719  10.993   1.215  0.1577  0.1940  0.0805
 4652W        W20269   4.628  17.721  13.782 -0.3431 -0.2046 -0.3613
 4653W        W20270   7.980  15.216   5.066  0.0313  0.1194  0.0515
 4654W        W20271  15.306   2.912   2.128  0.0655 -0.0073 -0.1659
 4655W        W20272   6.329  11.036  13.692 -0.0608  0.1329  0.0555
 4656W        W20273   2.109  11.645  15.863  0.2481 -0.0107  0.1860
 4657W        W20274   8.568  10.374   1.188  0.0177 -0.1199 -0.0721
 4658W        W20275   1.839   3.497  15.238 -0.3431  0.1445  0.0170
 4659W        W20276   4.367   3.732  13.522  0.1568 -0.2071 -0.0206
 4660W        W20277   0.568   1.211  15.410  0.0072  0.1090  0.2145
 4661W        W20278  14.727   3.897   2.093 -0.1956 -0.1114  0.2517
 4662W        W20279   8.726  16.489  14.884 -0.0388 -0.0024  0.0032
 4663W        W20280  13.191  15.379   5.948  0.1916  0.1630  0.1582
 4664W        W20281  15.318   1.617   0.743  0.0446 -0.0023 -0.0218
 4665W        W20282   5.622  14.405  11.427  0.0421 -0.0308  0.3194
 4666W        W20283  17.215  14.780  13.475  0.1606  0.2008 -0.1071
 4667W        W20284   5.527  16.740  11.463  0.1147  0.0422 -0.3693
 4668W        W20285   1.298  14.811   4.963 -0.0681 -0.1822  0.1029
 4669W        W20286  14.566  16.079   2.044 -0.0606  0.0238  0.1769
 4670W        W20287   5.812   7.337   0.252  0.0307  0.1467 -0.0769
 4671W        W20288  11.828   3.484   2.362  0.0317  0.2330 -0.0550
 4672W        W20289  16.429  15.073   3.404  0.1692  0.0579 -0.2187
 4673W        W20290  13.658   6.515   4.666 -0.0681 -0.2522  0.2227
 4674W        W20291   3.829  13.599  11.106  0.0270  0.0683 -0.0997
 4675W        W20292   3.867  16.975  12.747 -0.0187 -0.1018  0.1015
 4676W        W20293   2.361  15.513  13.079  0.0179  0.1860  0.2633
 4677W        W20294  15.725  12.537  16.119  0.4293 -0.0094 -0.0332
 4678W        W20295  12.858  12.498   3.309  0.0345 -0.1053 -0.3389
 4679W        W20296  14.213  12.601   3.270  0.1542  0.3006  0.0719
 4680W        W20297  11.968   8.178   1.515 -0.0310 -0.0676 -0.1007
 4681W        W20298  16.220  14.800   0.351 -0.3994 -0.2125 -0.2431
 4682W        W20299   5.434   5.670  11.535  0.2053  0.1689  0.0147
 4683W        W20300  17.599  16.229   1.844  0.2681  0.1912 -0.3222
 4684W        W20301  15.658  12.907   2.442 -0.3653  0.0449 -0.0633
 4685W        W20302   1.520   2.540  14.506 -0.2037 -0.1147  0.1216
 4686W        W20303   2.428   8.611  14.856 -0.1907 -0.1291  0.3093
 4687W        W20304  15.773   9.771   2.887 -0.1110  0.3075  0.0449
 4688W        W20305  15.280  14.663  15.766  0.2297 -0.1306  0.1162
 4689W        W20306   2.844   5.101   1.618 -0.0601 -0.0471  0.0458
 4690W        W20307  14.785   3.895  13.321  0.2056  0.2403 -0.0987
 4691W        W20308   5.686   5.943  10.404 -0.0343  0.2428  0.0733
 4692W        W20309  15.339  13.117  14.813 -0.0789 -0.0878 -0.0271
 4693W        W20310  15.235  17.569  16.485  0.2021 -0.2758  0.0158
 4694W        W20311  14.397   3.790  12.044  0.1498  0.2372  0.0397
 4695W        W20312   0.854   3.299   2.294 -0.0116 -0.3093  0.0320
 4696W        W20313   6.447  10.892   2.646 -0.1212 -0.3783 -0.1663
 4697W        W20314   5.309  11.354   1.509  0.1458 -0.1728 -0.2580
 4698W        W20315   7.807   3.924  14.719 -0.1126 -0.0255 -0.0897
 4699W        W20316   4.127   1.766   3.643  0.0095 -0.4505  0.2400
 4700W        W20317   8.545   4.724   1.768  0.0833 -0.2380  0.3081
 4701W        W20318   4.410  10.962  16.680  0.2039 -0.0323 -0.0583
 4702W        W20319   5.762   8.039  15.013  0.1805  0.0130  0.2032
 4703W        W20320   3.086  14.399   3.297 -0.0728 -0.2536 -0.0158
 4704W        W20321  15.067   6.208  16.244  0.0218  0.2140 -0.3709
 4705W        W20322  12.333   9.210   0.518  0.0140  0.0391 -0.0851
 4706W        W20323   5.885  15.897  11.668  0.1998  0.0321 -0.2317
 4707W        W20324   1.022   8.906  12.311  0.2442  0.3937 -0.2862
 4708W        W20325   5.290  15.988   2.506 -0.1399 -0.0050 -0.0272
 4709W        W20326  12.624   7.972   0.675  0.2894 -0.0416  0.2692
 4710W        W20327   0.376   2.537   3.387 -0.2138 -0.0642 -0.3036
 4711W        W20328  16.201  16.591   3.272 -0.1897 -0.0912  0.1380
 4712W        W20329   3.697   7.584  14.653 -0.0411 -0.1159  0.0351
 4713W        W20330  12.666   4.475  14.722  0.1450 -0.0928 -0.1702
 4714W        W20331   4.366   9.676   1.512  0.0425 -0.0450 -0.2712
 4715W        W20332   9.985   2.159   2.624 -0.0783  0.1295 -0.2547
 4716W        W20333   9.023   4.254   4.241 -0.0578  0.2596 -0.1843
 4717W        W20334  13.451   5.697   2.037 -0.5318  0.0616 -0.4604
 4718W        W20335   5.262   7.390   4.687  0.3320 -0.0185 -0.3123
 4719W        W20336   0.932  15.449   5.730 -0.0877  0.0646 -0.1723
 4720W        W20337   2.730  16.798  12.684  0.0427  0.1015 -0.0001
 4721W        W20338   1.053   6.244   1.060 -0.1981  0.0824 -0.1973
 4722W        W20339   2.882   1.062  14.388  0.3688 -0.3836 -0.0050
 4723W        W20340   0.386   5.788  12.063 -0.1499 -0.1489 -0.2665
 4724W        W20341  12.514   7.720   5.379  0.0909  0.0860 -0.1935
 4725W        W20342  14.775  12.100   4.763  0.0808 -0.0485 -0.0593
 4726W        W20343  11.251  13.944  14.647  0.2199  0.1293  0.3794
 4727W        W20344  15.462   5.927   0.496  0.0685 -0.0205  0.1977
 4728W        W20345   9.286  12.765   2.627 -0.2255 -0.0675  0.1103
 4729W        W20346  16.733  16.153  16.094 -0.1042 -0.2056 -0.1170
 4730W        W20347  10.912  11.159  12.199  0.0582 -0.0714  0.1834
 4731W        W20348   7.209  16.959   2.884 -0.2188  0.0255 -0.0660
 4732W        W20349   6.748   1.449   5.552 -0.3367 -0.2930 -0.1813
 4733W        W20350  10.970  17.201   2.178 -0.2306  0.2895 -0.1076
 4734W        W20351  11.795  10.816   0.805 -0.1328 -0.0320 -0.1240
 4735W        W20352  12.734   2.581   3.983  0.2974 -0.4825 -0.0014
 4736W        W20353   4.822   5.890   3.273 -0.1662 -0.1657  0.0282
 4737W        W20354  13.212   5.808  12.133  0.1174  0.0889 -0.1782
 4738W        W20355  11.960   0.113  13.411  0.0675 -0.2840 -0.0241
 4739W        W20356  12.932   7.153   4.815  0.1232  0.3037 -0.0161
 4740W        W20357   5.135   7.083  12.564  0.1411 -0.3660 -0.2951
 4741W        W20358   5.514  16.168  14.209 -0.1162 -0.0287  0.0900
 4742W        W20359  17.214  10.198   4.801  0.0884 -0.0337  0.0230
 4743W        W20360   4.885  16.006   4.098 -0.1316  0.0034 -0.0846
 4744W        W20361  15.639  11.381   1.296  0.0738  0.0117 -0.0141
 4745W        W20362   6.859   1.493   2.695  0.1564  0.0429 -0.1895
 4746W        W20363  17.852  15.312  16.436  0.1388 -0.1595 -0.3163
 4747W        W20364   7.442   5.249   2.018  0.0547  0.4594 -0.5007
 4748W        W20365   2.270  10.004   2.907  0.2180 -0.2532  0.2024
 4749W        W20366   8.586   6.296   0.304  0.1087 -0.1482 -0.0789
 4750W        W20367   8.490   2.779  13.124 -0.2469 -0.2437 -0.2686
 4751W        W20368   9.177  17.413  14.271  0.2441  0.1091 -0.0345
 4752W        W20369   7.404  15.059   1.888  0.2119  0.0008  0.0533
 4753W        W20370  10.744   9.698  14.709  0.1484 -0.0224  0.0193
 4754W        W20371   8.096  11.788   3.369  0.0551 -0.0849  0.2092
 4755W        W20372   9.981   0.168  16.338  0.3070 -0.4177 -0.4605
 4756W        W20373  13.406   3.472   4.271  0.1021 -0.2800  0.3082
 4757W        W20374  14.278   8.681  15.891  0.0046  0.0078 -0.1354
 4758W        W20375  12.915   2.886  13.261 -0.0952 -0.0234  0.1135
 4759W        W20376   1.764   0.467  12.085 -0.0341  0.1859  0.0712
 4760W        W20377  12.101  16.741  12.398  0.2089 -0.3086 -0.2536
 4761W        W20378   6.612  14.925   4.469 -0.1430  0.1311  0.0090
 4762W        W20379  12.840  10.072   4.067  0.0756 -0.2773 -0.1224
 4763W        W20380   4.744   1.715  12.391  0.1392  0.0550 -0.0560
 4764W        W20381  11.900  12.210   3.673 -0.1550  0.0337  0.1268
 4765W        W20382   9.461   1.890  15.450  0.0624 -0.0107 -0.3397
 4766W        W20383   5.809   5.907   0.067  0.0270  0.0971  0.0108
 4767W        W20384  17.174  16.461   2.389 -0.2207  0.0600  0.2404
 4768W        W20385   0.011  14.064   1.312 -0.2450  0.0129  0.0111
 4769W        W20386  14.446  13.461  15.212 -0.1886  0.2447 -0.0088
 4770W        W20387  14.533  16.191   2.542  0.0325  0.2521  0.0016
 4771W        W20388   0.639   0.043   5.347 -0.1948 -0.1224 -0.1533
 4772W        W20389  10.108   9.981  11.206  0.0051 -0.2284 -0.0207
 4773W        W20390  17.734  13.141  16.363  0.1798  0.5686 -0.1891
 4774W        W20391   2.876  12.580  12.460 -0.2623  0.0207 -0.3354
 4775W        W20392   0.868   2.130  13.921 -0.1637 -0.0181  0.1652
 4776W        W20393  10.604   9.711  15.165 -0.0445 -0.0807  0.2625
 4777W        W20394  13.336   2.857  13.580  0.4036 -0.0803 -0.0504
 4778W        W20395   7.603   2.604   2.444  0.4562  0.1198 -0.0485
 4779W        W20396   2.782   4.426   5.021  0.3094  0.0880 -0.4008
 4780W        W20397   0.542   3.311  11.066  0.2990  0.0120  0.1433
 4781W        W20398   5.799  17.304   1.742  0.1581  0.0725 -0.3902
 4782W        W20399   2.219  17.682   0.026  0.1043  0.2566 -0.1125
 4783W        W20400  11.635   2.099   5.181  0.3861  0.2404  0.0410
 4784W        W20401   5.829  15.875  13.927  0.2169  0.1791  0.2534
 4785W        W20402  14.780  16.872   5.783 -0.2203  0.2484 -0.2887
 4786W        W20403  16.187  14.208   3.921 -0.0040 -0.1007 -0.1854
 4787W        W20404  17.079   2.404   4.052 -0.0572  0.0328  0.3044
 4788W        W20405   7.552  12.696  14.030  0.1523 -0.1077 -0.0704
 4789W        W20406  12.096  12.065  16.162 -0.0440  0.0842 -0.1159
 4790W        W20407  17.559  13.789  13.280  0.1201 -0.2012  0.3993
 4791W        W20408   2.592  13.891  11.994 -0.0419 -0.0162 -0.0877
 4792W        W20409   2.995  14.912   3.447 -0.2715 -0.0212 -0.1025
 4793W        W20410  17.852  17.241   2.252 -0.0867  0.0726 -0.1193
 4794W        W20411   4.344   1.017   1.816 -0.0316 -0.0468 -0.2288
 4795W        W20412   1.886  11.061  11.670  0.3496  0.0490  0.0098
 4796W        W20413   0.483  11.436  14.100  0.2776 -0.0952  0.1898
 4797W        W20414  15.077  15.109   3.324  0.2062  0.0396  0.2012
 4798W        W20415   1.079   6.742   2.325  0.1169 -0.0464 -0.0542
 4799W        W20416  11.088   1.550   3.038  0.3369  0.1132 -0.2975
 4800W        W20417   9.047   5.675  12.797  0.1058  0.3108  0.4265
 4801W        W20418  17.647  12.256  13.643 -0.1546 -0.5647  0.0103
 4802W        W20419  16.186   5.269   2.730 -0.1051 -0.0308  0.1158
 4803W        W20420  16.806  15.311  16.629  0.0034 -0.2552 -0.0971
 4804W        W20421   4.392  11.162  14.680  0.0172 -0.0386  0.0663
 4805W        W20422   6.599  11.336   0.703 -0.1723  0.2536 -0.0925
 4806W        W20423  16.894  10.939  11.929  0.2144  0.0729  0.0669
 4807W        W20424  15.158  10.295   1.108 -0.0853 -0.2142  0.1199
 4808W        W20425   8.621  13.900  15.675 -0.0442 -0.0633  0.3166
 4809W        W20426   2.499  13.802   0.008 -0.0474  0.0937  0.1815
 4810W        W20427   3.124  12.352   1.704 -0.1510 -0.0497 -0.2995
 4811W        W20428  13.652  17.445   0.042  0.0004 -0.1823  0.0080
 4812W        W20429  12.076  16.195   4.247 -0.3702 -0.0880 -0.0929
 4813W        W20430   6.858   7.023   1.074  0.0184 -0.1202 -0.1299
 4814W        W20431  10.264  14.791   1.164  0.2632 -0.1400 -0.3253
 4815W        W20432   5.146  10.450   6.148  0.1423 -0.2102 -0.1349
 4816W        W20433  16.286  13.651   4.717 -0.2551  0.0206 -0.0460
 4817W        W20434   8.455   0.898   0.776  0.1554  0.0836  0.1983
 4818W        W20435  12.955   2.619  12.726  0.2087  0.1340 -0.4741
 4819W        W20436  11.086  15.835   3.163  0.1972  0.0217 -0.1624
 4820W        W20437   6.741   2.066  13.418 -0.0325 -0.2052  0.2666
 4821W        W20438  17.804  16.910   0.441  0.0947  0.0511 -0.3454
 4822W        W20439  14.191   6.030  16.346 -0.1043 -0.0375  0.0301
 4823W        W20440   9.048  12.044   0.436  0.0280  0.2653  0.0880
 4824W        W20441   8.750   6.418  13.226  0.1229  0.0828 -0.2370
 4825W        W20442   8.726   5.867   1.934  0.1125 -0.0487 -0.3131
 4826W        W20443   2.643  10.398   2.027 -0.2273 -0.1475  0.0138
 4827W        W20444  13.150   9.591   4.764 -0.0201  0.3909 -0.0649
 4828W        W20445   2.079  16.356   5.391  0.2114 -0.2983 -0.2808
 4829W        W20446   8.798   4.257  13.349  0.1000 -0.4026  0.1053
 4830W        W20447  10.002   9.587   3.449 -0.2179 -0.0068 -0.0264
 4831W        W20448   0.338   5.968  16.235  0.4629  0.2007 -0.0437
 4832W        W20449  15.961  16.945   4.584 -0.0107 -0.1575  0.1404
 4833W        W20450  11.760  13.007  10.960 -0.1911  0.2137  0.2195
 4834W        W20451   7.078   8.376  13.261 -0.1478  0.0494 -0.1148
 4835W        W20452   4.991  16.893   0.745  0.1327 -0.0546 -0.0481
 4836W        W20453   1.716   9.571   1.512  0.1120 -0.2845  0.2906
 4837W        W20454   4.737  11.767  15.278  0.0481  0.3904 -0.3796
 4838W        W20455  11.605  12.516   1.395  0.1349 -0.0266 -0.2972
 4839W        W20456   9.619   7.263   2.433  0.0941 -0.2384 -0.2327
 4840W        W20457  17.866   7.262   3.656 -0.0940 -0.1617 -0.0274
 4841W        W20458   4.510  12.606   4.383  0.1850  0.0801 -0.4217
 4842W        W20459   3.301  15.783   4.532  0.2329 -0.0636  0.1125
 4843W        W20460   7.277   2.162   5.042 -0.0551  0.0834 -0.0787
 4844W        W20461  10.861   3.893  14.256  0.0234 -0.1251 -0.1397
 4845W        W20462  17.562  15.643  13.079 -0.0466 -0.0006  0.0863
 4846W        W20463   9.080   5.467   3.778  0.0196 -0.3872 -0.1090
 4847W        W20464   1.042   7.381   0.149 -0.1149 -0.0310  0.3595
 4848W        W20465   7.070   9.388   4.182  0.1259 -0.3515 -0.4265
 4849W        W20466  10.832  15.012   0.341  0.2883  0.3901 -0.3511
 4850W        W20467   5.316   3.465  12.113  0.4549 -0.2407  0.0875
 4851W        W20468  10.708   7.196   1.732 -0.1259  0.2102 -0.0582
 4852W        W20469   8.573   5.554   3.538 -0.1592  0.0703  0.0718
 4853W        W20470   8.040   0.667  13.182 -0.0299 -0.2867 -0.2797
 4854W        W20471  15.627   1.050  12.057 -0.0521 -0.0779 -0.3039
 4855W        W20472   6.163  16.189  11.956  0.4093  0.1834  0.3582
 4856W        W20473  11.415   6.246  12.883 -0.2559 -0.2094  0.1596
 4857W        W20474   3.551   8.042  13.655 -0.0521  0.1168 -0.2250
 4858W        W20475  14.378   8.542   5.120  0.3175 -0.0930 -0.0073
 4859W        W20476   2.754  14.361  11.916 -0.1380  0.5140 -0.2310
 4860W        W20477   3.217   7.274  16.213 -0.0052 -0.1438 -0.0727
 4861W        W20478  10.998  14.756   6.340 -0.1478  0.0854  0.0939
 4862W        W20479  17.357   6.251  13.941  0.0681 -0.0541  0.0441
 4863W        W20480   2.080  10.655  12.031  0.0989  0.2740 -0.1834
 4864W        W20481   6.199   0.687  16.550 -0.2003  0.0695  0.2806
 4865W        W20482   7.124  14.674   4.240  0.2651 -0.1438  0.2581
 4866W        W20483  10.715   5.689   3.592  0.1669  0.0345  0.2373
 4867W        W20484   9.160  16.897   1.419 -0.2046 -0.0629 -0.1060
 4868W        W20485  12.934  16.552  14.516  0.2592  0.0267 -0.2583
 4869W        W20486  14.167  10.194   5.366  0.3100  0.1618  0.0285
 4870W        W20487   1.236   0.539  15.070 -0.3514 -0.3749 -0.0483
 4871W        W20488  15.443   8.475  12.796  0.2222  0.0927  0.1898
 4872W        W20489  17.390   2.572  14.471 -0.1758 -0.1432  0.4729
 4873W        W20490  10.518   8.293   1.947 -0.1034 -0.0214 -0.1911
 4874W        W20491  14.941  10.333  13.091  0.1516 -0.1079  0.0950
 4875W        W20492  14.178  13.465   1.815 -0.0698 -0.3459  0.1191
 4876W        W20493  14.873  16.580  13.579 -0.0050 -0.0432 -0.0178
 4877W        W20494   4.659   0.690  14.695  0.1570  0.0222 -0.0198
 4878W        W20495   2.415  14.363   4.516  0.1043 -0.1927 -0.1662
 4879W        W20496   1.480   3.232  16.204 -0.0287 -0.0481 -0.1941
 4880W        W20497  14.839   5.525  15.327 -0.0462 -0.0230  0.0562
 4881W        W20498   8.508   6.641   4.814  0.0137  0.1142 -0.0417
 4882W        W20499  14.276   6.356   2.137  0.0005 -0.2198  0.2158
 4883W        W20500   6.976  14.272  10.939 -0.0239  0.3129 -0.1857
 4884W        W20501   3.907   0.246   3.309  0.0649 -0.1655  0.1857
 4885W        W20502   1.844   7.927   2.276 -0.0832  0.2136  0.2010
 4886W        W20503   7.268  17.203  12.098  0.0735  0.0988 -0.0486
 4887W        W20504  11.914   8.819   3.503  0.2925 -0.0106  0.0299
 4888W        W20505   8.507  13.648  11.542  0.1637  0.0509  0.1940
 4889W        W20506   3.176   0.403   5.910 -0.2284 -0.1418  0.0339
 4890W        W20507  11.140  14.951   2.021  0.0568 -0.2013 -0.0676
 4891W        W20508   4.995   7.480  15.220 -0.0862 -0.1728 -0.2240
 4892W        W20509  17.685  15.704   0.871  0.0377  0.1063 -0.0669
 4893W        W20510  12.881   2.280   3.578 -0.2875 -0.2627 -0.0760
 4894W        W20511  16.941  16.073   4.361  0.0623  0.0563  0.1979
 4895W        W20512   1.306   6.705   5.325  0.0629 -0.1695 -0.0721
 4896W        W20513  17.522   1.775   1.530  0.0832 -0.3788  0.0667
 4897W        W20514   5.774   6.207   4.638  0.1158 -0.1444 -0.2357
 4898W        W20515   6.647  11.953  15.178 -0.2274 -0.0494 -0.0201
 4899W        W20516   3.981   6.951  12.037  0.1374  0.0180  0.3188
 4900W        W20517   7.560   4.583  13.967  0.0927 -0.1936 -0.2222
 4901W        W20518   7.404   6.706  13.293 -0.0256 -0.1657 -0.0383
 4902W        W20519   6.800   6.236  14.409  0.3396  0.0127 -0.0881
 4903W        W20520   3.130   0.177   3.948 -0.0235 -0.0495  0.1800
 4904W        W20521   1.406   8.202  16.765  0.2498 -0.0422 -0.0432
 4905W        W20522   9.615  14.426  14.327 -0.2517 -0.0697  0.0626
 4906W        W20523  12.668  10.710  16.528  0.3164 -0.0854  0.2944
 4907W        W20524   6.736   0.483   5.747 -0.2775 -0.0483 -0.1253
 4908W        W20525   2.664   9.815   0.886  0.1411 -0.1214 -0.1011
 4909W        W20526   7.384  15.937  11.443  0.0781  0.1296  0.0475
 4910W        W20527   7.714   0.551  15.861 -0.0548  0.1030 -0.0788
 4911W        W20528  13.520   0.602  14.704  0.1150  0.2103 -0.0942
 4912W        W20529  16.825   4.625  14.617 -0.1596  0.0964  0.2180
 4913W        W20530   6.358   4.978   1.207  0.0761 -0.1193 -0.0794
 4914W        W20531   3.691  12.168  16.093 -0.0505 -0.0768 -0.2220
 4915W        W20532  16.782   8.686   5.819  0.0315 -0.0493  0.2683
 4916W        W20533  15.150   8.610   5.851  0.0491  0.2019 -0.1843
 4917W        W20534  15.519   2.248  12.036  0.0263 -0.0714  0.0007
 4918W        W20535   9.551   0.327  12.762 -0.0446 -0.0782 -0.0148
 4919W        W20536  17.447  14.414  12.738 -0.3527 -0.2044 -0.1303
 4920W        W20537   1.021   8.417   2.821 -0.2061  0.1683 -0.0604
 4921W        W20538   2.912   4.597   6.624 -0.0211  0.1640 -0.1765
 4922W        W20539  14.231  15.052   0.425 -0.3427 -0.4534 -0.1315
 4923W        W20540   9.590  15.698  13.966 -0.0840  0.1851 -0.0913
 4924W        W20541  16.706  12.125  13.020  0.1691  0.1854 -0.1314
 4925W        W20542   0.199   1.784  14.272 -0.0805  0.0422 -0.2378
 4926W        W20543  11.840  17.317  15.424  0.0239 -0.1005 -0.2012
 4927W        W20544  10.130  12.482  13.426  0.1970  0.5070  0.0756
 4928W        W20545   5.497  13.757  11.689 -0.2412 -0.0408  0.1123
 4929W        W20546   3.237  13.152  13.412 -0.1983  0.2656 -0.0322
 4930W        W20547  12.300  15.861  12.966 -0.0739  0.0009  0.0008
 4931W        W20548  17.787  13.748  14.149 -0.0992  0.1090 -0.0681
 4932W        W20549   9.470   5.047   5.533  0.0457 -0.3660 -0.0283
 4933W        W20550   8.228   1.533   1.334  0.0359  0.0995  0.1532
 4934W        W20551   5.573   6.172   4.132 -0.2054  0.0984 -0.1034
 4935W        W20552   2.768   0.619   5.751  0.1005  0.1624  0.1794
 4936W        W20553   4.085   8.297   1.986 -0.0073 -0.2143 -0.1655
 4937W        W20554   2.846   2.981  13.190 -0.0073 -0.2742  0.2079
 4938W        W20555   6.379   7.569   2.056  0.2088 -0.2860  0.0759
 4939W        W20556  13.593   7.130  14.942  0.0661 -0.0392 -0.0465
 4940W        W20557   7.945  12.845   4.531 -0.0605  0.2079 -0.1685
 4941W        W20558  11.507   0.498  11.864  0.1188 -0.3473  0.0229
 4942W        W20559   7.024   8.209  15.730 -0.0248 -0.0159 -0.3532
 4943W        W20560  13.431   6.051   4.958  0.4670 -0.1699 -0.1190
 4944W        W20561  17.740  10.553   6.416  0.0219 -0.0395  0.1546
 4945W        W20562   2.632  12.130   0.366 -0.2667  0.0123 -0.0353
 4946W        W20563  10.804   7.430   3.156 -0.1922  0.2102 -0.0011
 4947W        W20564   6.635  12.713  13.534  0.1255 -0.3284  0.5835
 4948W        W20565  15.235   0.066  14.364 -0.1171 -0.0362 -0.2923
 4949W        W20566   0.549   5.191   2.465 -0.3805 -0.1351  0.0789
 4950W        W20567   1.580   9.518  15.077 -0.0763 -0.1102  0.0813
 4951W        W20568  16.811   2.697  13.606 -0.2567  0.2020 -0.0049
 4952W        W20569  15.170  16.327  10.260  0.1016  0.0722  0.1297
 4953W        W20570   1.117   9.660   3.497 -0.1385 -0.2536  0.0775
 4954W        W20571   4.981  10.721  12.773 -0.0350  0.2621 -0.2482
 4955W        W20572  13.886   9.519   5.056  0.2415 -0.0149 -0.0544
 4956W        W20573  12.639  13.941  13.038 -0.0532  0.1731  0.0319
 4957W        W20574  13.060   4.063  16.039  0.3250 -0.0002  0.2625
 4958W        W20575   4.649   8.540  16.503 -0.0396  0.1193  0.1343
 4959W        W20576  10.063   0.337   5.874 -0.2192  0.0397 -0.0130
 4960W        W20577  15.694   4.356  15.041 -0.1384 -0.2749 -0.0965
 4961W        W20578  17.208   1.062   4.135 -0.2521 -0.1558 -0.0221
 4962W        W20579  10.985   3.922   1.271 -0.1157 -0.5005  0.0579
 4963W        W20580   7.957  11.737   5.387 -0.1868  0.0244  0.3784
 4964W        W20581  12.249  11.679  14.015  0.0666  0.0871  0.0841
 4965W        W20582  15.548   4.095  11.821 -0.0268 -0.0241  0.0328
 4966W        W20583  15.682  10.685   4.240  0.0402  0.0483  0.3605
 4967W        W20584  12.218  13.103   3.336  0.0344 -0.1593 -0.0850
 4968W        W20585   6.508   6.959   2.052  0.1493  0.2137  0.0249
 4969W        W20586   8.733   3.809   0.018 -0.0473  0.0560 -0.1812
 4970W        W20587  10.421  15.692   3.673  0.1762  0.0447  0.0810
 4971W        W20588  15.295  14.919  14.665  0.0155  0.3335  0.1949
 4972W        W20589   9.027  15.826  14.183 -0.2253 -0.0953 -0.3160
 4973W        W20590   8.015  13.391   1.777  0.0538  0.0575  0.0765
 4974W        W20591   7.516   0.757   5.458 -0.0550  0.4821  0.2450
 4975W        W20592   6.723  17.429   5.414  0.0115 -0.1955 -0.1963
 4976W        W20593   6.325   9.708   4.193  0.2025 -0.2533  0.2048
 4977W        W20594   0.863  17.368   4.831  0.0569 -0.0020  0.1335
 4978W        W20595   8.322   3.691   0.384 -0.0112  0.0829 -0.0335
 4979W        W20596   2.336   0.955  15.422  0.1104  0.0428  0.0635
 4980W        W20597  14.964   8.234   2.046  0.0800  0.3588  0.2524
 4981W        W20598  10.493  15.842   6.566 -0.1567 -0.4421 -0.0842
 4982W        W20599  15.014   7.161  15.928  0.0989  0.0488  0.2046
 4983W        W20600   5.960  11.953   1.866  0.3819 -0.2447  0.2666
 4984W        W20601   9.097  14.022   2.357  0.0998  0.1208 -0.0691
 4985W        W20602   8.642  11.847  14.954  0.0063  0.2838 -0.0288
 4986W        W20603  16.457  16.981   3.942  0.1935 -0.0896 -0.2301
 4987W        W20604  13.901  16.264  14.195 -0.1066 -0.3298 -0.0017
 4988W        W20605   2.606   2.011   5.291 -0.0244  0.1072 -0.0756
 4989W        W20606   2.224  11.846  10.524  0.1085 -0.2194 -0.2517
 4990W        W20607   0.581   4.178   1.159  0.1067  0.0689  0.1153
 4991W        W20608   8.240  14.209  12.111  0.1253  0.0108  0.1242
 4992W        W20609  16.467  13.116  13.337  0.4362  0.1251 -0.1330
 4993W        W20610  13.088   2.810   2.887 -0.1105  0.0403 -0.0260
 4994W        W20611   7.694  10.120   1.792 -0.0841 -0.1398  0.1256
 4995W        W20612   3.665   2.554  14.006  0.1084  0.0119  0.2985
 4996W        W20613  12.062   1.223  13.292 -0.0956 -0.2892 -0.1640
 4997W        W20614   2.770   9.111  15.412  0.1674  0.1023  0.1755
 4998W        W20615  12.128  12.176   0.752 -0.3808  0.0349  0.1348
 4999W        W20616   8.210   5.338   4.932 -0.0520 -0.0271  0.3109
 5000W        W20617  16.620   0.790   0.733  0.0390 -0.1892  0.3145
 5001W        W20618  17.519   8.315  13.611  0.3077  0.1413  0.0376
 5002W        W20619   6.899   4.048  12.142  0.0061  0.1046 -0.1104
 5003W        W20620  16.348   6.496   2.158 -0.3078 -0.0215 -0.1075
 5004W        W20621  11.185  10.061   6.167 -0.1664 -0.0095 -0.2036
 5005W        W20622  17.519  15.561  15.300  0.1850  0.0212 -0.1949
 5006W        W20623   9.560  14.633  14.784  0.0483  0.0098 -0.0131
 5007W        W20624  11.879   1.062  12.706 -0.0351 -0.3028 -0.1047
 5008W        W20625  14.107   8.163  13.741 -0.0493 -0.1525  0.2191
 5009W        W20626  12.828  15.481   3.640  0.0293  0.1399  0.1102
 5010W        W20627  13.661  14.119  11.917 -0.0383  0.1248  0.1102
 5011W        W20628   8.935   1.012  11.888 -0.2013  0.1015 -0.0700
 5012W        W20629  17.153  12.965   5.612 -0.0103  0.1334 -0.1859
 5013W        W20630   2.383   2.040   1.040 -0.2235 -0.0458  0.1994
 5014W        W20631   3.270   1.013   1.016 -0.1704 -0.0606 -0.1515
 5015W        W20632   2.353  15.535  13.638 -0.0030 -0.0930 -0.0284
 5016W        W20633   2.686   9.317  11.421 -0.0561  0.0948 -0.1596
 5017W        W20634   7.360  13.702  12.580  0.0725  0.0346  0.0193
 5018W        W20635   4.277  13.202  12.866  0.1971 -0.3787 -0.3291
 5019W        W20636   1.234   4.833   4.087  0.3635  0.2087  0.2176
 5020W        W20637   5.222   4.712  12.911 -0.1346 -0.2427 -0.0513
 5021W        W20638  10.541   8.956   5.104 -0.0779  0.0887  0.1610
 5022W        W20639   4.256   8.974   0.812  0.1004 -0.3398 -0.0792
 5023W        W20640   8.046  17.611  13.125  0.3008 -0.1488 -0.3974
 5024W        W20641  12.473  15.299  13.498 -0.1853 -0.0553 -0.0023
 5025W        W20642   4.676   9.963   1.277 -0.1668 -0.1927  0.1523
 5026W        W20643  16.084   0.356  16.514  0.0887  0.1169 -0.1243
 5027W        W20644  13.466  14.195  13.014  0.1050  0.0364 -0.4383
 5028W        W20645  13.068   5.080   3.126 -0.1124 -0.1920  0.3105
 5029W        W20646   3.659   2.940  12.827  0.0196 -0.2203  0.1110
 5030W        W20647  12.030  14.076   2.746  0.0687  0.0659 -0.0317
 5031W        W20648   4.202   0.051  14.063  0.0443 -0.2468  0.0336
 5032W        W20649   3.338   2.464  15.777 -0.0833 -0.0989  0.1327
 5033W        W20650   5.421   0.992  11.497  0.0302  0.0232  0.1821
 5034W        W20651  13.395  13.122   2.950 -0.3764 -0.2782 -0.1331
 5035W        W20652  13.372   6.727   4.286 -0.1069  0.1311 -0.2106
 5036W        W20653   6.989   0.271   4.950 -0.1844  0.0345  0.0943
 5037W        W20654  17.332   3.423  16.664 -0.1121  0.0121  0.0828
 5038W        W20655   1.256   6.409   3.539  0.1642 -0.0021  0.4087
 5039W        W20656  14.906   0.792   0.776  0.3560 -0.0544  0.0042
 5040W        W20657  13.505   4.995  13.166 -0.1576  0.1201  0.1339
 5041W        W20658   5.351   4.170  14.465  0.0074 -0.0094  0.0173
 5042W        W20659  17.314  11.411  16.415 -0.4079  0.1683 -0.1721
 5043W        W20660   0.908   8.699  11.868  0.0947  0.2306  0.0071
 5044W        W20661  15.449   5.155  14.729  0.1961  0.2402 -0.0002
 5045W        W20662  17.587   4.184   4.158 -0.0024  0.3328 -0.2036
 5046W        W20663  10.163   3.980  13.808  0.2959  0.0218  0.1819
 5047W        W20664   9.360  13.783  15.798  0.0590  0.1163  0.0605
 5048W        W20665   9.297   1.341  15.694 -0.1322  0.1459 -0.1806
 5049W        W20666  16.939   7.585  16.780 -0.0170  0.2335 -0.3092
 5050W        W20667   1.378  14.504   3.022 -0.1800  0.0165 -0.1068
 5051W        W20668   2.368   6.746   5.325 -0.0104 -0.3190 -0.2489
 5052W        W20669  14.857   3.311   6.171  0.0845  0.0349 -0.1084
 5053W        W20670  13.142  17.576   5.525 -0.3074 -0.3942  0.0204
 5054W        W20671  10.617   6.585   2.470  0.0694  0.0395 -0.1263
 5055W        W20672  14.776   3.821  16.119 -0.1228 -0.0258  0.0283
 5056W        W20673  10.968  11.140  12.696  0.0275 -0.0275  0.0279
 5057W        W20674   1.023  13.620   3.982 -0.2729  0.2255 -0.1567
 5058W        W20675   6.319   3.720  16.500 -0.0038  0.4077 -0.0149
 5059W        W20676  11.343   6.699   2.108  0.3644 -0.2205 -0.2698
 5060W        W20677  16.112  16.485   4.795  0.0954 -0.1012 -0.5378
 5061W        W20678   7.944   1.549   4.748  0.2361 -0.0023 -0.1221
 5062W        W20679  13.720   4.758  16.284 -0.2815  0.2826 -0.1173
 5063W        W20680   2.072   2.012   0.672  0.0493  0.0498  0.2442
 5064W        W20681   9.751   3.315   0.887 -0.2746 -0.1649 -0.1225
 5065W        W20682   9.737   9.779  12.193  0.2741  0.2241 -0.0912
 5066W        W20683  17.103  16.054  13.987 -0.0402 -0.1879  0.3496
 5067W        W20684  15.637   9.066  13.080  0.3516  0.3609  0.2396
 5068W        W20685   5.969   4.330   3.331  0.0536 -0.0908  0.1643
 5069W        W20686  14.157   8.149  12.380  0.2793  0.3742 -0.0629
 5070W        W20687   1.061   9.345  15.306  0.0478  0.2292 -0.3495
 5071W        W20688   0.592  14.980  11.846 -0.2894 -0.2361  0.0788
 5072W        W20689   9.571  17.631   0.725  0.1349  0.1836 -0.0088
 5073W        W20690   3.036  11.159   0.271 -0.1848 -0.3214  0.0748
 5074W        W20691   5.472   8.398  14.301 -0.1431 -0.0447  0.0562
 5075W        W20692  15.830  17.050   2.481  0.2214  0.0313 -0.1611
 5076W        W20693  16.892  11.412  12.191 -0.2368  0.1938 -0.1875
 5077W        W20694  16.215   8.187   1.667  0.2626 -0.3066  0.0870
 5078W        W20695   2.564   0.739   3.458 -0.0983  0.0020 -0.0448
 5079W        W20696   6.354  17.737  13.979  0.1307  0.0747  0.2120
 5080W        W20697  13.265   0.134   1.190  0.2247 -0.1185 -0.0834
 5081W        W20698   7.597   6.879   2.292  0.3388 -0.1295 -0.0289
 5082W        W20699   9.719   5.225   1.619  0.0071  0.4163 -0.0590
 5083W        W20700   3.225   3.110  16.245  0.0283  0.2260 -0.0594
 5084W        W20701  10.853   1.733   2.600  0.0512 -0.4008  0.0849
 5085W        W20702  16.119   6.276  12.704 -0.1630 -0.1011 -0.0311
 5086W        W20703   8.387  12.462   4.822 -0.2171  0.0760  0.2085
 5087W        W20704  11.096  10.185   5.713  0.4974 -0.0269  0.1030
 5088W        W20705   6.723   4.607   4.330 -0.3182  0.0160  0.1418
 5089W        W20706  17.711   1.946   4.558  0.0175  0.1660 -0.0606
 5090W        W20707  10.396   5.383   6.585  0.3581 -0.0508  0.1601
 5091W        W20708  10.798  11.976   0.685  0.1033 -0.1277 -0.2652
 5092W        W20709  17.029  11.345   5.092 -0.0441  0.0140  0.0849
 5093W        W20710  16.213   2.789   4.645 -0.1585 -0.1188  0.0796
 5094W        W20711  17.016  13.249  12.055  0.0638  0.1576  0.3003
 5095W        W20712  16.460  14.969   2.479 -0.3122 -0.1335 -0.1199
 5096W        W20713  13.449  15.544   2.039  0.1752  0.0637 -0.0581
 5097W        W20714  13.581   2.208  16.020 -0.1895  0.1589  0.1574
 5098W        W20715   2.262  13.918   2.365  0.1667  0.0108  0.1509
 5099W        W20716   5.754  11.258   1.330 -0.0347 -0.0467 -0.0952
 5100W        W20717  15.345   5.949   2.789  0.1821  0.0126 -0.2292
 5101W        W20718  11.576   5.080  15.410  0.1995 -0.0097  0.2220
 5102W        W20719   6.932  14.942   2.070  0.1941  0.3427  0.0384
 5103W        W20720  16.516   1.194  15.406 -0.0637 -0.0693  0.1310
 5104W        W20721  16.042   5.832   1.464 -0.1307  0.3792 -0.0889
 5105W        W20722  11.877   0.370   5.604 -0.0097 -0.2466 -0.1343
 5106W        W20723   7.570   2.456   0.271 -0.2409 -0.0778 -0.1241
 5107W        W20724   3.798   5.648   1.427 -0.0607 -0.1594  0.2763
 5108W        W20725  17.070   0.658  15.401 -0.1653  0.0896  0.3011
 5109W        W20726  12.956   0.111   5.764  0.0243  0.0160  0.1264
 5110W        W20727   6.130  15.543   5.374 -0.3660 -0.0319 -0.1030
 5111W        W20728   7.648  10.906   5.516 -0.1230 -0.2489 -0.0917
 5112W        W20729  13.022   0.458   2.450 -0.0890 -0.1702 -0.2900
 5113W        W20730  17.688   8.110   3.622  0.2247  0.0849 -0.0993
 5114W        W20731  12.792  14.964   4.365  0.3887  0.3681 -0.1775
 5115W        W20732   9.462  12.070   0.745 -0.1890 -0.0675 -0.0687
 5116W        W20733  17.106  13.173   0.383 -0.1328  0.1002 -0.1163
 5117W        W20734  13.588  13.850   0.105  0.1632  0.2877  0.3460
 5118W        W20735   9.539  16.347  12.961  0.1243 -0.2418  0.0122
 5119W        W20736  10.810  11.612  14.387 -0.0027  0.1000  0.0571
 5120W        W20737   7.025   0.253   0.049 -0.4001  0.1919  0.1937
 5121W        W20738   2.475   6.586  15.003 -0.0067 -0.0007 -0.0327
 5122W        W20739   8.876   3.408   5.570  0.1012 -0.0443  0.1411
 5123W        W20740  17.236  16.219  11.417 -0.0382 -0.0557  0.0686
 5124W        W20741  11.819   7.122   5.387  0.0304 -0.2149  0.2323
 5125W        W20742  14.394   6.888  14.828  0.0311 -0.2268 -0.0886
 5126W        W20743   4.436   7.158  11.967  0.2352  0.0941 -0.0216
 5127W        W20744  15.917   0.315   0.204 -0.3700 -0.0986  0.3423
 5128W        W20745   9.530   2.343   2.700  0.0671  0.0745 -0.2319
 5129W        W20746   9.965   2.581   4.189 -0.0724 -0.4036  0.0363
 5130W        W20747  11.659   2.991   6.029 -0.0308  0.1193 -0.0820
 5131W        W20748   9.142   2.831   5.263 -0.1808 -0.1070  0.0650
 5132W        W20749  12.071  17.217   1.024 -0.1998 -0.0240 -0.1302
 5133W        W20750   9.369  12.699   0.875 -0.0150 -0.1251  0.1718
 5134W        W20751  13.797  11.617  15.235 -0.0028  0.0505  0.1576
 5135W        W20752   8.997   5.835  14.535 -0.1932  0.0157  0.0364
 5136W        W20753   9.906  16.544  16.588  0.1166  0.0100 -0.0717
 5137W        W20754   1.360  15.823  13.950 -0.1230 -0.0307 -0.1642
 5138W        W20755  16.376   3.329   0.944 -0.1315  0.4744 -0.1669
 5139W        W20756  11.411  13.616  13.136  0.3862 -0.3597  0.1082
 5140W        W20757  10.879  10.848   2.062  0.0253  0.2464  0.1597
 5141W        W20758  14.079  12.303  15.251 -0.2563  0.0894  0.0254
 5142W        W20759   4.599   8.151   1.394 -0.2211 -0.0883 -0.0647
 5143W        W20760   6.698   9.254  13.323 -0.3039  0.4270 -0.3059
 5144W        W20761  13.634   3.822   2.281 -0.0927 -0.2227  0.0700
 5145W        W20762  15.835  14.375   4.646  0.0426  0.1298  0.2368
 5146W        W20763  15.354  15.742   1.135 -0.2690  0.2006 -0.2861
 5147W        W20764  10.041  15.677  12.637  0.1255 -0.0835 -0.1370
 5148W        W20765   3.403   0.829  12.697 -0.1311  0.2139 -0.1661
 5149W        W20766  13.974   4.897  15.692 -0.2277  0.0832 -0.2812
 5150W        W20767   2.920   4.209   0.713  0.1051 -0.0862  0.0470
 5151W        W20768   4.449  15.501   2.207  0.2677  0.0542  0.1004
 5152W        W20769   0.444   4.590   5.846 -0.0882 -0.0160  0.1466
 5153W        W20770  16.764   7.637  14.724 -0.0193 -0.3429 -0.4082
 5154W        W20771   4.513   5.132   2.410 -0.1859 -0.0037 -0.0608
 5155W        W20772  15.251   8.736  12.369 -0.0508  0.2330  0.2410
 5156W        W20773   5.431   5.342  13.499 -0.4420 -0.1320  0.1335
 5157W        W20774   0.631  17.668   4.493 -0.0302 -0.2810  0.0652
 5158W        W20775  16.312   0.338   5.272 -0.1237  0.0723 -0.0019
 5159W        W20776   3.864   0.975   1.730  0.0259  0.0170 -0.3647
 5160W        W20777   9.990   5.318   6.255  0.1960  0.1741  0.1183
 5161W        W20778  10.184   7.749  16.522 -0.2014 -0.2925 -0.0232
 5162W        W20779  10.577  14.949  16.659 -0.1940 -0.1337  0.2579
 5163W        W20780   0.378  11.676  12.253 -0.3997  0.0774 -0.2449
 5164W        W20781   1.781  10.255  16.347 -0.0968  0.0531 -0.0822
 5165W        W20782   4.680   2.402   5.812 -0.0292  0.2356  0.0271
 5166W        W20783  15.683  16.673   0.706 -0.0277 -0.0225  0.0865
 5167W        W20784  17.427  11.587   3.857 -0.2858 -0.0111  0.2922
 5168W        W20785   5.976  15.237  14.406  0.0885 -0.0068 -0.0716
 5169W        W20786  11.050   2.920  13.795 -0.3670  0.2282 -0.2722
 5170W        W20787  10.937   3.239   1.156 -0.3225 -0.3448 -0.3295
 5171W        W20788   2.312   4.940  11.929  0.4475  0.0727 -0.1418
 5172W        W20789   8.404  17.837  16.055  0.1598  0.1588  0.1050
 5173W        W20790   7.829   9.735  12.251 -0.0532  0.2459 -0.2969
 5174W        W20791   4.394   5.983   1.856 -0.5161  0.2069  0.1664
 5175W        W20792  15.909   1.080  12.507 -0.1101 -0.1323  0.2385
 5176W        W20793   8.208   4.940   2.330  0.1427  0.2119  0.0571
 5177W        W20794  11.120   0.208   1.722  0.0323  0.1776  0.2916
 5178W        W20795   4.512  14.198  14.837  0.2165 -0.2505  0.3409
 5179W        W20796   9.990   5.284   3.356 -0.0581 -0.0293 -0.0164
 5180W        W20797  15.928   4.671   2.676 -0.1100  0.2148  0.2574
 5181W        W20798  12.643   7.015  14.551 -0.2228  0.0180 -0.0516
 5182W        W20799   7.233  10.098  13.009  0.0289 -0.0147 -0.2970
 5183W        W20800   2.180  17.506   2.870 -0.0493  0.0619 -0.1317
 5184W        W20801  13.251   5.774  14.988  0.3465  0.1315 -0.0746
 5185W        W20802  15.957   0.535   2.683  0.2411  0.5027  0.1432
 5186W        W20803   2.788   2.753  13.655 -0.0108  0.0270  0.0511
 5187W        W20804   2.993  13.520  13.641  0.0377  0.2131  0.0377
 5188W        W20805  11.552   5.463  12.469  0.2652 -0.1182 -0.0930
 5189W        W20806  11.614   8.692  16.470 -0.1028 -0.0171  0.1056
 5190W        W20807   6.929   6.250   1.639 -0.0100  0.1519 -0.3131
 5191W        W20808   3.896  11.777   1.690  0.0884  0.2048  0.0615
 5192W        W20809   3.197   9.250   5.915  0.2463 -0.2045  0.0961
 5193W        W20810  16.908   1.354   4.553  0.1501  0.0230  0.0777
 5194W        W20811  14.712   1.930   5.738  0.2138 -0.2634  0.0738
 5195W        W20812  16.571  16.844   2.863 -0.0227 -0.0036 -0.1786
 5196W        W20813   8.866   4.430  15.578 -0.0003 -0.0125  0.2098
 5197W        W20814   1.507  15.576  16.318 -0.2974  0.1545 -0.0593
 5198W        W20815   1.456  15.501   3.186  0.0369  0.1855 -0.0901
 5199W        W20816   8.912  12.680   4.523 -0.2964  0.0852 -0.0997
 5200W        W20817   7.558   2.210  15.456  0.2273  0.1119  0.0595
 5201W        W20818  10.402  14.687  15.430  0.0209  0.1646  0.1492
 5202W        W20819   0.464  10.745  14.716  0.2107  0.0752  0.3124
 5203W        W20820   3.609   2.751  15.047 -0.2081  0.2180 -0.1425
 5204W        W20821  12.847   7.029   1.081 -0.3309 -0.3281 -0.1988
 5205W        W20822  13.795   5.171   3.332 -0.0268 -0.1249 -0.0455
 5206W        W20823   3.271   6.506   3.503 -0.0768  0.0586  0.0289
 5207W        W20824  11.176   8.710  14.319 -0.3159 -0.1041 -0.0251
 5208W        W20825   5.299  13.842   2.426  0.0562  0.0533 -0.1711
 5209W        W20826   6.028   8.645   2.843  0.2600 -0.0723  0.0655
 5210W        W20827  10.984   6.669   5.640 -0.1485 -0.4250  0.0576
 5211W        W20828  15.290   3.589  14.593  0.0309  0.1607 -0.3371
 5212W        W20829   5.292   3.130   1.450 -0.1281 -0.1628  0.0400
 5213W        W20830   6.030   1.609  10.935  0.5085  0.1413 -0.2486
 5214W        W20831  13.356  10.693  13.581  0.1684  0.1504 -0.0739
 5215W        W20832  10.058   1.242   2.149  0.0553 -0.0744  0.0274
 5216W        W20833  15.721  13.262  15.560 -0.1194  0.0016 -0.0573
 5217W        W20834  17.643   6.652  13.138 -0.1374  0.0937  0.0970
 5218W        W20835  13.590   4.744   4.216  0.2362 -0.0983  0.0145
 5219W        W20836  13.276  10.971  13.069 -0.1889  0.0383 -0.1320
 5220W        W20837  16.390   5.745   3.611  0.0421 -0.1743  0.1871
 5221W        W20838   3.673  16.179   3.143 -0.1303  0.1491  0.1205
 5222W        W20839  16.786  15.285   2.259 -0.1005 -0.0288  0.0359
 5223W        W20840  13.891  10.338   1.419 -0.3209  0.0030 -0.1859
 5224W        W20841   3.846  14.411  13.338 -0.2483 -0.1897  0.2227
 5225W        W20842  10.396   1.193   4.291 -0.0426 -0.0578  0.0211
 5226W        W20843  17.674   6.826   0.322 -0.1780  0.2426  0.1870
 5227W        W20844   4.261  17.008  16.315 -0.0979 -0.2379 -0.1467
 5228W        W20845   6.544   6.627   1.435  0.0249 -0.0724  0.2449
 5229W        W20846  14.411  12.870  15.117  0.1068 -0.1773 -0.2609
 5230W        W20847   1.278   4.607  15.915 -0.2523  0.1158 -0.0743
 5231W        W20848  15.932   0.141   3.324 -0.0981 -0.0778  0.0086
 5232W        W20849  17.059   0.847  16.728 -0.0944 -0.2891  0.0871
 5233W        W20850  15.152   3.902  12.971  0.1726  0.2446 -0.4315
 5234W        W20851  15.395  17.020   0.976 -0.1066 -0.4335  0.0815
 5235W        W20852  14.895   3.654   2.763 -0.0937  0.1442 -0.2817
 5236W        W20853  15.455   7.662   4.563  0.2909 -0.1100 -0.2657
 5237W        W20854  10.312   1.759  10.267  0.0876  0.4247 -0.1654
 5238W        W20855  17.593  14.887  15.602  0.3902  0.0954  0.1393
 5239W        W20856  11.918   5.833  16.330 -0.0050 -0.3287 -0.0637
 5240W        W20857   0.824  10.386   5.352  0.2224  0.0738 -0.0576
 5241W        W20858   4.575  13.394  15.934 -0.1275 -0.0061  0.0793
 5242W        W20859   2.300   7.796   3.710 -0.0268 -0.1987  0.4273
 5243W        W20860   7.210  10.808   1.380  0.1353 -0.1032  0.1764
 5244W        W20861   9.381  11.220  11.322 -0.0367  0.1846 -0.0478
 5245W        W20862  17.866  11.837   0.703  0.0198 -0.0898 -0.0117
 5246W        W20863   7.191  10.805  13.754  0.2821  0.0140 -0.3226
 5247W        W20864   7.867   1.876   0.858  0.1704 -0.0599 -0.1576
 5248W        W20865   5.356   8.872  15.413 -0.0947  0.1251 -0.2225
 5249W        W20866  11.805   0.097  11.650  0.1022 -0.1057 -0.0744
 5250W        W20867  11.433   4.263  13.075  0.0853 -0.3058  0.1197
 5251W        W20868   1.015  16.577  13.298 -0.1092  0.0917  0.1760
 5252W        W20869  12.240   7.336  13.985  0.0213 -0.4758 -0.0915
 5253W        W20870   2.638  11.846  16.083  0.1923 -0.3190 -0.0461
 5254W        W20871   6.477   9.657   1.023 -0.2724 -0.0446 -0.1012
 5255W        W20872  15.955   0.285  11.716 -0.0152 -0.0034  0.0388
 5256W        W20873  14.857   4.252  14.706 -0.2326  0.0717  0.0599
 5257W        W20874  15.942   0.659   6.164 -0.4359 -0.1164  0.1392
 5258W        W20875  17.052   8.840  12.804  0.0604 -0.3016  0.2400
 5259W        W20876   7.628   8.341  12.813  0.0210  0.0415  0.2447
 5260W        W20877  15.310   0.021  12.847  0.2155 -0.2427  0.0403
 5261W        W20878  15.637   6.206  12.505  0.0930  0.0556  0.2582
 5262W        W20879  15.121  13.860  15.800 -0.0312 -0.0999  0.1309
 5263W        W20880  12.047   9.842  13.135  0.0770 -0.0622 -0.1855
 5264W        W20881   4.763  16.124  12.601 -0.2058  0.0223  0.1272
 5265W        W20882  12.472  13.154  11.567  0.0250  0.2181 -0.1576
 5266W        W20883   4.345  14.960  12.500 -0.0290  0.1118 -0.1571
 5267W        W20884  13.898  16.354  12.477 -0.1174  0.0511  0.0681
 5268W        W20885  10.197  17.184   2.251 -0.2647  0.1862 -0.1056
 5269W        W20886   8.593   5.298   2.058 -0.1293  0.1393  0.1388
 5270W        W20887  11.753   4.197   5.295 -0.0536  0.2970 -0.3059
 5271W        W20888  15.558  13.062   4.444  0.0187 -0.1430 -0.0952
 5272W        W20889  13.313  12.374   0.531 -0.1117  0.1351 -0.1240
 5273W        W20890   9.882  12.233   1.007  0.3510  0.2268 -0.2247
 5274W        W20891  14.010   3.309   4.317 -0.1057  0.2501  0.1184
 5275W        W20892  17.039  12.468   3.504  0.1282  0.0037  0.3704
 5276W        W20893   2.975  17.115  14.379 -0.0827  0.2769 -0.2896
 5277W        W20894   8.004  10.217  12.225  0.3197 -0.1109 -0.2310
 5278W        W20895   3.196   7.487   5.500 -0.0446  0.0275 -0.0686
 5279W        W20896  17.462   6.918   4.686 -0.0723 -0.1868  0.1351
 5280W        W20897  10.590   9.424   3.738  0.0562  0.0560  0.0408
 5281W        W20898   9.869  14.864   1.486  0.2316  0.1532  0.1634
 5282W        W20899   6.225   4.387  16.456 -0.1118  0.1746 -0.1303
 5283W        W20900   7.238   1.440  13.602  0.2762 -0.3037  0.4304
 5284W        W20901  10.507  17.310  12.049  0.0204 -0.2376 -0.0843
 5285W        W20902   3.896   9.773   1.539 -0.0880  0.2157 -0.0942
 5286W        W20903  14.418   9.009  13.503 -0.0920 -0.2532  0.2561
 5287W        W20904  11.337   8.209  13.886  0.4582 -0.3913 -0.2356
 5288W        W20905   9.452   5.436   3.449  0.2244  0.2545 -0.3136
 5289W        W20906  12.386   0.691  11.616 -0.0252 -0.1618  0.1319
 5290W        W20907  14.445   8.679  16.712 -0.0920  0.0443  0.0174
 5291W        W20908   7.484  15.442  12.358 -0.1244  0.0369  0.2971
 5292W        W20909   9.648   6.247   0.216 -0.0205 -0.0313  0.0558
 5293W        W20910   1.525   4.303  14.867 -0.2451 -0.0651 -0.0358
 5294W        W20911   1.012   1.591   3.269 -0.2949  0.2086 -0.0460
 5295W        W20912   2.246   5.880  12.224  0.1973  0.0500 -0.0115
 5296W        W20913  10.222  16.148   1.463  0.0898 -0.0814 -0.0794
 5297W        W20914   8.042  13.138   5.331 -0.0130  0.1514 -0.2417
 5298W        W20915  10.112  12.251   5.092  0.3255 -0.1239 -0.0748
 5299W        W20916   8.408   5.000   3.105 -0.0629  0.0761  0.2403
 5300W        W20917  13.950  17.186   4.141  0.3051 -0.4793 -0.1489
 5301W        W20918  17.772   8.134   2.330  0.1173  0.0905 -0.2243
 5302W        W20919  10.422  13.917  12.757 -0.0727  0.1261 -0.0631
 5303W        W20920   9.181  16.574   3.515 -0.0760 -0.0074 -0.0713
 5304W        W20921   2.617   1.998  16.819  0.2095 -0.1218 -0.1812
 5305W        W20922  15.676   7.917   1.122  0.0054  0.0523  0.2156
 5306W        W20923  15.619   1.257  11.072 -0.1567  0.2818  0.3350
 5307W        W20924  15.341  10.104  13.327 -0.1667  0.1213  0.0248
 5308W        W20925  16.201  14.268   5.011  0.0650  0.0931  0.1794
 5309W        W20926   4.894   4.136  14.274  0.0033  0.2284  0.1468
 5310W        W20927   8.524  12.417   0.755  0.0348 -0.0619  0.0764
 5311W        W20928  11.559  13.034  14.134  0.3091  0.2303 -0.3330
 5312W        W20929   3.697   1.995   2.022  0.2093  0.0857  0.1909
 5313W        W20930  11.195  16.402  11.608  0.0846 -0.0466 -0.1509
 5314W        W20931  11.874   8.954  12.929 -0.0572  0.0552  0.0112
 5315W        W20932  11.885   4.806  16.209  0.0907 -0.0656 -0.0167
 5316W        W20933   6.805   7.385   5.917  0.0253  0.0237 -0.1647
 5317W        W20934   2.294   2.714   5.123 -0.0470  0.0043  0.2803
 5318W        W20935   2.833  17.821  14.799  0.1872  0.0056  0.1674
 5319W        W20936   4.402  10.857   3.967  0.1402 -0.0946 -0.0870
 5320W        W20937   2.686  12.707   3.793  0.2424  0.1495 -0.2042
 5321W        W20938  17.208   9.100  13.924 -0.0542  0.0282  0.1745
 5322W        W20939  12.666   4.516   1.470 -0.2380  0.0687 -0.0331
 5323W        W20940  14.915   3.762  14.942 -0.0416  0.0684 -0.0834
 5324W        W20941   6.365  16.282   2.935 -0.0782  0.1241  0.2102
 5325W        W20942  15.040   7.567  16.196  0.0511 -0.1241 -0.3505
 5326W        W20943   5.599  11.207  13.997  0.2170 -0.1118  0.3752
 5327W        W20944  13.876   8.201   4.566 -0.0744 -0.0764  0.0381
 5328W        W20945   2.697   0.257  12.786  0.2744  0.1612  0.0615
 5329W        W20946   0.592   4.821   2.864  0.0997  0.2887  0.0162
 5330W        W20947   5.417   5.611  15.597  0.0474  0.0966  0.0313
 5331W        W20948  13.419  14.553  12.559  0.1924 -0.2095  0.0829
 5332W        W20949  13.816  13.889   0.555 -0.0744 -0.0334 -0.4135
 5333W        W20950   2.643  11.401   1.562 -0.0198  0.2025  0.1009
 5334W        W20951   8.754  13.663   5.433 -0.2964 -0.0886  0.1017
 5335W        W20952   4.013   2.662  15.917  0.0280 -0.1437  0.2740
 5336W        W20953   0.101  13.177   0.702  0.0614  0.1590  0.2554
 5337W        W20954   9.071   7.527   1.678  0.4205  0.0917 -0.0894
 5338W        W20955   5.769  14.990   1.151  0.0358 -0.2010  0.1742
 5339W        W20956   5.966  11.540   5.888  0.1561 -0.2061 -0.2189
 5340W        W20957   2.442  14.945   2.952 -0.2259  0.0991 -0.0831
 5341W        W20958   3.384   1.270   4.089  0.0897  0.0640  0.2252
 5342W        W20959   6.550   4.751   2.013 -0.0582 -0.1284  0.2250
 5343W        W20960  17.276  17.347   5.458  0.3082 -0.0380 -0.1301
 5344W        W20961  14.075   9.069   2.718 -0.2422  0.0082  0.3122
 5345W        W20962   9.654   3.549  16.720  0.0049 -0.2243  0.1334
 5346W        W20963  11.340  16.799   0.460  0.0700 -0.0146  0.1685
 5347W        W20964   9.685   5.749   3.113  0.3847 -0.0356 -0.1321
 5348W        W20965  14.400  14.912  15.239  0.0388  0.0699  0.2830
 5349W        W20966   3.806   3.589   3.761  0.1983  0.1525  0.0801
 5350W        W20967   2.066   3.168  14.898  0.0756 -0.2594  0.1784
 5351W        W20968   1.299  11.520   0.744 -0.0190  0.1443  0.3067
 5352W        W20969   3.233   4.583   5.731  0.1414 -0.1270  0.1659
 5353W        W20970  13.586  15.069  16.103  0.0402 -0.0225 -0.0508
 5354W        W20971  14.070  10.712   2.081 -0.1627  0.0779 -0.1100
 5355W        W20972  10.580   0.899   0.088 -0.2433  0.4526  0.3135
 5356W        W20973   2.798   5.171   2.170  0.0992 -0.1944 -0.1004
 5357W        W20974   5.259   3.883   3.702  0.0022  0.0373 -0.2621
 5358W        W20975   1.743   0.427  12.711 -0.2588  0.0292  0.0775
 5359W        W20976   9.309   9.021  15.564 -0.1411  0.1809  0.0756
 5360W        W20977   0.747   7.353  16.252 -0.3790 -0.0121 -0.1616
 5361W        W20978  17.367  16.104   3.570  0.0932 -0.2831 -0.0449
 5362W        W20979  14.192  12.006   5.410  0.2301  0.0587 -0.0653
 5363W        W20980   6.774   4.561   3.096  0.3247  0.0692  0.1821
 5364W        W20981   7.813  17.057  15.270  0.0124  0.2406 -0.1472
 5365W        W20982   1.298  10.664  16.520 -0.1929 -0.0565 -0.0272
 5366W        W20983   1.449   4.684   2.363 -0.1402 -0.1365  0.0309
 5367W        W20984  13.779   3.701  15.444 -0.2199 -0.0160 -0.1591
 5368W        W20985  10.006   6.839  15.715  0.2367  0.0368 -0.0282
 5369W        W20986  17.798   4.880   1.487  0.4162  0.0625 -0.0090
 5370W        W20987   0.187   4.934  12.421  0.0019 -0.0166 -0.3032
 5371W        W20988  13.733   8.935  14.852 -0.1209 -0.0353 -0.0497
 5372W        W20989   9.191  12.871  12.569 -0.2824 -0.0440  0.0516
 5373W        W20990  11.844  17.625   1.653  0.1715 -0.2760 -0.1603
 5374W        W20991   9.344   8.350   5.211  0.0406  0.1039 -0.0198
 5375W        W20992   7.211   3.819  16.636 -0.2977  0.3878  0.1023
 5376W        W20993   2.474   9.237  11.886 -0.0542 -0.1293  0.0814
 5377W        W20994  13.555  14.622   5.415 -0.0536  0.1435 -0.0626
 5378W        W20995  12.139   5.982   4.469  0.1327  0.2834 -0.1798
 5379W        W20996   4.537   2.354   1.863  0.1229 -0.1303 -0.1286
 5380W        W20997  15.537  16.203   1.462  0.0884  0.0753 -0.1336
 5381W        W20998  10.608  12.115  12.211  0.1097  0.0104  0.1029
 5382W        W20999  11.989   2.796   2.901  0.1938 -0.2196  0.2180
 5383W        W21000  10.158   6.072  14.385 -0.3189 -0.3244 -0.0279
 5384W        W21001  16.829  17.639   3.364 -0.0242  0.1084  0.1885
 5385W        W21002  13.281   0.704  11.656 -0.0991 -0.4798 -0.2383
 5386W        W21003  16.452   4.596  12.873 -0.1195 -0.2405 -0.0379
 5387W        W21004  12.674  10.024   2.058 -0.1451 -0.2836 -0.0839
 5388W        W21005   7.676  15.925   3.687 -0.2511 -0.1476 -0.0308
 5389W        W21006  13.767  14.012   2.702 -0.0611  0.1865 -0.0445
 5390W        W21007   8.732  11.690  13.111  0.1428  0.1313 -0.1909
 5391W        W21008   1.330  10.783  13.723 -0.0638  0.1279 -0.3205
 5392W        W21009  15.404  12.777  13.591 -0.0090  0.0789 -0.3005
 5393W        W21010   5.114   3.773  11.704  0.0877  0.2418 -0.1828
 5394W        W21011   0.450   0.237  16.292 -0.2918 -0.1605 -0.1957
 5395W        W21012   2.270   5.161   3.245  0.1103  0.1563  0.1377
 5396W        W21013   3.765   1.155  13.005  0.0967  0.0621 -0.0214
 5397W        W21014   7.107   5.341   4.703 -0.0141  0.0208 -0.2456
 5398W        W21015   2.717  15.101  10.208 -0.1337 -0.1147 -0.2249
 5399W        W21016  17.247  17.416   3.454 -0.1806 -0.0438  0.1915
 5400W        W21017   8.485   6.437  14.528  0.0013 -0.2163  0.1268
 5401W        W21018   7.968   5.026  16.361 -0.2296  0.0420 -0.0835
 5402W        W21019   6.423   5.550   3.209  0.2498 -0.1354  0.0712
 5403W        W21020   5.056   9.808   4.165  0.0182  0.2739  0.2655
 5404W        W21021   5.525   4.768   5.597 -0.2994 -0.3467 -0.0588
 5405W        W21022  10.718  14.682   3.844 -0.0844 -0.2835 -0.2321
 5406W        W21023   9.913   1.345   3.530 -0.2871  0.0624  0.1927
 5407W        W21024   9.036  10.924   3.158  0.1155 -0.4235  0.1191
 5408W        W21025   0.633   0.064   1.922 -0.3637  0.0125  0.1387
 5409W        W21026   9.116   5.009   1.763  0.0171  0.0580  0.1215
 5410W        W21027  17.012  11.301  12.699 -0.0003 -0.0202  0.2970
 5411W        W21028   8.746  10.472   3.344  0.1464  0.0280  0.1270
 5412W        W21029   6.951   3.201   2.515 -0.0645  0.2859 -0.1655
 5413W        W21030   0.304   3.143  11.532 -0.1737 -0.0279  0.2798
 5414W        W21031  17.315  14.792   3.646 -0.2620 -0.2531  0.1527
 5415W        W21032  14.418   9.968   3.152 -0.0809  0.1549  0.1385
 5416W        W21033   9.253  15.893  12.212 -0.1320 -0.1362 -0.1580
 5417W        W21034  12.249   4.378  14.465 -0.1030 -0.1031 -0.1036
 5418W        W21035   5.309   4.652   4.396 -0.1238 -0.1480 -0.1156
 5419W        W21036  13.959   3.510   2.605 -0.0320  0.0494 -0.4016
 5420W        W21037   2.998  15.605   4.915 -0.0771 -0.0358  0.2348
 5421W        W21038   7.997   2.570  13.563  0.1684 -0.0227 -0.2355
 5422W        W21039  12.257   1.567  15.011  0.2290 -0.1000  0.1123
 5423W        W21040   4.157  16.927   3.555  0.1464 -0.2429  0.5084
 5424W        W21041  12.354   0.337  12.029 -0.1799  0.0984 -0.0079
 5425W        W21042  16.945  16.659   4.451  0.1262  0.4629  0.4098
 5426W        W21043  16.488  13.654   5.573  0.0003 -0.1436 -0.0076
 5427W        W21044   7.886   9.908   5.308  0.1106 -0.3292 -0.4379
 5428W        W21045  11.963   1.667   2.849 -0.0300 -0.2625 -0.1400
 5429W        W21046   3.070  15.305  12.073  0.1288  0.3980 -0.0089
 5430W        W21047   7.432   3.899   2.696  0.2240  0.0313 -0.1724
 5431W        W21048  17.166   5.700   2.943 -0.2337 -0.0814 -0.0832
 5432W        W21049   4.270  16.579   1.430 -0.2224 -0.1244  0.1800
 5433W        W21050  15.680   4.934  12.871  0.0790  0.0113 -0.3952
 5434W        W21051   0.577  14.737  13.723 -0.1635  0.2501  0.1757
 5435W        W21052   0.719  16.308   5.959 -0.2160  0.3121  0.4756
 5436W        W21053  13.105   2.752   3.510 -0.0134 -0.0458 -0.0088
 5437W        W21054   3.225   2.437  13.696  0.1897 -0.3724  0.0681
 5438W        W21055  15.770   1.643   2.988 -0.0094 -0.1425 -0.1560
 5439W        W21056  11.429   2.048   2.181 -0.1908  0.2325 -0.2869
 5440W        W21057   3.049  14.024  12.186  0.0209 -0.0775 -0.1238
 5441W        W21058   3.295  13.271  16.378  0.0669  0.2880  0.0811
 5442W        W21059   8.483   1.482  13.583 -0.0209 -0.1882 -0.1326
 5443W        W21060   2.978   4.985  11.583  0.4160  0.1136  0.2357
 5444W        W21061   0.153  17.483  15.254 -0.2102  0.0939 -0.1870
 5445W        W21062   0.260   6.985   4.038 -0.4432 -0.1596 -0.3530
 5446W        W21063   2.274   3.528   2.670  0.1030  0.2019  0.1449
 5447W        W21064  15.844  12.758  12.680 -0.0990 -0.2775 -0.1202
 5448W        W21065   5.771   2.182  11.761 -0.1483  0.0780 -0.0970
 5449W        W21066  16.204   8.323   5.107  0.0384 -0.0757  0.1497
 5450W        W21067   4.865  13.241   5.009 -0.1420 -0.0312  0.2170
 5451W        W21068   5.352   7.129   5.853  0.1732 -0.0021  0.3408
 5452W        W21069   0.435  12.425  13.040  0.1584  0.0719 -0.0491
 5453W        W21070   7.587   4.812   2.804 -0.0839 -0.2508 -0.2500
 5454W        W21071  16.304   2.968  15.234 -0.0720 -0.2468 -0.1417
 5455W        W21072   0.633   7.355   1.756  0.0248  0.0420  0.1278
 5456W        W21073   8.948   3.150  15.731  0.1068  0.0537 -0.0909
 5457W        W21074  10.410  17.749  14.416 -0.1289  0.0378  0.1127
 5458W        W21075   0.775   3.315   1.697  0.1007 -0.0253  0.0090
 5459W        W21076  15.381  10.279  12.874 -0.0314  0.0912 -0.0652
 5460W        W21077   5.113   4.359   2.211 -0.1216  0.3380 -0.1191
 5461W        W21078   7.945   0.845   2.503 -0.0648  0.1410  0.0919
 5462W        W21079   2.741   7.883  15.458  0.0878  0.0475  0.2123
 5463W        W21080  12.663  12.073  14.813 -0.2992 -0.3063 -0.2135
 5464W        W21081  17.344  16.877   4.079  0.1601  0.0133 -0.0428
 5465W        W21082   6.045   9.882   0.169  0.1136  0.0455  0.3333
 5466W        W21083   6.722  16.182  11.833 -0.0366 -0.0320  0.1600
 5467W        W21084   0.101  16.860  15.823 -0.1327 -0.0834 -0.0346
 5468W        W21085   3.927  16.901  15.501 -0.0993  0.1430 -0.1387
 5469W        W21086  15.733  14.440  16.051 -0.2362  0.0372  0.0744
 5470W        W21087  10.826   3.500  14.914  0.3985 -0.1389 -0.1953
 5471W        W21088  10.944   6.227   2.750 -0.0448 -0.1808 -0.1119
 5472W        W21089  10.264  14.757  11.635  0.1830  0.0308 -0.1183
 5473W        W21090  12.261   8.023  16.628  0.1380 -0.1310 -0.3101
 5474W        W21091  15.332   0.085  13.836  0.0783 -0.0096 -0.0890
 5475W        W21092  10.323   0.672  13.941 -0.1547  0.0965 -0.2674
 5476W        W21093   1.736  16.157  11.630  0.1261 -0.0573 -0.2321
 5477W        W21094   3.336  14.032   2.485 -0.2312  0.0113 -0.4136
 5478W        W21095   9.678   7.226   4.851 -0.0838  0.2643 -0.1358
 5479W        W21096   4.353   7.337   4.634 -0.1066 -0.2411  0.0367
 5480W        W21097   0.878  10.697   0.264  0.0922 -0.0335 -0.1052
 5481W        W21098   3.832   7.472  12.326  0.2703  0.1212 -0.2174
 5482W        W21099  12.997  12.059   3.820 -0.0964  0.1726  0.0507
 5483W        W21100  17.193  12.189   0.127 -0.0159  0.0597  0.2167
 5484W        W21101  14.672   5.648   6.102 -0.0246  0.4760  0.1513
 5485W        W21102   4.567   9.582  16.371  0.2041  0.2032 -0.1480
 5486W        W21103   7.233  15.354  13.503 -0.0365 -0.0427  0.0038
 5487W        W21104  16.803   7.352   4.154 -0.1312  0.2664 -0.0946
 5488W        W21105   0.423  15.678  10.595  0.0135  0.0812  0.1577
 5489W        W21106  13.912   3.570  12.559  0.2517 -0.2383  0.0730
 5490W        W21107  14.446  15.806  13.531  0.1539  0.0353 -0.3594
 5491W        W21108   1.788  17.300   0.045  0.0103  0.1363 -0.0269
 5492W        W21109   7.421   4.925  11.159  0.1403  0.0698 -0.2426
 5493W        W21110  15.490   2.753  12.187 -0.0684 -0.1568 -0.2517
 5494W        W21111  11.226   5.877   2.115 -0.1974  0.1677 -0.2383
 5495W        W21112   7.467  15.605  14.399  0.4895  0.0039 -0.1231
 5496W        W21113   3.316   2.788   3.027 -0.5267 -0.0267  0.0304
 5497W        W21114   1.775   1.233   1.849 -0.2256  0.0658  0.1779
 5498W        W21115   5.095   6.242   0.306 -0.1281  0.0558 -0.2803
 5499W        W21116   8.569   9.937   1.473  0.1114  0.1667  0.1748
 5500W        W21117   0.486   1.155  11.904  0.0900 -0.0670  0.3347
 5501W        W21118  17.149  10.169   2.304  0.1097  0.0747 -0.0250
 5502W        W21119   4.721   8.387  15.992 -0.1755  0.0012 -0.0739
 5503W        W21120   1.446  14.272  15.204  0.0913 -0.3228 -0.1259
 5504W        W21121  10.861  16.552  15.984  0.0368 -0.0700 -0.3003
 5505W        W21122   3.600  13.766  16.665 -0.1877 -0.0991  0.1445
 5506W        W21123   3.699   1.800  15.803  0.0048  0.0245  0.0429
 5507W        W21124   3.371  11.616  14.408  0.0182 -0.1667  0.2971
 5508W        W21125  11.169  17.465   5.807 -0.2304  0.1447  0.2421
 5509W        W21126   1.141   9.720  14.928 -0.1987 -0.0529  0.2799
 5510W        W21127   7.475  11.538   4.596  0.2489  0.1095 -0.1774
 5511W        W21128  12.567  12.417  16.811 -0.0040  0.3340 -0.2654
 5512W        W21129  12.976  17.277   0.743 -0.0801  0.1507 -0.1463
 5513W        W21130  16.601   5.940   4.344 -0.0396  0.1876 -0.3626
 5514W        W21131  14.032   6.210  14.556 -0.2492  0.2187 -0.0542
 5515W        W21132   2.508  16.850  16.242  0.3232  0.1107  0.2999
 5516W        W21133   7.661  14.181   2.142  0.3366  0.0273  0.1513
 5517W        W21134   2.614  14.679   5.078  0.0307 -0.0247 -0.3157
 5518W        W21135   0.658  11.669  15.964 -0.2170 -0.0470  0.5940
 5519W        W21136   5.278  15.048   4.194 -0.0545  0.0822  0.2055
 5520W        W21137   5.408  10.193  13.233 -0.1560 -0.2339 -0.0422
 5521W        W21138  16.320  16.964   5.690 -0.1461  0.1905 -0.1677
 5522W        W21139  12.000  15.584  12.650 -0.1761  0.2557  0.1176
 5523W        W21140  10.838   4.199  12.255  0.0888  0.3736 -0.2993
 5524W        W21141   8.540  17.693   3.987  0.1579 -0.1372 -0.4507
 5525W        W21142   0.016   5.946  12.369  0.1673 -0.3121  0.0370
 5526W        W21143   8.827   0.558  12.124 -0.0026 -0.2818 -0.3644
 5527W        W21144  11.013   8.140   4.218 -0.0287  0.0867 -0.2113
 5528W        W21145   6.039  16.211  14.174 -0.4022 -0.0898 -0.0077
 5529W        W21146   3.065  14.560   0.251  0.2118  0.0921  0.1509
 5530W        W21147   3.419   3.261   0.646 -0.1030 -0.1978 -0.0009
 5531W        W21148  16.649   2.542   0.999 -0.1564 -0.2931  0.0658
 5532W        W21149  13.026  16.823  15.467  0.3976 -0.0464  0.1819
 5533W        W21150  16.823   9.252  13.676 -0.0286 -0.4394  0.2938
 5534W        W21151   6.283   2.591   3.380 -0.1990 -0.2947 -0.2179
 5535W        W21152   3.814   1.729   4.901 -0.0226 -0.1555 -0.0812
 5536W        W21153  16.150   4.508   5.255  0.4638  0.0589 -0.0109
 5537W        W21154   7.387  14.260   1.607  0.2197  0.0888 -0.4560
 5538W        W21155  13.416   0.832   2.387 -0.0544  0.2028  0.0084
 5539W        W21156  16.211   6.555   3.134  0.0778  0.0538  0.4223
 5540W        W21157   3.932  17.484   1.699 -0.0260 -0.0688  0.0524
 5541W        W21158  16.024   8.469   3.626 -0.0950  0.1571 -0.0587
 5542W        W21159  17.869   7.026   5.524  0.1735 -0.0179 -0.0884
 5543W        W21160  12.295  13.889  13.433  0.1344  0.2751 -0.1944
 5544W        W21161   4.639  13.438   1.183 -0.0055 -0.0403  0.1654
 5545W        W21162   5.265   6.829   2.610  0.0749 -0.3120 -0.1464
 5546W        W21163  12.901   3.966  10.721 -0.1818  0.0341  0.1752
 5547W        W21164  13.705   8.639  15.797 -0.0008 -0.3231 -0.1352
 5548W        W21165  13.221  14.539  13.933 -0.1981  0.0331  0.0941
 5549W        W21166   8.249   3.907   1.327 -0.1931  0.2057 -0.0765
 5550W        W21167  15.905  15.438  11.791  0.0474  0.0875 -0.2270
 5551W        W21168  14.783   7.892  14.882  0.1721 -0.2214  0.0077
 5552W        W21169   0.548   8.880   5.001  0.0924  0.2263 -0.0491
 5553W        W21170   2.994   0.262  14.356  0.1927  0.0760 -0.1583
 5554W        W21171   3.599  10.388  14.291 -0.3961  0.1908 -0.1396
 5555W        W21172   0.569  14.763  14.374 -0.0826  0.0055  0.5554
 5556W        W21173   8.578  12.198  14.517  0.1425 -0.0215 -0.2138
 5557W        W21174   9.783   1.765  14.039  0.0712 -0.0650 -0.1335
 5558W        W21175   6.495  15.316   5.642  0.1857 -0.1474  0.0098
 5559W        W21176   0.849   1.442  11.762 -0.0337 -0.0061  0.1844
 5560W        W21177   3.352  13.628   2.845  0.0685  0.1402 -0.0197
 5561W        W21178   1.088   6.981  16.267  0.0492  0.0212  0.0108
 5562W        W21179  11.005   8.604  13.762 -0.0559 -0.0778 -0.2926
 5563W        W21180  17.620  17.565   5.152  0.0103  0.0355 -0.1298
 5564W        W21181   6.249  16.599   6.523 -0.4140 -0.3013  0.1871
 5565W        W21182   9.659   7.978   5.372 -0.0366 -0.0729  0.1297
 5566W        W21183  14.491   2.498   1.132 -0.1590  0.0447  0.0854
 5567W        W21184  10.269   0.356  11.037 -0.2929 -0.1962  0.2364
 5568W        W21185   2.597   1.642  13.640 -0.2956 -0.0375  0.2072
 5569W        W21186   1.355  15.540  15.258 -0.1234 -0.0967 -0.0189
 5570W        W21187   4.334  11.823   3.989 -0.1838 -0.1823 -0.1296
 5571W        W21188   9.151  14.393   2.743 -0.0979 -0.3137  0.2348
 5572W        W21189   5.863  16.426   1.436 -0.2990 -0.0448  0.0137
 5573W        W21190   7.936  13.851  13.103 -0.0839  0.0435  0.1215
 5574W        W21191  17.839  15.774  12.040 -0.0222  0.1888  0.0934
 5575W        W21192  11.649  10.814  11.853 -0.1256 -0.0239 -0.2539
 5576W        W21193   5.085  15.717   0.177 -0.0344 -0.0739  0.2418
 5577W        W21194   3.264   9.473  15.911  0.1141 -0.1347 -0.2302
 5578W        W21195   1.648   5.465   5.503 -0.1727  0.1653  0.2578
 5579W        W21196   0.785  13.184  14.839 -0.0692  0.0603  0.2489
 5580W        W21197  14.773  11.005   0.381 -0.1551 -0.1960  0.1507
 5581W        W21198   8.498  12.037   0.458  0.0126 -0.1000  0.2143
 5582W        W21199  13.480  16.258  13.343  0.1642 -0.1629 -0.1075
 5583W        W21200  14.029   7.182   4.791  0.0621  0.0053 -0.1609
 5584W        W21201   4.148  16.912  14.178  0.1557  0.0184 -0.3865
 5585W        W21202   4.022   9.000  15.765  0.1501 -0.1538  0.2316
 5586W        W21203  15.466   3.889   1.221 -0.1865  0.0061  0.0916
 5587W        W21204   7.942  16.889  14.677 -0.0047  0.2236 -0.1575
 5588W        W21205  10.170  15.205  15.675  0.1081 -0.2057 -0.0526
 5589W        W21206   9.334  12.691  16.699  0.2106  0.0016 -0.1487
 5590W        W21207  12.335  13.829   2.366  0.1097 -0.3029 -0.1357
 5591W        W21208  16.566   7.752   2.431  0.2409  0.0284  0.1748
 5592W        W21209   3.951   1.298  14.566 -0.1425  0.2078 -0.2474
 5593W        W21210   8.269  15.696  15.075 -0.1631  0.0610  0.0771
 5594W        W21211   0.597  16.148  15.235  0.1491 -0.2804 -0.0038
 5595W        W21212   5.606  17.802  15.083 -0.0721 -0.1251 -0.0726
 5596W        W21213   8.798  12.289  13.200 -0.0080  0.0686 -0.0883
 5597W        W21214   4.121   5.920  15.871 -0.1165 -0.3256  0.1537
 5598W        W21215   2.671  16.678  12.136 -0.2037 -0.0166 -0.0366
 5599W        W21216  10.325  15.433   6.230  0.0263 -0.0946 -0.3592
 5600W        W21217  17.777   5.506  13.749 -0.0099  0.3255  0.0036
 5601W        W21218  11.289  14.496  12.909 -0.1768  0.2917  0.2470
 5602W        W21219  10.917  12.866  12.465  0.0158  0.2391 -0.1688
 5603W        W21220   8.003  17.474   3.991  0.0311  0.0733 -0.2121
 5604W        W21221  17.731   9.380   5.218  0.0612 -0.2364  0.0362
 5605W        W21222  17.748   2.136   6.197  0.2040  0.0487 -0.0638
 5606W        W21223  10.051   9.720  15.043  0.0206 -0.0240 -0.2233
 5607W        W21224  16.834  10.129  13.649  0.1889 -0.2193 -0.0609
 5608W        W21225   3.120  15.047   4.619  0.1211 -0.2482 -0.0886
 5609W        W21226   8.217   4.141   2.299 -0.0396 -0.1796  0.1625
 5610W        W21227   4.655  14.827   2.574 -0.1261  0.0546  0.3346
 5611W        W21228   9.025   6.931  16.657  0.1418  0.2077 -0.0400
 5612W        W21229  14.679   0.372  16.136 -0.0157  0.0148 -0.1826
 5613W        W21230   3.071  10.277  16.828 -0.1979 -0.4113  0.2281
 5614W        W21231  16.788   9.485   1.280  0.2384 -0.1307 -0.1807
 5615W        W21232  17.696  17.822  15.096  0.0698 -0.2326  0.2375
 5616W        W21233   4.816  10.771  15.977 -0.2852 -0.1616 -0.0406
 5617W        W21234   5.426   5.247  12.992 -0.2364  0.0896 -0.0644
 5618W        W21235   3.035   0.518  15.813  0.0232  0.0652 -0.0156
 5619W        W21236  16.524   3.937   1.070 -0.0546 -0.1049 -0.3587
 5620W        W21237   1.365   8.720  14.713 -0.0217 -0.3185 -0.1174
 5621W        W21238  17.635   4.741  14.436  0.0359  0.1081  0.1950
 5622W        W21239   1.424   9.261   0.099 -0.2705  0.1519 -0.0578
 5623W        W21240   0.163   7.255  13.285  0.2524  0.2233  0.1535
 5624W        W21241   8.876  17.336  16.475 -0.1333 -0.0139 -0.0837
 5625W        W21242  13.670   2.764   3.666 -0.1680  0.1467  0.0469
 5626W        W21243  16.760  16.306  11.650  0.0546 -0.0036 -0.2245
 5627W        W21244   1.239   7.489   3.045 -0.1098 -0.0627  0.1595
 5628W        W21245   1.959  11.855   4.721 -0.1667 -0.1298  0.0426
 5629W        W21246   5.905  17.686  13.669 -0.1827 -0.1724 -0.2991
 5630W        W21247   7.144  17.652   5.048  0.2595 -0.1122  0.2260
 5631W        W21248   3.994   1.802  13.732 -0.3213 -0.0025  0.0239
 5632W        W21249   8.655  11.559  15.982 -0.0253 -0.2538  0.0315
 5633W        W21250  17.038   4.831  13.717  0.0645 -0.2143 -0.1688
 5634W        W21251   6.117   6.842   5.731 -0.0656  0.0626  0.4369
 5635W        W21252  16.930   6.910  15.555  0.1432 -0.2513  0.2069
 5636W        W21253   5.424  16.832   0.403  0.1469 -0.1745 -0.1470
 5637W        W21254  14.098  12.175   5.885 -0.0483  0.1663 -0.0169
 5638W        W21255  12.721   6.832   1.996 -0.2606  0.2065  0.2733
 5639W        W21256  17.071   5.477  16.076  0.0853  0.1224  0.0762
 5640W        W21257   6.686   8.236   0.004 -0.0168 -0.2614 -0.0633
 5641W        W21258   2.082   7.184  15.434 -0.0960 -0.4033 -0.0792
 5642W        W21259   7.450   1.700  13.981  0.1015  0.1119  0.1443
 5643W        W21260  10.801  11.555  16.284  0.3240  0.0846  0.2528
 5644W        W21261   2.333   8.954   0.783  0.1848 -0.1809  0.1689
 5645W        W21262  10.172   3.645  15.782 -0.6597 -0.2713  0.0124
 5646W        W21263  16.579   4.560   5.072  0.0223 -0.0228 -0.3688
 5647W        W21264   6.124  14.009  15.680  0.1065 -0.0393 -0.4024
 5648W        W21265   9.949   6.198   3.186 -0.0916  0.0604 -0.0012
 5649W        W21266   8.479  12.391  15.671 -0.0861 -0.1137 -0.0751
 5650W        W21267  14.387   4.086   1.750  0.0352 -0.1002 -0.0567
 5651W        W21268  15.097   7.383  12.021  0.1093  0.0664  0.0670
 5652W        W21269  16.039  17.409  11.457 -0.2426  0.3376  0.2394
 5653W        W21270  16.690  14.652  12.220 -0.0980  0.2666 -0.1376
 5654W        W21271   3.236   0.743  11.290  0.2060 -0.0878 -0.2915
 5655W        W21272   1.388   8.569   1.544  0.2004  0.0591  0.0044
 5656W        W21273   5.220   9.731  15.605  0.2111 -0.0095  0.0765
 5657W        W21274   5.552  10.563   0.059 -0.2056 -0.0115  0.3233
 5658W        W21275   4.037   8.075   5.090  0.1027  0.2184  0.3368
 5659W        W21276   9.170   7.149  12.672 -0.1365  0.1407 -0.0569
 5660W        W21277  16.790   0.928  11.415 -0.0992  0.0153  0.0545
 5661W        W21278   1.028  13.194  13.148  0.0256 -0.1681 -0.1199
 5662W        W21279  14.212  11.494  16.553  0.0877 -0.0136 -0.2081
 5663W        W21280   0.537   9.833   0.798 -0.0893  0.2645  0.1129
 5664W        W21281  14.882   4.442  13.744  0.2083 -0.2968  0.0075
 5665W        W21282   9.329   0.475  14.179 -0.0151  0.2397  0.0686
 5666W        W21283  10.822  11.510   0.470 -0.0910 -0.2990 -0.1251
 5667W        W21284   9.890   4.375  15.073  0.0955 -0.0745 -0.0306
 5668W        W21285  15.480  14.255   3.560  0.0103  0.0199 -0.2171
 5669W        W21286  14.833   4.899  12.848 -0.1835  0.3501  0.0393
 5670W        W21287   8.571  17.206   3.728 -0.0009  0.2479  0.1136
 5671W        W21288  10.022   3.590   3.276  0.0735  0.2581  0.1364
 5672W        W21289  11.873  14.851   1.652 -0.1298  0.0516  0.1672
 5673W        W21290  13.708  16.610  16.134  0.1550 -0.1017  0.1999
 5674W        W21291   9.606  14.072   3.932  0.0709  0.1984 -0.0893
 5675W        W21292   3.793   6.946   4.992 -0.1450 -0.1774  0.1479
 5676W        W21293  10.413   2.712  13.121 -0.3158  0.2754 -0.1980
 5677W        W21294  11.866   0.884  16.279 -0.0947 -0.0203  0.3131
 5678W        W21295  16.882   3.466   0.126  0.1908  0.2311 -0.3784
 5679W        W21296  12.920  13.047  12.683 -0.0891 -0.0215  0.0143
 5680W        W21297  17.478  12.705  14.443  0.0640  0.2467  0.0959
 5681W        W21298   3.148   3.743   3.145  0.4578  0.0059 -0.1137
 5682W        W21299   4.788  10.781  14.999 -0.2526  0.1742  0.1114
 5683W        W21300   2.962  16.670   4.427  0.1492 -0.1020 -0.2740
 5684W        W21301  17.688  13.134   6.582 -0.0350 -0.2116 -0.2799
 5685W        W21302   5.937   6.316   5.758 -0.0777  0.2691 -0.0320
 5686W        W21303  13.806  11.970  12.134 -0.0610  0.5951  0.0234
 5687W        W21304  10.245   3.483   4.217  0.0359  0.1277 -0.0355
 5688W        W21305   3.161  14.043   4.228  0.1827  0.1194 -0.1171
 5689W        W21306   9.492  11.799   6.029  0.0251  0.1770 -0.2514
 5690W        W21307  17.709   9.294  13.857  0.0764 -0.0331 -0.0733
 5691W        W21308  10.239   0.490   1.836 -0.1096  0.0383  0.2137
 5692W        W21309  13.923   8.530  16.271  0.2087  0.1473  0.3035
 5693W        W21310   2.108  13.582   2.824  0.0628  0.2795 -0.0312
 5694W        W21311  14.420   3.670   3.453  0.0706 -0.1682 -0.1931
 5695W        W21312   2.513   6.271   5.307  0.0877  0.1847 -0.0763
 5696W        W21313   7.633   9.657   1.659  0.1210  0.0349 -0.2546
 5697W        W21314   4.506   4.822   3.311 -0.1560  0.1664 -0.0831
 5698W        W21315   8.752   1.826  12.011  0.4714  0.3837  0.2237
 5699W        W21316  17.780  13.981  12.336  0.6670  0.2914  0.0679
 5700W        W21317  14.626   2.467   3.310  0.0477 -0.1419 -0.0033
 5701W        W21318  10.310   7.410   3.608  0.0243  0.0628  0.1037
 5702W        W21319  12.498  14.760   3.477 -0.0398  0.1917 -0.1379
 5703W        W21320   0.344  15.800  16.568  0.1751 -0.0798 -0.2072
 5704W        W21321  15.160   8.540  16.191 -0.0668 -0.0090 -0.0144
 5705W        W21322   6.014   5.184   3.257  0.1536 -0.0348  0.0541
 5706W        W21323  14.365   8.098   3.703  0.0549 -0.2691  0.1602
 5707W        W21324  13.166  11.609  13.693 -0.0037 -0.1802 -0.1004
 5708W        W21325   2.927  11.296  14.758 -0.1734  0.0096 -0.0349
 5709W        W21326  13.547   5.029   4.687 -0.2293 -0.2395 -0.0848
 5710W        W21327   7.846  16.979   1.736  0.4456 -0.1521 -0.1982
 5711W        W21328   3.911   0.209  10.716  0.0845 -0.1614  0.1453
 5712W        W21329   7.948   9.780  13.471  0.0081  0.0796 -0.1601
 5713W        W21330  11.232  11.465   3.175  0.0955 -0.0133  0.2400
 5714W        W21331   1.573  15.876  12.439  0.1827  0.0066 -0.2159
 5715W        W21332  11.939  15.774   2.843  0.0527 -0.1443  0.0005
 5716W        W21333  12.855   5.413   3.796  0.0002 -0.0016  0.0748
 5717W        W21334   4.323   0.520   0.014 -0.2630  0.0404 -0.0615
 5718W        W21335   3.173   8.826   0.613  0.0453 -0.1328 -0.1007
 5719W        W21336   6.300  14.110   4.904 -0.0798 -0.1280 -0.3699
 5720W        W21337  13.095  16.515  13.201  0.0738 -0.4609 -0.0869
 5721W        W21338  16.031  14.383  12.983 -0.0386  0.2167  0.0003
 5722W        W21339   0.563  16.482  16.065 -0.0053 -0.1905  0.0390
 5723W        W21340   5.094   0.576  11.379  0.2577 -0.2374 -0.0793
 5724W        W21341  16.311  11.557  14.343  0.5830 -0.2136 -0.4533
 5725W        W21342   7.593  12.236   2.597  0.2052  0.2485 -0.3331
 5726W        W21343   2.730   5.980  12.440 -0.1150  0.0025  0.0662
 5727W        W21344   9.894  11.408   4.305  0.2701  0.1721  0.1795
 5728W        W21345   0.984   0.051  13.614  0.3344  0.0521  0.3205
 5729W        W21346   4.183   4.749  11.767 -0.0574 -0.2398 -0.0141
 5730W        W21347  11.144  11.197   5.660  0.2595 -0.0886 -0.0553
 5731W        W21348  16.767   3.344   1.407  0.0944 -0.0992  0.0478
 5732W        W21349   0.186  15.297  12.465 -0.1303  0.2669  0.1398
 5733W        W21350  16.797  10.699  13.969  0.0885  0.2131  0.0083
 5734W        W21351   5.302  10.076  14.367  0.0335 -0.2574  0.1742
 5735W        W21352  14.093  14.136   0.110  0.0439  0.1004 -0.0869
 5736W        W21353   8.186   3.324  13.720 -0.2034  0.1661  0.1048
 5737W        W21354   6.739  16.370   1.417 -0.2248 -0.3948 -0.1281
 5738W        W21355  15.120  17.547   4.491  0.1026 -0.0868  0.0463
 5739W        W21356   6.952   6.946  16.055 -0.2243  0.4377  0.2737
 5740W        W21357   1.433  13.477  12.469 -0.3211 -0.0095  0.0442
 5741W        W21358  17.624  17.594  15.598 -0.1752  0.0644 -0.3210
 5742W        W21359   6.123   4.513  15.032 -0.2840  0.0104  0.1210
 5743W        W21360  10.677   6.158   1.222  0.0245  0.1556 -0.2919
 5744W        W21361  10.243   4.257  14.768  0.3874  0.1255  0.0782
 5745W        W21362   2.439   6.048   3.479 -0.1812 -0.1170  0.1862
 5746W        W21363  17.423  16.624  16.751  0.2141 -0.2085  0.1077
 5747W        W21364  16.948  14.217   0.258 -0.1132 -0.0150 -0.0492
 5748W        W21365   7.027   5.445  11.679  0.0710  0.1260 -0.0323
 5749W        W21366   2.946   7.271   1.385  0.1948 -0.1472 -0.1025
 5750W        W21367   0.529   7.275   3.075  0.2727  0.1050 -0.0699
 5751W        W21368  12.579   9.975   1.175 -0.1835 -0.3285 -0.2096
 5752W        W21369   4.338   4.500  12.456  0.2200  0.1316  0.3258
 5753W        W21370   6.392  13.151  13.315 -0.0924 -0.0418  0.0129
 5754W        W21371  14.753   9.517  15.646  0.0097  0.0567 -0.0198
 5755W        W21372   6.161   7.020  13.560  0.0162  0.4500  0.1026
 5756W        W21373   3.348  17.780  13.628  0.1510  0.1235  0.0954
 5757W        W21374  14.703  17.501   1.543 -0.2142 -0.0777  0.3274
 5758W        W21375  10.152   0.362  14.421  0.1854 -0.0277 -0.0770
 5759W        W21376   1.963  15.464  13.306 -0.1118  0.0507 -0.0306
 5760W        W21377  12.122   0.966   1.989 -0.0880  0.5008 -0.2821
 5761W        W21378   6.755  15.197  13.392 -0.1193  0.2378 -0.0582
 5762W        W21379   4.541  12.884   1.857  0.0414 -0.0770  0.1347
 5763W        W21380   4.946   4.186   1.639  0.0419 -0.3800 -0.0679
 5764W        W21381   0.148   6.378   4.558 -0.1225 -0.0234 -0.0434
 5765W        W21382   3.128   7.710  12.894  0.1943  0.0118  0.0444
 5766W        W21383  16.204  12.117  11.546 -0.0481  0.0690  0.3144
 5767W        W21384   2.468   8.789   1.258 -0.2212  0.1118 -0.1984
 5768W        W21385  16.607   7.785   4.508 -0.1211  0.0112 -0.2629
 5769W        W21386  17.710   3.160   4.319 -0.0642 -0.1142 -0.2444
 5770W        W21387   2.175   3.444   1.394 -0.0958  0.1340  0.0168
 5771W        W21388   3.455  16.746  12.986 -0.2602  0.1581  0.1601
 5772W        W21389  16.208   1.416  13.186 -0.0204 -0.1823  0.1374
 5773W        W21390   4.789   1.836   5.140 -0.0021  0.2209 -0.1891
 5774W        W21391   0.738   9.281   3.038 -0.0531 -0.1245 -0.5291
 5775W        W21392   5.186  16.105   3.031 -0.1700 -0.1059  0.1610
 5776W        W21393   8.557   2.032   2.549 -0.1780  0.1264 -0.0701
 5777W        W21394   0.431   5.757  12.658 -0.1694  0.2046 -0.2677
 5778W        W21395   5.761  12.483   1.899 -0.2790 -0.0691  0.0320
 5779W        W21396   4.587  15.701   5.510  0.0739 -0.1317  0.1795
 5780W        W21397  16.717  16.554   3.978  0.1653 -0.0242  0.0048
 5781W        W21398  14.932   2.152   4.295 -0.1733 -0.0710 -0.0855
 5782W        W21399  11.619   0.761   2.262 -0.1070 -0.0051  0.0527
 5783W        W21400   5.395  11.757  11.260 -0.0321 -0.0595 -0.3065
 5784W        W21401   2.992  17.591   1.002  0.1047 -0.0849 -0.2072
 5785W        W21402  10.571   4.948   5.014  0.0453 -0.0933 -0.0777
 5786W        W21403  11.817   7.753   0.543  0.0172  0.2645  0.2748
 5787W        W21404  17.739   8.337  12.287 -0.1149  0.0056  0.1791
 5788W        W21405   3.669  10.391  15.312 -0.3988  0.1214 -0.1276
 5789W        W21406   9.475   7.114  14.901  0.1549 -0.1130  0.0092
 5790W        W21407   1.917   1.624   5.436  0.2498  0.1711  0.1157
 5791W        W21408   4.955   5.992  15.299  0.1454  0.2349 -0.2293
 5792W        W21409  17.509  10.016  15.555  0.1022  0.1345 -0.1142
 5793W        W21410  15.259  15.807  13.878 -0.0367 -0.2146 -0.2216
 5794W        W21411   9.536  10.546  13.196 -0.2505 -0.0935  0.0739
 5795W        W21412   0.701  17.617  11.824 -0.1595  0.0281  0.0720
 5796W        W21413   0.691   3.656   4.307 -0.0313  0.1489 -0.1851
 5797W        W21414   8.852  14.929  13.153 -0.0416 -0.0356 -0.1454
 5798W        W21415   5.006  12.390   2.109 -0.0673 -0.0940 -0.1120
 5799W        W21416  11.354  11.311   1.973  0.1682 -0.0602 -0.0059
 5800W        W21417  11.209  11.728  13.413  0.1340 -0.0551 -0.1491
 5801W        W21418  10.668  10.615   5.532  0.0904 -0.2595  0.3442
 5802W        W21419  11.676  13.481   4.606 -0.0047 -0.2448  0.0491
 5803W        W21420   1.204  10.653   3.193 -0.0940  0.1056 -0.1860
 5804W        W21421  10.340  13.947  11.312 -0.2426 -0.1280 -0.1149
 5805W        W21422   3.259  15.167   0.374 -0.0032  0.1805  0.0548
 5806W        W21423  16.774  14.765  13.848  0.5500 -0.1062  0.1025
 5807W        W21424   0.581   6.598   3.772 -0.0311  0.1425  0.2664
 5808W        W21425   9.088  10.095  11.611  0.0920 -0.1339 -0.1819
 5809W        W21426   3.649   2.881  14.383  0.0803  0.0504 -0.0526
 5810W        W21427  17.102  13.982  13.568  0.1587  0.0196  0.1003
 5811W        W21428   3.554   2.423   0.755 -0.0599  0.1037 -0.0673
 5812W        W21429  11.847   1.733   4.347  0.1063 -0.2385 -0.4058
 5813W        W21430  12.640  15.874  16.543 -0.1598  0.0069  0.0038
 5814W        W21431  11.715  10.986   4.712  0.2662 -0.0010 -0.2449
 5815W        W21432  12.063   3.759  15.312 -0.0290 -0.1917 -0.0089
 5816W        W21433  13.737   5.401   0.051  0.0545  0.0085  0.0957
 5817W        W21434   6.196  14.999  11.616  0.1332  0.0258  0.1583
 5818W        W21435  13.758   2.903   4.159  0.0116 -0.1580 -0.5135
 5819W        W21436   1.294   4.487   5.435 -0.0860 -0.2896  0.2285
 5820W        W21437  11.493   9.803  13.202 -0.1246  0.3781 -0.3081
 5821W        W21438   2.312   8.527   4.684 -0.1623  0.1208  0.1439
 5822W        W21439   7.680   5.896  12.333  0.1381  0.2185 -0.2531
 5823W        W21440   6.141  11.561  16.441 -0.1275  0.2394  0.1692
 5824W        W21441  13.791  13.998   1.990 -0.1255 -0.1948 -0.0860
 5825W        W21442   5.109   9.129  15.713  0.0651 -0.0630 -0.0464
 5826W        W21443   9.331  14.602  15.584 -0.2487  0.0177  0.0253
 5827W        W21444   6.628   3.737  16.049 -0.0031 -0.0100 -0.0553
 5828W        W21445  11.244   2.373  15.586  0.0544  0.4178  0.3300
 5829W        W21446   7.111   1.727   5.902 -0.2240 -0.1103 -0.0257
 5830W        W21447   2.528   1.437   3.661  0.1432 -0.2312 -0.1098
 5831W        W21448  12.998   7.639   5.657  0.0900  0.1779 -0.1382
 5832W        W21449  17.385  11.429  13.358 -0.5818 -0.0967  0.1888
 5833W        W21450  17.066  15.110   2.645  0.0730  0.4575  0.1597
 5834W        W21451  17.735  13.496   4.447 -0.0815 -0.0593 -0.3786
 5835W        W21452  14.382  16.587   2.847 -0.0744  0.3445  0.0755
 5836W        W21453  15.424  10.441   3.857 -0.1136  0.0520 -0.2911
 5837W        W21454  13.610   7.074   2.881  0.1599  0.1124 -0.0307
 5838W        W21455  16.584   7.487   1.232 -0.0547  0.2472 -0.1412
 5839W        W21456   6.716   5.587  13.880  0.0118  0.1402  0.2543
 5840W        W21457   1.881   6.429   1.703 -0.0264  0.0478  0.0289
 5841W        W21458   2.867   6.077  14.294 -0.0292  0.0522 -0.1004
 5842W        W21459  16.839   2.779  12.629  0.1684  0.1835 -0.1815
 5843W        W21460  16.661   8.746  12.296  0.0954 -0.2218 -0.0348
 5844W        W21461  13.539   7.069  12.502 -0.1151 -0.0377 -0.0116
 5845W        W21462   8.201  11.078   1.737  0.2431  0.2127 -0.0121
 5846W        W21463  10.957   8.163  13.571  0.0405 -0.1269  0.0354
 5847W        W21464   9.478   6.627   0.454 -0.1729  0.2482 -0.1157
 5848W        W21465   9.159   0.266  15.397 -0.0550  0.0367  0.0842
 5849W        W21466  16.549   7.176  12.624  0.3006 -0.2567  0.3147
 5850W        W21467  10.823   3.618   2.576 -0.1489 -0.1060  0.1082
 5851W        W21468   5.701  10.014  13.718  0.0058 -0.0695  0.2396
 5852W        W21469   1.265  14.755  15.693  0.2300 -0.0759  0.2926
 5853W        W21470  16.314   4.272   0.525  0.1209  0.0882  0.1716
 5854W        W21471   7.165   5.896   1.315 -0.0379 -0.0672 -0.2531
 5855W        W21472   4.133   3.104  14.129 -0.0305 -0.4028  0.1362
 5856W        W21473  10.211  10.872  15.302 -0.2664 -0.1851 -0.3148
 5857W        W21474   6.202  15.152   4.645  0.0234  0.2778 -0.1377
 5858W        W21475  12.283   8.646  15.855 -0.3036 -0.5017 -0.2964
 5859W        W21476   5.108   9.787  16.751 -0.1290  0.2724  0.0287
 5860W        W21477   4.865  15.165   0.915  0.0668 -0.3344  0.1993
 5861W        W21478  10.736  17.070   3.424  0.0127  0.0563  0.2492
 5862W        W21479   7.766   1.648   2.366 -0.2107  0.0720 -0.0129
 5863W        W21480  13.646   6.950  13.612 -0.3322 -0.2450  0.0244
 5864W        W21481   2.981  16.180   1.842 -0.1311  0.2323 -0.3389
 5865W        W21482   0.901   6.362   4.410  0.2153 -0.0885  0.0072
 5866W        W21483   6.034   7.088  15.178  0.3083 -0.0321 -0.0503
 5867W        W21484  11.305   3.399  14.718 -0.1945 -0.0863 -0.2087
 5868W        W21485   3.806   2.833  11.556 -0.1867  0.2286  0.0563
 5869W        W21486   2.129  17.194  16.063  0.3084  0.2462 -0.0408
 5870W        W21487  16.071  13.876   5.344  0.1742  0.0575 -0.3154
 5871W        W21488   5.105  17.000  11.293 -0.0037  0.0897 -0.1767
 5872W        W21489  11.494  12.012  12.699 -0.0213 -0.2038 -0.1527
 5873W        W21490   8.615   2.816   5.484 -0.1121  0.2739 -0.2982
 5874W        W21491  10.039  12.296   4.005 -0.2909 -0.1852  0.0807
 5875W        W21492   9.124  13.418   1.219 -0.0868 -0.1419  0.2933
 5876W        W21493   9.243   0.131  13.486 -0.1624  0.3097  0.0978
 5877W        W21494  17.802  13.092  14.557  0.2419 -0.0667 -0.0706
 5878W        W21495   1.048   6.518  14.395  0.1615 -0.3123  0.3937
 5879W        W21496   6.121  10.522   3.910 -0.4121  0.2201  0.0478
 5880W        W21497  12.169  17.667  16.451  0.1893 -0.2266 -0.1472
 5881W        W21498   7.424  15.969   0.825 -0.2372 -0.0863 -0.0525
 5882W        W21499   6.829  16.777  15.567 -0.1939  0.0002  0.0330
 5883W        W21500  15.697  11.874  15.239  0.0842 -0.3184  0.0550
 5884W        W21501  12.629   1.725   0.736 -0.0736  0.1634 -0.1820
 5885W        W21502  13.636   6.981   5.165  0.3211 -0.1577  0.0726
 5886W        W21503  11.936   2.139  13.876 -0.2702  0.3250  0.0450
 5887W        W21504  11.858  12.138   4.223 -0.0707  0.0815 -0.2572
 5888W        W21505  11.486   1.853   4.790  0.0795 -0.0525  0.1967
 5889W        W21506   6.512   4.163  14.977 -0.1592  0.1025  0.2906
 5890W        W21507   0.706   3.562   0.503 -0.3486 -0.3815 -0.1492
 5891W        W21508   0.242   4.312   5.439 -0.1966 -0.0914  0.1009
 5892W        W21509  16.043   0.142  12.201  0.2549 -0.2262 -0.5232
 5893W        W21510   9.798   0.837  12.016  0.1211 -0.1294  0.4533
 5894W        W21511   4.945  10.720   3.808  0.1061  0.0850 -0.0713
 5895W        W21512  10.565   6.513   3.463 -0.1570  0.1214 -0.0661
 5896W        W21513  14.203   4.637  16.459 -0.0224 -0.3710  0.2045
 5897W        W21514   0.047  15.014  13.793  0.4077 -0.0113  0.2945
 5898W        W21515   3.529   9.448   3.407 -0.1234  0.1515 -0.2318
 5899W        W21516   7.191   4.306  16.359 -0.1535 -0.3805 -0.0198
 5900W        W21517   4.240  14.140  13.080 -0.0914  0.0341 -0.0315
 5901W        W21518   0.867  16.445  10.039 -0.0230 -0.0637  0.0065
 5902W        W21519  16.465  17.803   0.943 -0.2956 -0.1349  0.2653
 5903W        W21520   8.363   4.228  15.802 -0.1518 -0.3092  0.1132
 5904W        W21521   3.078  16.389  13.211  0.0344  0.3353  0.2078
 5905W        W21522   9.444  13.584   5.140  0.4065 -0.1635  0.1815
 5906W        W21523   4.186   9.804   1.034  0.1669 -0.1517  0.0510
 5907W        W21524  16.982   6.096  13.480  0.0632  0.2273  0.0352
 5908W        W21525  16.447   2.080   1.079  0.1496 -0.0263 -0.0100
 5909W        W21526  10.101   9.227   5.003  0.0529  0.0311 -0.4900
 5910W        W21527  14.407  14.849  16.347  0.0286  0.0711 -0.1365
 5911W        W21528   5.113   7.328   2.462  0.1354 -0.3007  0.0148
 5912W        W21529  11.282   0.989   3.964  0.1330 -0.2545  0.0274
 5913W        W21530  14.580   1.399  16.503  0.0139 -0.0719 -0.0293
 5914W        W21531   7.820  13.037  14.905  0.0812  0.1415 -0.2522
 5915W        W21532  12.542   8.177  15.742  0.0518 -0.4440 -0.3141
 5916W        W21533   6.826   3.761   0.133  0.1089 -0.1230 -0.2743
 5917W        W21534   3.548   7.868  15.057  0.1982 -0.1948  0.0180
 5918W        W21535  15.468   8.067  13.563  0.0998  0.1759  0.3535
 5919W        W21536   0.533  12.528  14.293  0.3222 -0.0904 -0.0742
 5920W        W21537  15.795  15.835  15.742 -0.0475 -0.2411  0.0785
 5921W        W21538   4.332  16.075  15.927 -0.0432  0.1661  0.0510
 5922W        W21539   2.259  14.931  16.464  0.2215  0.0562  0.2399
 5923W        W21540  14.665  10.886   5.984 -0.0017  0.0101  0.1077
 5924W        W21541   6.106  15.556  12.137 -0.0829 -0.1940 -0.0535
 5925W        W21542   0.356   6.103   0.827  0.0790 -0.2204  0.2001
 5926W        W21543   2.507  17.668   3.231  0.0536  0.0407  0.1435
 5927W        W21544  16.472   1.453  12.172 -0.1215 -0.3681 -0.1291
 5928W        W21545   6.505  14.337   4.392  0.3511 -0.1803  0.0561
 5929W        W21546  12.915   4.165  13.488  0.3019 -0.2893  0.1230
 5930W        W21547   6.429  15.904   4.370  0.1734  0.2772 -0.0545
 5931W        W21548  10.297  14.418   2.100 -0.2726  0.0115  0.3951
 5932W        W21549  13.018   4.937  14.300  0.1163 -0.0163 -0.0593
 5933W        W21550   4.581  15.967   1.980 -0.1146  0.1828 -0.1024
 5934W        W21551  14.479   1.713   2.610  0.2142  0.1362  0.0192
 5935W        W21552   5.211  10.220  13.875  0.2909 -0.0609  0.1099
 5936W        W21553   1.185   6.415  12.673 -0.0103  0.1877 -0.1080
 5937W        W21554  14.575   7.743   0.201 -0.2149  0.0358  0.1145
 5938W        W21555   8.420   9.825   2.202 -0.0327 -0.0108 -0.2597
 5939W        W21556  15.724  12.270   6.640 -0.1013 -0.0200 -0.3805
 5940W        W21557  10.570   2.511  16.796 -0.0766 -0.4322 -0.0771
 5941W        W21558   9.851   3.723   1.175  0.1504 -0.0996 -0.0769
 5942W        W21559  14.985   6.059   3.549  0.0018 -0.3182  0.0379
 5943W        W21560  16.417   6.417   4.506  0.3048  0.0673  0.0274
 5944W        W21561  10.781   7.920  15.432  0.0048  0.2193  0.0518
 5945W        W21562   5.330  16.074   5.839 -0.3194 -0.1567 -0.3037
 5946W        W21563  11.034  13.447   3.472 -0.0926 -0.1382  0.0037
 5947W        W21564   8.118   1.263   3.902  0.0435  0.0522 -0.3066
 5948W        W21565  11.920   5.460   4.375  0.0223 -0.1661  0.0543
 5949W        W21566   3.799  10.342   2.377 -0.1344  0.0186 -0.0446
 5950W        W21567   0.373   3.782  13.685  0.1009  0.1258 -0.0683
 5951W        W21568   6.077  11.344  14.810 -0.1157 -0.2826 -0.0338
 5952W        W21569   7.630   3.568  11.589  0.0019  0.2296 -0.3920
 5953W        W21570   6.788   9.793   4.097  0.1104  0.0138 -0.1012
 5954W        W21571   3.736  17.527  13.938 -0.1767 -0.0698  0.0184
 5955W        W21572   5.062   3.840   2.070  0.0849 -0.1775 -0.2138
 5956W        W21573  14.466   7.663  14.517 -0.0210  0.1657  0.1492
 5957W        W21574   4.485   6.691   2.225  0.1867 -0.0499  0.0299
 5958W        W21575   6.600  10.181   0.789  0.0602  0.2449 -0.0163
 5959W        W21576   7.118  14.624  12.327 -0.1043  0.3090  0.1047
 5960W        W21577   1.376   7.690  14.723  0.0804  0.0523 -0.0707
 5961W        W21578   1.827  12.979   1.988 -0.2518  0.0341  0.0984
 5962W        W21579   1.408   6.242  14.597  0.0712 -0.0414  0.2856
 5963W        W21580   9.670  12.129   4.852  0.0900 -0.1797 -0.0515
 5964W        W21581  10.066   7.072  14.849 -0.3674 -0.1908  0.0656
 5965W        W21582  15.857   8.032   4.878  0.0828  0.1021 -0.1024
 5966W        W21583  14.200   6.277  15.100  0.2713 -0.3437  0.0345
 5967W        W21584   2.499  15.976  12.929 -0.2866  0.1686 -0.1464
 5968W        W21585   5.907   9.534  15.165 -0.2654 -0.0186  0.3565
 5969W        W21586   9.147   9.148  13.638 -0.1743  0.0853 -0.1117
 5970W        W21587  15.039   2.800  14.093  0.2394  0.1707 -0.1585
 5971W        W21588  10.211   2.218  16.487 -0.2203 -0.3387 -0.0078
 5972W        W21589  15.250   1.749  12.708 -0.0100  0.0657  0.0073
 5973W        W21590   3.760  17.731  14.450 -0.1110 -0.2133 -0.0366
 5974W        W21591  17.781   5.090   4.360 -0.1385  0.1524  0.2654
 5975W        W21592  14.085   8.235  15.862 -0.0875  0.2251  0.0038
 5976W        W21593   5.057   1.235   3.981 -0.0142  0.1941 -0.3980
 5977W        W21594   9.969   5.236  14.336  0.0597  0.0700 -0.3122
 5978W        W21595   0.993   7.391   5.382  0.0877 -0.0024 -0.3524
 5979W        W21596  17.300   5.267   0.650 -0.2933  0.2773 -0.1379
 5980W        W21597   8.472   1.344   1.712  0.0809 -0.0395 -0.0764
 5981W        W21598   6.949  10.987   2.448 -0.1165  0.0035  0.2912
 5982W        W21599  16.987  15.900  15.453  0.0434 -0.2681  0.1129
 5983W        W21600   1.920   0.128  11.547  0.0327 -0.3588  0.0419
 5984W        W21601   3.650   1.780  12.283 -0.3706  0.1168  0.1099
 5985W        W21602   1.399   9.225  12.364 -0.2635 -0.0172 -0.2284
 5986W        W21603  10.819   0.225  15.669 -0.0117  0.2276  0.2267
 5987W        W21604   6.096   9.723  14.188 -0.2245  0.0260  0.0378
 5988W        W21605   5.781  10.536  13.096 -0.2718 -0.1012 -0.1951
 5989W        W21606  12.112  17.278  15.009 -0.1975 -0.2828  0.2995
 5990W        W21607  15.253  17.390   6.010  0.3169 -0.4669 -0.0393
 5991W        W21608  13.100  14.536   5.793  0.0777 -0.3729 -0.2576
 5992W        W21609   0.953  11.366   4.496  0.0129  0.1342 -0.1449
 5993W        W21610  15.789   6.207  16.663 -0.1315 -0.0655 -0.3923
 5994W        W21611   5.796  14.443   0.854  0.0128 -0.1160  0.0787
 5995W        W21612  12.910   7.916   1.138  0.0733 -0.1989  0.1407
 5996W        W21613  10.408  14.647  13.943  0.1406 -0.1640 -0.0509
 5997W        W21614  15.575   1.014   5.200 -0.1941  0.0197 -0.0719
 5998W        W21615   1.238   0.147  11.292 -0.0423  0.3198  0.0446
 5999W        W21616   0.633   5.067  14.528  0.4567  0.5325  0.0883
 6000W        W21617  15.018  13.538   2.999  0.1106  0.0381 -0.2082
 6001W        W21618  12.943   0.994   2.266  0.1896 -0.0957  0.2320
 6002W        W21619  16.182   2.893   4.141  0.0647  0.1242  0.2306
 6003W        W21620  16.961  13.493  11.440  0.1086 -0.0030 -0.1411
 6004W        W21621   7.527   3.229  13.464  0.0517 -0.0799  0.3243
 6005W        W21622   0.329   4.269  16.693 -0.2683  0.0334 -0.0610
 6006W        W21623  12.813  16.035  14.505 -0.0377  0.0221 -0.0961
 6007W        W21624  13.783   0.287  15.493  0.1219  0.0101  0.0994
 6008W        W21625  11.243   5.921   1.483 -0.0540 -0.2783 -0.0368
 6009W        W21626  13.449  10.884   2.881 -0.0916 -0.1882 -0.1608
 6010W        W21627  13.339   9.324  13.301 -0.0915  0.1979 -0.2439
 6011W        W21628  13.347   6.652  13.249  0.0967  0.3626 -0.0487
 6012W        W21629  11.428   2.879   3.614  0.2566 -0.2968 -0.1785
 6013W        W21630   0.602  12.476   3.292 -0.1785 -0.0052  0.1113
 6014W        W21631   6.485  12.330   4.583  0.1426 -0.4352  0.1243
 6015W        W21632  13.896   4.513   5.620 -0.0153  0.0378 -0.0808
 6016W        W21633   1.118   8.689   2.302 -0.6211 -0.2212  0.0205
 6017W        W21634   6.978   8.938  15.596 -0.0654  0.1119 -0.1340
 6018W        W21635  10.402  16.723   3.133 -0.1299 -0.0989 -0.1567
 6019W        W21636   1.957   6.879   2.485  0.2131 -0.0205  0.1239
 6020W        W21637   6.112   3.853  14.927 -0.0427 -0.0824 -0.0668
 6021W        W21638   3.854   2.680   4.815 -0.2189  0.0911 -0.0224
 6022W        W21639  11.559   1.204   4.377 -0.2986  0.2859  0.0242
 6023W        W21640  17.077   9.932   5.263  0.0229 -0.1438  0.0030
 6024W        W21641  10.520  17.689   5.127  0.3219 -0.0687  0.0333
 6025W        W21642   9.636   9.889   4.023  0.0855 -0.1867 -0.4198
 6026W        W21643   0.085   5.369   4.707 -0.0833 -0.0952 -0.0913
 6027W        W21644   0.063  14.800  16.223 -0.1553 -0.0135 -0.1820
 6028W        W21645  14.985   4.825  13.417 -0.0014  0.0869 -0.1920
 6029W        W21646  12.946  11.585  15.097 -0.0041  0.0002  0.1751
 6030W        W21647   8.112  10.282   5.078 -0.0447 -0.2365  0.0113
 6031W        W21648   5.997  10.805   0.187 -0.0809  0.0060 -0.1355
 6032W        W21649   6.669   5.320   3.860 -0.2448 -0.0164  0.1667
 6033W        W21650   0.428   0.971   2.904  0.3069 -0.4039  0.0226
 6034W        W21651  15.623   7.219  14.764 -0.3822 -0.3274  0.1900
 6035W        W21652   2.516   5.617   1.991  0.1632 -0.1021  0.0722
 6036W        W21653  17.656   0.224  15.764  0.0047  0.2094 -0.0499
 6037W        W21654   7.375   6.130   0.973  0.1424 -0.1114 -0.1578
 6038W        W21655  10.470  10.563  14.985 -0.2834  0.0321  0.2798
 6039W        W21656  17.637  17.102   1.420 -0.1059  0.1768 -0.2402
 6040W        W21657  16.762   0.360  14.383 -0.0597  0.0907  0.1332
 6041W        W21658  14.787   9.782   1.119  0.0352  0.0185 -0.1641
 6042W        W21659  17.656   9.348  14.769  0.1952 -0.1533 -0.3696
 6043W        W21660   9.454   3.463   0.349  0.1722  0.1531  0.0702
 6044W        W21661   0.487   5.834   3.109  0.4053 -0.0657  0.1828
 6045W        W21662  15.608   5.137   6.160  0.0882 -0.1061 -0.3399
 6046W        W21663  12.707   8.133   5.248 -0.0200 -0.0663  0.0228
 6047W        W21664   4.615   6.082   5.472  0.1105 -0.0586 -0.2571
 6048W        W21665  14.173  17.432  15.974 -0.2981  0.0989 -0.0113
 6049W        W21666  11.491  14.384   0.098  0.0015 -0.1929 -0.3152
 6050W        W21667  15.567   4.373   1.010 -0.0546  0.2926 -0.0826
 6051W        W21668   7.382  14.162  12.327  0.0974  0.1736 -0.0776
 6052W        W21669   5.791  17.723   1.496 -0.0823 -0.1357 -0.3116
 6053W        W21670   9.264   4.127   2.565 -0.0273 -0.2990  0.5497
 6054W        W21671   9.108   7.904  16.700  0.0989  0.0929  0.2302
 6055W        W21672   9.981  16.483   1.714  0.1937 -0.2582 -0.0518
 6056W        W21673   2.529   2.197  16.383 -0.2708  0.0345  0.1769
 6057W        W21674   5.239   9.761  13.666 -0.0239  0.2773 -0.0383
 6058W        W21675   2.850   8.550  14.033  0.3199  0.2072 -0.0618
 6059W        W21676  11.216   1.767  14.683 -0.1717 -0.1336 -0.3376
 6060W        W21677   6.370   7.404  13.305 -0.4354 -0.0951 -0.0578
 6061W        W21678  11.574   7.459   5.742 -0.0782  0.1197 -0.0424
 6062W        W21679  12.382   3.455  13.607 -0.1269  0.2184  0.0950
 6063W        W21680  13.065  10.163  13.077  0.0116  0.0472  0.2019
 6064W        W21681   5.429   7.587  13.679 -0.1656  0.2270 -0.3758
 6065W        W21682  16.586   7.405   5.814 -0.1738 -0.1022 -0.0617
 6066W        W21683  13.498  14.137  13.933  0.1480 -0.1593  0.0064
 6067W        W21684   2.079   9.003  11.793 -0.0144  0.2163 -0.0172
 6068W        W21685   6.070   5.693  14.661  0.0026  0.3108 -0.1717
 6069W        W21686   4.210  10.795  11.826  0.3236  0.0710  0.2550
 6070W        W21687   7.299  15.198   4.181  0.1982 -0.1385 -0.0820
 6071W        W21688  13.501  15.486  10.548 -0.3504  0.1624  0.0102
 6072W        W21689   5.466   2.357  13.507 -0.3106 -0.1168  0.1186
 6073W        W21690   3.893  16.044  12.614 -0.1370  0.1681  0.2958
 6074W        W21691  15.129  11.930  11.617 -0.4118 -0.1148  0.2095
 6075W        W21692   0.936  13.465   1.330  0.1314 -0.0390 -0.2397
 6076W        W21693  12.547   5.889   5.103 -0.3387  0.0980 -0.4080
 6077W        W21694   3.970  14.391  14.352  0.0797  0.0557  0.2586
 6078W        W21695  10.060  11.251  13.080 -0.0235  0.0105 -0.2016
 6079W        W21696  14.897  14.726  12.058  0.1289  0.1640 -0.0528
 6080W        W21697  13.895   1.965   1.435 -0.2144  0.1629  0.3361
 6081W        W21698   9.362   0.031   5.170  0.1416 -0.1554  0.2719
 6082W        W21699  14.879  12.753  15.750 -0.0861 -0.1375  0.1669
 6083W        W21700  17.388   7.324   2.309 -0.0010  0.0235 -0.0138
 6084W        W21701   0.826   6.295   2.043 -0.2184 -0.1119 -0.0781
 6085W        W21702   8.493  16.423   4.629 -0.2653  0.0856  0.1536
 6086W        W21703   4.070   7.098  14.457 -0.0288 -0.3051  0.1871
 6087W        W21704   0.174  16.703  16.328 -0.4001 -0.0419 -0.0800
 6088W        W21705  15.498  15.102  11.501  0.1719 -0.1899  0.0879
 6089W        W21706  14.451   2.645  16.337 -0.1351  0.1376  0.2019
 6090W        W21707   0.018   2.105  11.513  0.0364 -0.0604  0.1525
 6091W        W21708  15.202   4.527   5.834 -0.0951 -0.0818 -0.1951
 6092W        W21709   1.336   2.174  12.388 -0.0138  0.0217 -0.0847
 6093W        W21710   5.683  17.413  15.889  0.2501  0.0442 -0.1446
 6094W        W21711   5.387  17.291  15.037 -0.3053  0.2215  0.1632
 6095W        W21712  17.782  11.791  13.810 -0.0422  0.0924  0.1523
 6096W        W21713  11.171  14.595  13.429 -0.0839 -0.0383  0.3221
 6097W        W21714   5.280   1.849   2.747  0.1639  0.0433  0.1032
 6098W        W21715  12.945  12.140   0.211 -0.0654 -0.4262  0.0453
 6099W        W21716   0.188   3.996  13.135  0.0066  0.0930 -0.2767
 6100W        W21717  12.497  16.057  12.541  0.2297  0.1305  0.0923
 6101W        W21718   9.827   6.403  14.487 -0.0735  0.2277 -0.1409
 6102W        W21719   2.159  12.299   4.499 -0.0388 -0.1109 -0.2572
 6103W        W21720  10.325   9.235  13.586  0.1199  0.2164  0.2517
 6104W        W21721  12.586  12.032   4.708 -0.0933  0.0297  0.1156
 6105W        W21722  12.583  12.590   4.813 -0.0505 -0.1168  0.1131
 6106W        W21723   5.684  15.419  14.783  0.1227  0.0250 -0.1083
 6107W        W21724  17.652   4.796   2.129  0.0753  0.0375  0.0104
 6108W        W21725   0.477   4.788   5.079 -0.0919  0.2802 -0.0371
 6109W        W21726  17.021   4.056  14.760 -0.1067  0.0936  0.1989
 6110W        W21727   1.785  10.246  15.451  0.2152 -0.0931  0.2654
 6111W        W21728  11.804   1.594  15.888 -0.2469  0.1919 -0.1327
 6112W        W21729   8.194  17.062   0.036 -0.3614 -0.1677  0.1114
 6113W        W21730   9.300   1.350  11.594  0.1854  0.2940  0.0270
 6114W        W21731  15.702   7.465  12.039 -0.0957 -0.1860  0.1321
 6115W        W21732  13.081   2.664  16.453 -0.0998 -0.2221 -0.0894
 6116W        W21733   3.919   7.835   1.828  0.2042 -0.2398 -0.1425
 6117W        W21734   3.432  14.116   3.805  0.0899 -0.1622  0.2595
 6118W        W21735   5.902   3.170   5.775  0.2959 -0.0535 -0.1650
 6119W        W21736  12.734   0.220   3.429  0.2534 -0.0541  0.0495
 6120W        W21737  12.689  14.627   0.058  0.2606  0.0514  0.0724
 6121W        W21738   9.365  11.071  14.632 -0.1524  0.0636  0.0430
 6122W        W21739   6.753  16.625   2.237 -0.1354 -0.1137  0.0991
 6123W        W21740  13.185   1.566  14.598 -0.1427  0.1636  0.0369
 6124W        W21741  10.414   9.393   1.622 -0.1185 -0.0510 -0.1204
 6125W        W21742  16.423   9.879   4.860  0.0805 -0.3317  0.0274
 6126W        W21743   3.672  17.060  11.806  0.0088  0.0089 -0.1720
 6127W        W21744  16.790  16.785  11.231  0.2000  0.2066 -0.2152
 6128W        W21745  15.364  15.999  16.134  0.0243  0.0549  0.2634
 6129W        W21746   9.669   3.841   3.566  0.0907 -0.1294  0.1119
 6130W        W21747   3.631  10.106   1.121 -0.2611  0.2795 -0.0286
 6131W        W21748   7.431   5.106  16.315 -0.2124  0.1310  0.2140
 6132W        W21749   1.297   4.451  11.536 -0.1045  0.0935 -0.0593
 6133W        W21750   2.430  16.913  13.382  0.0280  0.0747  0.0890
 6134W        W21751   3.805   9.158   3.730 -0.2633 -0.1302 -0.1568
 6135W        W21752   6.879  10.668   2.885  0.1622 -0.0429  0.1713
 6136W        W21753   8.302  15.467  13.091 -0.0656  0.0447 -0.1339
 6137W        W21754   9.272  11.264   1.684 -0.2206 -0.0327  0.4181
 6138W        W21755   0.492  13.254   1.400  0.1406 -0.1339  0.3360
 6139W        W21756   7.790   9.594  14.368  0.0568 -0.0182  0.3859
 6140W        W21757  16.894  13.510   0.757 -0.0538  0.2602 -0.1482
 6141W        W21758  14.638  17.490   5.783  0.0741 -0.3701  0.2151
 6142W        W21759   7.965   4.140  15.439  0.1359 -0.0512 -0.1399
 6143W        W21760   1.620  10.463   1.521  0.1780 -0.0833  0.2329
 6144W        W21761   6.599  14.761   5.394 -0.0217  0.2190 -0.2077
 6145W        W21762  13.726  13.702  10.908 -0.0001 -0.0066 -0.0324
 6146W        W21763   1.770   5.073  12.979  0.1804 -0.0844 -0.1716
 6147W        W21764   4.285  11.457   1.520 -0.4170  0.0094  0.1491
 6148W        W21765   0.728   9.933   2.276 -0.0463  0.0973 -0.0593
 6149W        W21766   4.011   6.815   2.316 -0.2635  0.0725 -0.2044
 6150W        W21767  15.913   6.266  14.494  0.1086 -0.0375 -0.0808
 6151W        W21768  13.931  14.915  12.270  0.1234  0.2764 -0.1444
 6152W        W21769  10.976  10.267  13.063 -0.3581  0.0201  0.1538
 6153W        W21770  16.583   8.102  15.392  0.0728 -0.0956  0.1463
 6154W        W21771  15.333   8.943   0.946 -0.4281  0.0469  0.1634
 6155W        W21772   5.352  16.516   1.599  0.0328 -0.0356 -0.0127
 6156W        W21773  11.471   8.948  15.513  0.0927 -0.0031  0.0282
 6157W        W21774   3.407   2.251   4.313 -0.0875  0.1965 -0.1204
 6158W        W21775  11.575   6.023   1.054 -0.0637 -0.3445 -0.2300
 6159W        W21776   2.885   8.995  13.600 -0.0631 -0.0380  0.1642
 6160W        W21777   2.745   8.904   2.214 -0.0261  0.1094  0.2322
 6161W        W21778  16.315   6.752  13.050 -0.1354  0.0107  0.1869
 6162W        W21779  15.092   6.697   4.030 -0.0670 -0.0002 -0.2119
 6163W        W21780   2.571  15.656  15.901  0.2178  0.0176  0.0228
 6164W        W21781   1.184   9.854   6.043 -0.2049 -0.0377 -0.1575
 6165W        W21782   5.190  13.438  14.864  0.1005  0.1261  0.2232
 6166W        W21783   6.798   4.613  15.680  0.1210  0.0619 -0.0052
 6167W        W21784  16.313   8.117   0.066 -0.1301 -0.1610  0.0847
 6168W        W21785  15.242  17.176   3.080  0.1648  0.2346  0.1683
 6169W        W21786  11.465  11.870   4.333  0.1956 -0.0781  0.1466
 6170W        W21787   0.008  11.450   6.144  0.2522 -0.3056 -0.1900
 6171W        W21788   7.165   1.729  16.472  0.2399 -0.0029  0.1171
 6172W        W21789  11.013  14.366  12.456  0.1495  0.1713 -0.1536
 6173W        W21790  12.861   0.411   2.900 -0.1115 -0.1714  0.2410
 6174W        W21791  11.547  17.761  11.990  0.1931 -0.0084 -0.0095
 6175W        W21792   9.663  15.675   1.950 -0.0001  0.0439  0.0356
 6176W        W21793   6.460   4.160   2.921 -0.3256  0.0243 -0.3088
 6177W        W21794   5.866   5.736  12.697  0.2081  0.2043  0.1293
 6178W        W21795   0.833  16.313   4.992  0.1920 -0.0789  0.2009
 6179W        W21796   8.113   9.131   1.140 -0.0804  0.1476  0.2495
 6180W        W21797   6.033   0.222  14.192 -0.2186 -0.0485 -0.3128
 6181W        W21798  13.656  17.389   4.824  0.2321 -0.1127 -0.0636
 6182W        W21799   8.662  15.529   0.454  0.2922 -0.0568 -0.0754
 6183W        W21800   9.617   9.199  13.814  0.0741  0.3610  0.1295
 6184W        W21801  13.198  10.377   0.823 -0.1779 -0.1635 -0.0455
 6185W        W21802   6.695  14.407  14.762  0.2633 -0.0573  0.1086
 6186W        W21803  10.759  15.323   5.796  0.1157  0.1058 -0.1682
 6187W        W21804   7.087   9.673   2.761  0.2657 -0.0086  0.0739
 6188W        W21805   0.067   7.003  12.497  0.0579  0.2897 -0.1241
 6189W        W21806   9.333  14.023   2.975  0.2116  0.0758  0.0256
 6190W        W21807   6.838  15.178   4.072 -0.1353 -0.0426 -0.1762
 6191W        W21808  16.355  12.264  12.013  0.0369  0.1047 -0.0690
 6192W        W21809   2.163   8.598  16.218  0.2280  0.1369 -0.1001
 6193W        W21810   9.075  10.586  15.638 -0.2890  0.2234  0.0259
 6194W        W21811  13.475  15.883  16.500  0.2780  0.1958 -0.0434
 6195W        W21812  10.939   4.878   1.924 -0.2786  0.4634  0.0795
 6196W        W21813  14.990   4.082  15.766  0.1529 -0.0729  0.0928
 6197W        W21814   1.614   9.708  12.482 -0.2040  0.0449 -0.0807
 6198W        W21815   5.122   2.657  15.427 -0.0609  0.0363 -0.0490
 6199W        W21816   8.635   3.251  13.392 -0.3028  0.1092 -0.0469
 6200W        W21817  16.432  12.027  14.450  0.1270  0.3364  0.0825
 6201W        W21818  17.162   7.406  13.530  0.1025 -0.4566  0.0394
 6202W        W21819  16.280   5.905   4.727  0.1277  0.0739 -0.2772
 6203W        W21820  15.673   1.980  12.471 -0.1994  0.1912  0.1794
 6204W        W21821   9.695  15.406   5.809 -0.0718 -0.0050  0.1478
 6205W        W21822   2.523  13.810  16.089  0.0700  0.0833  0.2376
 6206W        W21823   6.496   4.113   6.570  0.3193 -0.3221 -0.0145
 6207W        W21824   2.338  15.156  14.666 -0.3068 -0.1955  0.1464
 6208W        W21825  15.649  15.058   2.076  0.1988 -0.2292 -0.3576
 6209W        W21826  17.228  14.446   1.805 -0.0699 -0.1988  0.0635
 6210W        W21827   1.210   0.993   4.100  0.0244  0.1083 -0.0842
 6211W        W21828   1.295  12.027  16.034  0.0107 -0.0793 -0.2137
 6212W        W21829  17.029   9.591   2.370 -0.1402 -0.1208  0.0693
 6213W        W21830   1.388  12.269   0.320  0.0020 -0.1090 -0.1206
 6214W        W21831  17.241   0.137   1.352 -0.0031 -0.2615 -0.3603
 6215W        W21832  11.244   2.141   3.101  0.0706 -0.0823 -0.1417
 6216W        W21833  14.053   5.612  12.865 -0.1416 -0.3537  0.0455
 6217W        W21834   9.885  16.289  14.218 -0.1837  0.0666  0.0378
 6218W        W21835   1.907  13.070   4.757 -0.4226  0.0411  0.0006
 6219W        W21836   4.797   0.074  16.161 -0.1488  0.1544 -0.2520
 6220W        W21837  11.748   8.916   4.401 -0.1758  0.0141  0.0950
 6221W        W21838  15.343   6.129  12.096 -0.1909  0.0927 -0.1412
 6222W        W21839   5.048   3.872  14.924  0.2097  0.0374  0.1150
 6223W        W21840   6.265  14.394  13.178  0.2625  0.1381  0.0247
 6224W        W21841   6.946   1.235   5.961  0.0269 -0.0465  0.0234
 6225W        W21842   8.189   2.192   1.227  0.0219 -0.0399  0.2228
 6226W        W21843  16.852  14.093   3.229 -0.0504  0.0729 -0.0770
 6227W        W21844   9.434  10.810   1.691 -0.0143  0.0298 -0.2810
 6228W        W21845  16.237  13.945  13.102 -0.0281  0.1798  0.0069
 6229W        W21846   3.746  15.895   4.405 -0.2497 -0.0833  0.0749
 6230W        W21847   1.523  13.395   2.162  0.0161 -0.1266  0.1725
 6231W        W21848  10.445  15.477  13.625  0.2449 -0.0063  0.1824
 6232W        W21849  15.708   7.256  14.050  0.0028 -0.0573 -0.1738
 6233W        W21850  13.580   0.287   2.205  0.1924  0.0882 -0.1244
 6234W        W21851   4.620  13.893  16.730 -0.2928 -0.1629  0.1267
 6235W        W21852  17.479   1.529   3.061  0.0043 -0.0555 -0.1608
 6236W        W21853   8.729  14.320  13.815  0.1240 -0.1936 -0.2537
 6237W        W21854  11.390  10.187   4.429 -0.3428  0.0150  0.1264
 6238W        W21855  12.234   9.292  15.298 -0.1577  0.1026  0.0469
 6239W        W21856  11.053   8.380   3.137  0.2283 -0.1608  0.0080
 6240W        W21857   5.555   4.048  11.967 -0.1301  0.2456  0.0020
 6241W        W21858  11.484   4.485   4.505  0.2844  0.1758 -0.0175
 6242W        W21859  15.501  11.780   0.846 -0.1132 -0.1084  0.0133
 6243W        W21860  17.145  14.502   3.955 -0.0412 -0.0524  0.1547
 6244W        W21861   2.558   6.825  11.927  0.1591 -0.2481  0.1922
 6245W        W21862  11.339  14.851   0.304  0.0673  0.1368  0.0116
 6246W        W21863   1.802   8.645   4.416  0.3543  0.0741 -0.1948
 6247W        W21864  15.667  14.896  15.004  0.1021  0.0374  0.3779
 6248W        W21865  12.688   6.078   2.583  0.0042  0.1486  0.1694
 6249W        W21866   0.074   1.231   2.664 -0.3137 -0.1495 -0.1158
 6250W        W21867   1.537  15.800  13.053 -0.3223  0.1179 -0.1331
 6251W        W21868  14.850   8.314   3.013  0.1014  0.1958 -0.1090
 6252W        W21869   1.918   1.749  13.059  0.2217  0.0468  0.3371
 6253W        W21870   4.799  15.438  12.438  0.2427  0.2616  0.0397
 6254W        W21871   3.664   5.105  12.469  0.2985 -0.0611 -0.2943
 6255W        W21872  10.119   6.596  16.563  0.2077  0.1106  0.0125
 6256W        W21873   2.677   9.070  14.050 -0.0363  0.0573 -0.0124
 6257W        W21874  10.872   6.103   3.883  0.0691 -0.2233  0.2099
 6258W        W21875  12.041  14.330   4.162  0.0331 -0.1624 -0.0979
 6259W        W21876   6.850  15.907   2.210  0.1088  0.1929  0.0980
 6260W        W21877  12.136   9.751   2.512 -0.0850 -0.2575  0.0091
 6261W        W21878   6.670  14.284  15.580 -0.5917  0.0848  0.0827
 6262W        W21879   1.246   2.968  14.699 -0.2053 -0.1013  0.1857
 6263W        W21880   8.149   2.981  12.832 -0.2596 -0.0270  0.2212
 6264W        W21881   6.387  11.546   0.139 -0.1371  0.0988  0.0414
 6265W        W21882  14.077   3.254   0.586 -0.1944 -0.1071  0.1304
 6266W        W21883  13.240   8.640   4.499 -0.2184  0.0187  0.1550
 6267W        W21884   2.596   0.511   2.727 -0.0841  0.3267 -0.0185
 6268W        W21885   6.621   4.952   2.528 -0.2165  0.1482 -0.2012
 6269W        W21886  11.483  13.202   3.564 -0.0172  0.4105 -0.2232
 6270W        W21887  17.353   0.448   0.131 -0.4173  0.1260 -0.0198
 6271W        W21888   8.546  17.560   5.098  0.0277  0.0203  0.0775
 6272W        W21889  10.823   2.182  14.800  0.0178  0.0748 -0.0347
 6273W        W21890   0.132   8.541  11.897  0.1359  0.1596 -0.1293
 6274W        W21891  16.259   0.943   3.902 -0.1119  0.2235  0.1701
 6275W        W21892   0.120   5.072  14.462  0.0985 -0.0716  0.1049
 6276W        W21893  15.292   1.140   4.269 -0.1734 -0.0905  0.0904
 6277W        W21894   0.145  16.257  11.350 -0.1330  0.1793 -0.1149
 6278W        W21895   2.904   0.101  13.302  0.0175  0.1312 -0.0858
 6279W        W21896   1.991   6.740  14.249 -0.0596  0.0334 -0.0636
 6280W        W21897  17.416   5.748   3.889  0.4094  0.2958 -0.4923
 6281W        W21898  13.128  16.461   3.976  0.0604  0.1026 -0.1463
 6282W        W21899   1.006   9.558   2.661 -0.0901 -0.0673  0.1249
 6283W        W21900   7.124   9.665  12.049  0.0009 -0.0224 -0.0737
 6284W        W21901  13.862   3.073  16.396  0.1395 -0.1642 -0.0722
 6285W        W21902   3.136  13.019   1.959 -0.0831  0.0431  0.0380
 6286W        W21903   6.831  12.327  16.397  0.0787 -0.7672  0.1922
 6287W        W21904   1.727   7.818  13.378  0.1094 -0.0273 -0.1213
 6288W        W21905   8.996  13.746  14.622 -0.1134 -0.1601  0.3546
 6289W        W21906   9.067  12.944   6.666 -0.1140  0.0506  0.3017
 6290W        W21907   7.426  15.983   5.005 -0.0035  0.2761 -0.3681
 6291W        W21908   1.778  12.818   2.431 -0.1736  0.0439  0.1344
 6292W        W21909  13.624  15.917  15.677  0.0959 -0.0627  0.1551
 6293W        W21910   9.996  10.853   2.976  0.1655  0.1418  0.0192
 6294W        W21911  12.258  10.602   2.447 -0.1087  0.0764 -0.0335
 6295W        W21912  16.713  12.687   3.179  0.0233 -0.3778  0.0047
 6296W        W21913   9.683   9.771   2.417  0.2740 -0.1022 -0.1285
 6297W        W21914  17.738   1.722  12.506  0.3007  0.2181 -0.1123
 6298W        W21915   8.842   1.490   1.981 -0.3314  0.0884 -0.0413
 6299W        W21916  15.315  10.237  14.645 -0.1618  0.0343  0.0240
 6300W        W21917  15.844  14.123  11.343  0.1420 -0.0118 -0.1840
 6301W        W21918   0.897   4.459   5.128  0.2015 -0.2226 -0.0707
 6302W        W21919  14.105  13.257   1.341 -0.0981  0.0704  0.1333
 6303W        W21920   0.534  15.355  15.679  0.0494  0.1586 -0.0751
 6304W        W21921   5.579  13.506  14.409  0.0709 -0.0405  0.3620
 6305W        W21922   6.550   9.993  14.008 -0.4656 -0.0516 -0.1405
 6306W        W21923   4.786  13.440  13.638 -0.1056 -0.1554 -0.0847
 6307W        W21924  14.619  16.190   1.452 -0.1901 -0.0092 -0.0532
 6308W        W21925   1.430   2.121  11.338 -0.4246 -0.0124 -0.0182
 6309W        W21926  10.861  17.818  14.128  0.0429  0.0061  0.2775
 6310W        W21927   0.104  15.454   3.301  0.3032 -0.2476 -0.0022
 6311W        W21928   8.888  16.175  13.276  0.2758  0.2802 -0.5158
 6312W        W21929  12.678   3.164   1.592 -0.1117 -0.0336  0.1706
 6313W        W21930   8.012  11.958  15.282 -0.1188  0.2567  0.0225
 6314W        W21931  16.943   9.413  15.259 -0.0399 -0.0528  0.3414
 6315W        W21932   9.162   3.547  15.952 -0.2596 -0.0538 -0.1315
 6316W        W21933   2.527  13.805   2.830  0.0636 -0.0622 -0.2520
 6317W        W21934   4.669  13.559  14.722  0.0294  0.0466 -0.1844
 6318W        W21935   3.045   3.878   3.632 -0.0415 -0.1595 -0.0615
 6319W        W21936  17.044   1.261   1.056  0.4039  0.2679  0.2767
 6320W        W21937   6.026   4.848   5.514 -0.1504  0.1858  0.2609
 6321W        W21938  13.061   6.314   4.131 -0.0897  0.2088  0.0735
 6322W        W21939   1.889  12.971  15.372 -0.1530  0.0823 -0.0145
 6323W        W21940   0.784  13.900  12.622 -0.3707 -0.2924  0.0726
 6324W        W21941   1.159   3.025   1.983 -0.0767  0.0640  0.1860
 6325W        W21942  13.369   9.099   2.127  0.0166  0.2405  0.1831
 6326W        W21943  15.448   6.482  16.435  0.0707 -0.1387 -0.2752
 6327W        W21944   2.869  14.233   1.856 -0.2420 -0.1108  0.1338
 6328W        W21945  11.726  11.655   0.094 -0.0609 -0.0708 -0.0574
 6329W        W21946  13.573   7.061  13.010  0.1377  0.0333  0.1490
 6330W        W21947   4.911  14.682   1.334 -0.1522  0.2262 -0.3582
 6331W        W21948   8.946   3.708   5.199  0.0944 -0.0149 -0.2319
 6332W        W21949  17.023  15.731   5.684  0.1102 -0.1327  0.1367
 6333W        W21950  11.243   1.426  15.083 -0.0472  0.0191  0.0962
 6334W        W21951   5.348   2.093   2.224 -0.1779 -0.1607  0.2073
 6335W        W21952  12.895   9.723   3.700  0.1807  0.0964  0.0536
 6336W        W21953  16.919   7.778   6.306 -0.1903 -0.1600  0.0094
 6337W        W21954  15.842   9.417   2.517  0.2970 -0.2481 -0.0098
 6338W        W21955   1.442   4.435  12.848 -0.1978  0.0563 -0.1875
 6339W        W21956   5.255   0.334  13.867 -0.4334  0.1996  0.0521
 6340W        W21957   1.947  13.328   5.195  0.2298 -0.0314 -0.3562
 6341W        W21958  10.647  11.875  15.213  0.1487 -0.0400 -0.0285
 6342W        W21959  14.088   5.863   1.009  0.0583 -0.2023 -0.0248
 6343W        W21960  10.468   5.796   1.569  0.0541 -0.0851  0.1141
 6344W        W21961   8.715  15.293   1.770  0.1283 -0.1662  0.1623
 6345W        W21962  14.316  14.230  12.494 -0.1760 -0.2248 -0.1394
 6346W        W21963  16.243  15.576  15.661  0.2318 -0.3091  0.0467
 6347W        W21964   3.360   4.671  14.603  0.1533 -0.0048 -0.0966
 6348W        W21965   3.305   3.504   3.746 -0.0463  0.3566  0.0354
 6349W        W21966   5.910   0.038   2.598  0.1323  0.1363  0.2376
 6350W        W21967  13.447   6.650  12.051  0.1212 -0.0594  0.1111
 6351W        W21968   1.074   5.475   4.879  0.1662  0.1351 -0.1546
 6352W        W21969   5.560   8.834   1.800  0.3001 -0.2247  0.1398
 6353W        W21970   0.161   1.498   4.246  0.2157  0.1113  0.3982
 6354W        W21971  12.452   4.085   1.341  0.3876  0.2430  0.2986
 6355W        W21972  13.165  13.536  12.704 -0.0477 -0.2018  0.0355
 6356W        W21973   4.359  16.681  13.805 -0.1441 -0.0696  0.3114
 6357W        W21974  12.236  10.819   3.441 -0.1507  0.0928 -0.0118
 6358W        W21975  15.472  14.202  14.299  0.1366 -0.1159  0.2430
 6359W        W21976   6.967   2.309   1.090 -0.1764 -0.1809  0.0175
 6360W        W21977  13.240   8.810  16.228  0.1797 -0.0613 -0.3003
 6361W        W21978   8.443   6.828   6.653 -0.1566 -0.1497 -0.0947
 6362W        W21979   5.855   1.802   5.230 -0.3013 -0.1856  0.2983
 6363W        W21980   9.883  15.335  13.576  0.1905 -0.0919 -0.1161
 6364W        W21981  16.287   7.610   0.420 -0.1755  0.0121 -0.1396
 6365W        W21982  15.794   4.193   4.273  0.2494 -0.0710  0.0437
 6366W        W21983  12.088  15.458  13.844  0.0461 -0.1821  0.0891
 6367W        W21984   2.659  14.073   3.313  0.0810 -0.3861  0.0575
 6368W        W21985   3.644  15.184   0.980  0.2101 -0.1590  0.0650
 6369W        W21986  10.975   4.098  13.354  0.0015  0.0986  0.0090
 6370W        W21987   0.517   0.667  12.183 -0.2472  0.2442  0.4258
 6371W        W21988  17.453   0.410  13.018  0.0808  0.1406 -0.3246
 6372W        W21989  13.087   3.554   4.686  0.2435  0.1352  0.1405
 6373W        W21990   6.671  17.007   0.250  0.0945 -0.3219  0.1765
 6374W        W21991  16.619  17.515   4.093  0.2005  0.1874 -0.0177
 6375W        W21992   0.410   3.305   2.061  0.1402 -0.2455 -0.1701
 6376W        W21993   8.779  13.418  13.826 -0.1205  0.1734  0.0320
 6377W        W21994   8.705   5.100  16.812  0.0151  0.1865 -0.3686
 6378W        W21995  12.835  10.579   2.769 -0.2880 -0.0323 -0.0500
 6379W        W21996  15.124  17.734   3.903  0.3501 -0.1096 -0.1320
 6380W        W21997  17.826   2.254  16.524 -0.0562 -0.1726  0.3867
 6381W        W21998   2.978   2.327   1.661 -0.1344 -0.0737  0.1364
 6382W        W21999  13.356  17.713  13.314  0.1577 -0.1234 -0.0838
 6383W        W22000   5.203  12.453  14.439  0.2748 -0.1258  0.2734
 6384W        W22001   7.822   2.405   0.806 -0.1612  0.1118  0.3104
 6385W        W22002  14.666   2.081  16.666  0.0592 -0.1322 -0.0191
 6386W        W22003   6.048   0.944   6.452 -0.2448  0.0449  0.1474
 6387W        W22004   5.027   9.899   0.869  0.0674  0.1967 -0.0287
 6388W        W22005   3.948  17.692  12.401  0.2707  0.0836 -0.1586
 6389W        W22006  15.829  16.643  15.780 -0.0112  0.0829 -0.0343
 6390W        W22007   9.568  10.641  14.691 -0.0318  0.0983  0.1367
 6391W        W22008   8.798  12.431  14.948 -0.0617 -0.1116  0.2331
 6392W        W22009   3.156  12.705   0.850  0.1862 -0.0210 -0.1831
 6393W        W22010   3.042   7.151  16.655  0.0287 -0.4137 -0.2325
 6394W        W22011   7.733  13.947   3.263  0.0725  0.0573  0.2127
 6395W        W22012   5.934  16.179  13.420 -0.1208  0.3512 -0.0113
 6396W        W22013   2.136   5.403  11.226  0.0813 -0.1290 -0.2908
 6397W        W22014  15.184   0.245   4.236  0.0275 -0.1069 -0.4102
 6398W        W22015  15.797  17.447  13.044 -0.0617 -0.1465  0.2690
 6399W        W22016  16.916  14.446  11.341 -0.1270  0.2060 -0.2022
 6400W        W22017   2.486   9.583  12.204  0.0451 -0.0298  0.3059
 6401W        W22018  13.481   3.688   3.423  0.0202 -0.0879  0.0353
 6402W        W22019   9.538   3.403  14.980 -0.0010 -0.0136  0.4024
 6403W        W22020   6.789   1.108   4.566  0.1985  0.0944  0.1486
 6404W        W22021   6.125   3.040   0.108  0.1603 -0.1791 -0.0253
 6405W        W22022  13.305  11.407   4.864  0.5130 -0.0653 -0.2088
 6406W        W22023  12.720   8.671   4.522 -0.1249  0.0986  0.0324
 6407W        W22024   5.610   7.771   0.819  0.2114  0.1899  0.0327
 6408W        W22025   5.624   4.443   1.996  0.5288 -0.1371  0.0464
 6409W        W22026   7.356   6.855  14.071 -0.2651  0.4052 -0.2157
 6410W        W22027   8.925  14.468  11.572 -0.0269 -0.0416  0.1494
 6411W        W22028  11.441  16.017  11.933  0.0551 -0.2144  0.2421
 6412W        W22029  14.185   2.723  14.937  0.0655 -0.2016  0.0615
 6413W        W22030   2.967   2.694   3.686  0.2167  0.1467  0.1377
 6414W        W22031   5.542   7.101  12.869  0.0103  0.1023  0.2645
 6415W        W22032   4.800  14.292  16.508 -0.3224 -0.0445  0.1687
 6416W        W22033  13.228  14.201  11.727  0.1636 -0.0519 -0.0674
 6417W        W22034   7.553  14.859   2.874 -0.0610 -0.4938  0.1344
 6418W        W22035   6.721  13.502  11.855  0.1221 -0.0049 -0.0476
 6419W        W22036   1.881   2.992  12.158 -0.2450 -0.2204 -0.1093
 6420W        W22037  12.672  17.762   5.390 -0.1756  0.2074  0.2099
 6421W        W22038   9.482  12.828  16.222  0.4279 -0.3015 -0.0423
 6422W        W22039   0.669   5.214   5.242  0.2891  0.0640  0.0842
 6423W        W22040  10.682  10.610   4.567 -0.2405  0.1953 -0.0097
 6424W        W22041   5.149   4.566  15.425  0.0696  0.2060 -0.4383
 6425W        W22042   2.827  14.255  16.075  0.0731 -0.0491 -0.1125
 6426W        W22043   8.594  12.043  16.683 -0.0248  0.0772  0.2421
 6427W        W22044   6.562  12.256   3.647 -0.0467 -0.2411 -0.0273
 6428W        W22045  15.844   8.276   0.815  0.1569  0.0242 -0.2584
 6429W        W22046  11.834   0.586   1.258 -0.3436 -0.0140 -0.3047
 6430W        W22047   0.049   8.587   1.510 -0.4527 -0.0725  0.1530
 6431W        W22048   1.676  12.780  11.989 -0.2648 -0.3757  0.0055
 6432W        W22049  12.201   7.763  12.811 -0.2306  0.0002 -0.2775
 6433W        W22050  15.782   9.203   0.835  0.2452 -0.2453 -0.0932
 6434W        W22051  15.616   2.893  14.005 -0.1974  0.2784  0.2702
 6435W        W22052   4.043   3.034   3.461 -0.0718 -0.0847 -0.2962
 6436W        W22053  13.518  17.535  15.376 -0.1834 -0.0292  0.1419
 6437W        W22054  16.469  11.875   1.134  0.3073  0.0245 -0.0541
 6438W        W22055   7.892   4.243   3.339  0.1292  0.0359  0.1243
 6439W        W22056  15.668  11.909  13.821  0.0631 -0.1414 -0.5673
 6440W        W22057  16.645  12.111   5.546  0.0903  0.1305  0.1700
 6441W        W22058   6.091   8.070   3.471 -0.1735 -0.0784  0.0335
 6442W        W22059   8.616  12.894  13.591  0.1680 -0.0598  0.1052
 6443W        W22060  16.529   9.735   2.190 -0.0724 -0.0592 -0.2088
 6444W        W22061   7.994  11.188  12.206 -0.0335 -0.2746 -0.3753
 6445W        W22062   2.881   2.714  11.222 -0.0766  0.2406  0.1076
 6446W        W22063  12.716   0.038   1.341  0.1689 -0.2693  0.1758
 6447W        W22064   7.669  16.742   3.017  0.1824  0.1164  0.1808
 6448W        W22065  16.799  10.309   4.978 -0.1084 -0.0773 -0.0907
 6449W        W22066  15.257   3.827   2.243  0.5127 -0.1651  0.2976
 6450W        W22067   0.308   9.144  13.081  0.0352  0.0633 -0.0807
 6451W        W22068   4.580   7.083  12.806 -0.2652 -0.2143  0.0470
 6452W        W22069   1.950   0.177  16.574  0.1530  0.1493 -0.2124
 6453W        W22070  10.866   7.397   2.177  0.0056  0.1294 -0.0005
 6454W        W22071   6.297  10.331   0.017 -0.1050 -0.0865 -0.0527
 6455W        W22072  16.611   4.989   5.494 -0.1660 -0.1938 -0.2633
 6456W        W22073  14.496  17.302   2.500 -0.1292 -0.4122  0.2232
 6457W        W22074   6.821   1.155   4.006  0.0004  0.1018  0.0843
 6458W        W22075   6.998   1.664  13.154 -0.3064 -0.1283  0.0967
 6459W        W22076  12.673   3.339  13.209 -0.1332 -0.1387  0.1183
 6460W        W22077  17.412  16.698   1.078  0.1238  0.5177  0.6383
 6461W        W22078  11.210   0.522  15.415  0.1976 -0.4000 -0.1103
 6462W        W22079   9.807   0.086   5.511 -0.0885  0.0848 -0.0596
 6463W        W22080   8.230   2.663   1.005 -0.1153 -0.2879 -0.2238
 6464W        W22081   9.477   0.936  14.446  0.0461 -0.0526 -0.0668
 6465W        W22082   7.855   4.628   4.636 -0.0067  0.2751  0.1811
 6466W        W22083   0.415   3.771  15.398  0.0931  0.1847 -0.1483
 6467W        W22084  12.792   3.014   4.287  0.0532 -0.1599 -0.0048
 6468W        W22085  16.446  14.733   6.269 -0.1537 -0.1162  0.1966
 6469W        W22086   8.430   6.816   6.146  0.1324  0.1676  0.2612
 6470W        W22087   5.266  14.772   0.369 -0.1387  0.2555 -0.0114
 6471W        W22088  16.830  10.768   5.760  0.0286 -0.1312  0.0011
 6472W        W22089  16.230  15.513   3.105  0.0518  0.2443 -0.1906
 6473W        W22090   3.275  15.088  14.840 -0.2274 -0.0714  0.2444
 6474W        W22091   9.491   8.125   3.900 -0.0299 -0.1353 -0.1412
 6475W        W22092   6.237   1.016   4.880  0.2210 -0.2156  0.0319
 6476W        W22093   1.838   8.417   4.869 -0.1186 -0.0954  0.0802
 6477W        W22094   7.640   5.426   2.979 -0.0831 -0.0761  0.3738
 6478W        W22095  14.929   6.415  14.843  0.0906 -0.1464  0.1652
 6479W        W22096  16.663   3.666  11.561 -0.1348 -0.1294 -0.2045
 6480W        W22097   9.082  10.257   1.029  0.0348  0.2329  0.0229
 6481W        W22098   4.232   5.183  12.023  0.0084 -0.2145  0.0472
 6482W        W22099   3.242   8.920   4.261 -0.0514  0.2117 -0.0421
 6483W        W22100  11.997   5.747  12.497  0.0438 -0.0669 -0.2869
 6484W        W22101  16.529   2.379  15.651  0.1085 -0.1628  0.3203
 6485W        W22102   4.442  16.393  10.638 -0.3087  0.0768 -0.2652
 6486W        W22103   8.934   0.675  10.640 -0.1197 -0.1561  0.2720
 6487W        W22104  15.908   2.448  12.269 -0.2114  0.0192  0.1416
 6488W        W22105   7.871  11.225   0.437  0.2339  0.0604 -0.1118
 6489W        W22106   2.409  15.496   2.937  0.1738 -0.1479  0.1267
 6490W        W22107   0.553  17.769  14.441 -0.4046 -0.0661  0.0519
 6491W        W22108  17.821   2.094   2.063 -0.0650  0.2673 -0.1857
 6492W        W22109   6.502   3.811  13.689 -0.1783  0.1204  0.1641
 6493W        W22110   6.411   1.403  13.024  0.4185  0.1751 -0.0882
 6494W        W22111   9.885  11.737   3.865 -0.0603 -0.1536 -0.0845
 6495W        W22112  17.662  17.729   1.050  0.1788 -0.1811  0.0362
 6496W        W22113   2.493   0.191  13.653  0.0093  0.0245 -0.1066
 6497W        W22114  10.870  16.771  15.339 -0.0930 -0.1323  0.1950
 6498W        W22115   6.213   2.054  14.247 -0.1632 -0.1678  0.3962
 6499W        W22116   7.063   0.237  13.098  0.1301  0.2148  0.1095
 6500W        W22117  10.291   6.528   1.047  0.1608 -0.2767  0.0736
 6501W        W22118  15.148   1.843   1.577 -0.1476  0.0930  0.0897
 6502W        W22119  12.688  12.387  11.156 -0.0845  0.2129 -0.1469
 6503W        W22120   5.667  10.966  15.990 -0.0353  0.0475  0.0478
 6504W        W22121   5.829   1.937   2.580  0.0434  0.0789 -0.1438
 6505W        W22122   2.100  10.578   5.071 -0.3104 -0.4251  0.1089
 6506W        W22123  14.208  15.331   3.655 -0.1508  0.2781 -0.0416
 6507W        W22124  10.542   1.338   2.403 -0.0918 -0.1851  0.0370
 6508W        W22125  11.205   3.927   2.750  0.1364  0.3064  0.1021
 6509W        W22126  10.773  14.123   2.179 -0.0178 -0.3405  0.1143
 6510W        W22127  15.034   5.204   3.874  0.2977 -0.1995 -0.1578
 6511W        W22128  13.430  11.947   5.898  0.1908  0.0197 -0.0393
 6512W        W22129  11.300   4.575  14.541 -0.1748  0.2078 -0.0738
 6513W        W22130   8.685   7.863   2.956 -0.2256  0.2078 -0.2283
 6514W        W22131  16.560   4.443  13.486  0.0773 -0.1442 -0.2681
 6515W        W22132   9.607  13.239  16.583  0.1807 -0.3794  0.0029
 6516W        W22133  15.611  10.890   0.542  0.1052  0.1034 -0.0117
 6517W        W22134   9.857   0.488   1.145 -0.1842  0.0360 -0.1068
 6518W        W22135   6.966   3.276  11.771 -0.0444 -0.1814 -0.0273
 6519W        W22136   5.465  14.549  13.680 -0.3175  0.0190  0.0731
 6520W        W22137   2.060   7.751   2.697  0.0142 -0.0719 -0.4099
 6521W        W22138   8.419   4.288   3.536  0.4169 -0.0799 -0.1597
 6522W        W22139  16.015   7.365   3.560  0.3826 -0.0257  0.3296
 6523W        W22140  16.049   6.684  14.305 -0.0140 -0.1772  0.0633
 6524W        W22141  16.050  13.327   4.374 -0.0776  0.0234 -0.1057
 6525W        W22142   6.804  12.085   1.170  0.3230  0.2535  0.0918
 6526W        W22143   8.832   7.705   3.434  0.0612 -0.3675 -0.2299
 6527W        W22144  14.764   2.162   1.780 -0.1134 -0.0994 -0.0640
 6528W        W22145   1.674  15.954   0.236 -0.0884 -0.2996  0.3465
 6529W        W22146  15.029   3.574   1.731 -0.2682 -0.0311 -0.0451
 6530W        W22147  11.998  10.830   2.801  0.3288 -0.1172 -0.2272
 6531W        W22148   2.754   2.502  12.899 -0.0557  0.3329 -0.0131
 6532W        W22149  11.460  17.564   2.390  0.0363  0.2049 -0.1999
 6533W        W22150  12.445   9.584  13.454  0.1199  0.1110  0.1135
 6534W        W22151  17.674  12.409  11.226 -0.1133 -0.1941 -0.0049
 6535W        W22152  13.231   4.127   2.254  0.1725  0.0595 -0.1884
 6536W        W22153  17.297  13.964   1.090 -0.0837  0.2684 -0.4146
 6537W        W22154   8.141   7.468  11.835 -0.3416  0.0395 -0.1450
 6538W        W22155   5.314  10.765  16.420  0.1411  0.0143  0.1449
 6539W        W22156   7.702  10.468   0.936  0.0118 -0.1057  0.1153
 6540W        W22157   8.467   6.265   1.498  0.0377  0.3870  0.1337
 6541W        W22158  17.483   7.317   0.656  0.1100  0.2221  0.0423
 6542W        W22159  14.822   1.918  12.549  0.0545 -0.2250  0.0084
 6543W        W22160   9.670   1.748   3.810  0.0376 -0.0826 -0.3110
 6544W        W22161  16.780  13.107  12.907  0.0464  0.1698  0.0760
 6545W        W22162  10.418   4.594   3.553 -0.0021  0.2082 -0.3782
 6546W        W22163   1.451   1.225   4.818  0.5348 -0.3650  0.0326
 6547W        W22164  12.028  15.972   4.715 -0.4134 -0.1647  0.0173
 6548W        W22165  10.798  14.944   3.310  0.0754 -0.1075 -0.1172
 6549W        W22166   9.711   5.733   6.104 -0.1649 -0.0164  0.0477
 6550W        W22167  17.202   3.394   1.746  0.2536  0.2091  0.1170
 6551W        W22168   1.649   5.650   2.952  0.0234 -0.0028  0.1378
 6552W        W22169   1.383   5.685   0.322  0.4019 -0.1425 -0.0261
 6553W        W22170  15.584   2.108  13.006  0.1287 -0.1393  0.2803
 6554W        W22171   1.786   4.416   1.220  0.0148  0.0949 -0.1301
 6555W        W22172  14.278  13.951  15.183 -0.0372  0.0028  0.1212
 6556W        W22173   3.635   9.145  16.131  0.1028  0.0494 -0.2051
 6557W        W22174   6.581   7.386   5.059 -0.0789 -0.1150  0.0238
 6558W        W22175  12.995   5.889   0.917  0.0989 -0.1153 -0.3316
 6559W        W22176   1.955   5.096  12.504  0.0427 -0.0562 -0.1487
 6560W        W22177   3.891  10.530   0.501 -0.1380 -0.1218  0.0323
 6561W        W22178   1.644   0.146   2.221  0.2195 -0.1014  0.0094
 6562W        W22179   4.469   2.095   5.465 -0.3151  0.0797  0.4720
 6563W        W22180  17.715  13.486   3.720 -0.2264  0.0953  0.1884
 6564W        W22181   3.687   0.507   5.949  0.2024  0.2448 -0.1096
 6565W        W22182  16.316  13.176  15.554  0.0100  0.0887  0.0926
 6566W        W22183  10.719   7.344   3.894 -0.0503 -0.0731  0.1138
 6567W        W22184  14.266   0.676  12.452 -0.3153 -0.2115  0.0348
 6568W        W22185  17.697  14.142   0.461  0.0343 -0.2090  0.1291
 6569W        W22186   5.245   7.725   1.283  0.1413 -0.3717  0.1885
 6570W        W22187  10.063  17.172  16.670  0.0924 -0.0449  0.1380
 6571W        W22188  13.869   6.676   0.894  0.0897 -0.0709  0.1480
 6572W        W22189  17.358  15.030  15.192  0.1006  0.2515 -0.0447
 6573W        W22190  13.109  10.797   3.714  0.0411  0.0264 -0.0780
 6574W        W22191   1.976  12.343   2.473  0.0277 -0.1306 -0.0933
 6575W        W22192  10.361  11.369   2.922 -0.2803  0.1299  0.1005
 6576W        W22193   1.523   2.627   5.570 -0.1066 -0.2382 -0.0475
 6577W        W22194   0.185   1.385   0.792 -0.0734 -0.1127 -0.2326
 6578W        W22195  15.928   3.084   1.909  0.0427  0.0272 -0.2642
 6579W        W22196   3.099   4.712   3.265 -0.3190 -0.1054  0.1090
 6580W        W22197  12.763  13.600  13.468 -0.3593  0.4669  0.1514
 6581W        W22198  11.649  11.065   6.181 -0.1360  0.0473  0.1691
 6582W        W22199   4.315   6.217  12.064  0.0417 -0.0388  0.2210
 6583W        W22200   9.602   9.443  15.090 -0.0110  0.2895 -0.0414
 6584W        W22201  15.885  10.269  14.714 -0.0603 -0.4772 -0.1092
 6585W        W22202   7.457  11.566  14.674  0.3061  0.0888  0.3146
 6586W        W22203  17.002   0.690  11.908  0.0659 -0.1028  0.2402
 6587W        W22204   4.232   6.419   5.617  0.0382 -0.0625 -0.0792
 6588W        W22205   4.473   4.048  16.070  0.1991 -0.3393 -0.0695
 6589W        W22206   3.521  14.137  14.680  0.1478 -0.0359 -0.4362
 6590W        W22207   5.274   4.751  13.618  0.1401  0.0814 -0.0506
 6591W        W22208   2.883   3.885  12.567  0.1747 -0.2345  0.0200
 6592W        W22209   2.923  11.682   3.819  0.1430  0.1574  0.1765
 6593W        W22210  10.695  15.428   6.714 -0.0433  0.0395 -0.1567
 6594W        W22211  17.767   2.645  12.561 -0.1205  0.2721  0.0138
 6595W        W22212  11.630   7.861   2.692 -0.1722  0.0164  0.2491
 6596W        W22213  12.682  17.598   3.478 -0.1185  0.1916  0.4876
 6597W        W22214  17.196   4.560   4.793  0.0760  0.1836  0.1720
 6598W        W22215   9.394  13.362   1.708  0.0505 -0.0518  0.0482
 6599W        W22216   1.139   0.346   2.501 -0.0103  0.0737 -0.0615
 6600W        W22217  10.963  10.931   5.215  0.1894  0.2947  0.2099
 6601W        W22218   7.496   2.742  13.406  0.0738  0.3149 -0.0709
 6602W        W22219  17.828  15.228  13.070  0.1643  0.0743 -0.1832
 6603W        W22220   2.660  14.326   0.034  0.0781 -0.1944  0.1185
 6604W        W22221   2.809   6.238   0.358  0.2590  0.1586  0.4070
 6605W        W22222  11.510  14.594  15.154 -0.1699  0.1614 -0.4241
 6606W        W22223  14.610   7.704   2.599 -0.0864  0.0687 -0.0133
 6607W        W22224   5.355  15.154  11.665  0.1720  0.0957 -0.4223
 6608W        W22225  13.925   1.787  12.994  0.1846 -0.1068  0.1272
 6609W        W22226  16.411   9.537   2.637  0.2177  0.3467  0.0268
 6610W        W22227   0.428   1.226  13.106 -0.0808 -0.0056  0.4888
 6611W        W22228  15.874   2.753  14.491 -0.0772 -0.1717 -0.0934
 6612W        W22229   3.367   4.040  16.727 -0.0727  0.1919  0.0590
 6613W        W22230   7.374  15.970   0.293  0.0655  0.2135 -0.0025
 6614W        W22231   8.356   1.514  12.481  0.0654  0.1835 -0.2389
 6615W        W22232   8.423   0.256  12.990 -0.0042 -0.1420 -0.1354
 6616W        W22233  14.564   1.908   5.198  0.2819  0.1711  0.1938
 6617W        W22234   3.210   7.391   1.821 -0.1364 -0.0879  0.0241
 6618W        W22235   0.185   1.455  15.088 -0.3351 -0.0552 -0.0369
 6619W        W22236   2.590   0.312  12.183 -0.2771  0.3282  0.2372
 6620W        W22237  13.125  13.446  14.791 -0.2621  0.3717  0.0893
 6621W        W22238   2.521   2.629  12.027 -0.0389 -0.1884 -0.1734
 6622W        W22239  17.280  10.890  13.379  0.4078 -0.0635 -0.0680
 6623W        W22240   3.484   1.120   2.824 -0.2264  0.2810  0.2186
 6624W        W22241   3.239   2.560  14.767  0.1395  0.0286  0.0744
 6625W        W22242   8.962  10.835   6.264 -0.0123 -0.0611  0.0529
 6626W        W22243  12.851   8.353   1.981 -0.0604  0.1155 -0.1312
 6627W        W22244   9.051  10.883  14.943 -0.1571  0.2119 -0.0797
 6628W        W22245   3.401   5.128   5.001  0.0850  0.3615  0.3123
 6629W        W22246   5.228   4.912   1.712  0.0652 -0.0888 -0.0347
 6630W        W22247   9.476  10.712  15.297 -0.1967  0.1574 -0.0887
 6631W        W22248   3.050   2.383   3.037 -0.0803 -0.0116  0.0387
 6632W        W22249  12.750  11.476   5.434 -0.1279 -0.3506  0.0767
 6633W        W22250  12.666   6.542   3.209 -0.1634 -0.0207  0.1306
 6634W        W22251  10.908   6.263  16.159  0.2405  0.1638  0.0681
 6635W        W22252   5.282  17.238  12.159 -0.0100  0.1882 -0.1252
 6636W        W22253  12.734  11.726  12.428  0.1644  0.2450 -0.0293
 6637W        W22254   6.129  12.302   2.752  0.1417  0.1245 -0.1484
 6638W        W22255   9.280  12.017   3.182  0.0658  0.2374  0.1339
 6639W        W22256   2.150  16.810  15.745 -0.2790  0.0462 -0.0085
 6640W        W22257   8.138  12.428  16.070 -0.1159  0.0379  0.4512
 6641W        W22258  16.751  11.781  12.699  0.2031  0.0561 -0.1224
 6642W        W22259   0.197  12.143   5.422 -0.0007 -0.0505  0.0658
 6643W        W22260   3.603  15.490   5.546  0.0275  0.1592  0.0968
 6644W        W22261   0.029   1.772  16.558 -0.1471  0.1800  0.0182
 6645W        W22262  16.956  10.409   3.655 -0.2712  0.1486  0.1973
 6646W        W22263   4.771   9.258   3.996 -0.0085 -0.0759 -0.0205
 6647W        W22264  12.189  13.413  15.832 -0.1094  0.0415  0.3166
 6648W        W22265   1.448  10.389   3.809  0.3405 -0.1672  0.0587
 6649W        W22266   0.017  10.841  15.531  0.0830  0.1203 -0.3428
 6650W        W22267  15.989   1.746   1.863  0.1234  0.0223  0.2320
 6651W        W22268   5.932   4.160  15.293 -0.0976 -0.2619  0.1930
 6652W        W22269   5.015  14.752  12.893 -0.0348 -0.1426 -0.0293
 6653W        W22270  10.372  13.001  16.167 -0.2897 -0.2614 -0.1406
 6654W        W22271  13.059   3.941   0.278 -0.1017  0.0856  0.1479
 6655W        W22272   2.448   7.210   1.214 -0.0428 -0.2350 -0.1425
 6656W        W22273   6.177   4.059   0.029  0.1630  0.1447  0.1814
 6657W        W22274   2.236  11.032   4.152  0.1309  0.0557  0.0388
 6658W        W22275  16.724  14.949  11.831 -0.1315 -0.2708  0.1200
 6659W        W22276  17.084   6.714   3.701 -0.1079  0.1174  0.0701
 6660W        W22277   6.947  16.823   0.682  0.0734  0.2478  0.0640
 6661W        W22278   3.609  15.743  12.875  0.0027 -0.2411  0.1714
 6662W        W22279  15.374   5.291  16.122 -0.0957  0.0123  0.1353
 6663W        W22280   3.715  16.349   4.143  0.2390  0.2449 -0.0957
 6664W        W22281   6.003   9.922  16.062  0.0761 -0.0138 -0.2441
 6665W        W22282  13.840   8.676   5.467  0.0126  0.3606  0.0556
 6666W        W22283   2.746   1.019   3.795  0.1768  0.1883  0.2173
 6667W        W22284   3.727   9.174  13.824 -0.0275 -0.0316 -0.1585
 6668W        W22285   7.136  17.812  14.936  0.1214  0.2259 -0.0831
 6669W        W22286  13.184   7.803  12.488  0.0296  0.0312  0.0258
 6670W        W22287   3.454   5.051   0.675 -0.0758  0.1228 -0.4092
 6671W        W22288  11.273  10.422   3.145  0.0021 -0.0204 -0.1170
 6672W        W22289   6.982   7.559   3.785 -0.2541 -0.1230  0.0465
 6673W        W22290  13.294   0.347   0.724  0.1325  0.2448  0.2324
 6674W        W22291   3.284  13.345  12.906 -0.3223  0.1332  0.1572
 6675W        W22292   3.105   8.583  15.432  0.0639  0.0551  0.3197
 6676W        W22293   1.033   4.698  12.689 -0.0814 -0.2974  0.2600
 6677W        W22294  13.278  12.510  11.326  0.0680 -0.2637  0.1083
 6678W        W22295  12.180   1.480  15.609 -0.1938  0.2307 -0.0175
 6679W        W22296  12.253   9.472  16.331  0.1373  0.0626 -0.6350
 6680W        W22297   6.654   0.122   2.593  0.1147  0.0654  0.2244
 6681W        W22298  14.012   5.298  14.235 -0.1241 -0.0862 -0.2319
 6682W        W22299  16.648   1.769   3.423 -0.0473  0.0054  0.0132
 6683W        W22300   5.332   1.300   4.428  0.0001 -0.0088 -0.1831
 6684W        W22301  10.705   2.424   6.033 -0.0357  0.1462 -0.0861
 6685W        W22302  10.721  15.886   5.010  0.2649  0.0635  0.0238
 6686W        W22303   4.135  17.019  13.459  0.1566  0.1893  0.0205
 6687W        W22304   9.251  10.487   3.168 -0.0832  0.2757  0.2929
 6688W        W22305   5.975   5.643   2.922 -0.1157 -0.0248 -0.0559
 6689W        W22306  16.076   1.701   2.363  0.3687 -0.1097 -0.0135
 6690W        W22307   0.701  10.131   4.085 -0.0699 -0.2297 -0.2115
 6691W        W22308  11.074  15.757  14.395 -0.0286  0.0362  0.3174
 6692W        W22309   3.768  17.658   3.159 -0.1253 -0.1161 -0.2201
 6693W        W22310   9.053   6.258   0.515 -0.1221  0.0824 -0.1924
 6694W        W22311  16.661  10.594  13.503 -0.1132  0.0223  0.0849
 6695W        W22312  10.871   5.158   3.711 -0.2567  0.3684 -0.1572
 6696W        W22313   5.470   2.661   1.346 -0.0485  0.1403  0.1963
 6697W        W22314   0.603  10.372   0.468 -0.0663  0.0711  0.0734
 6698W        W22315  14.779   4.793   3.507  0.0744  0.0204 -0.1354
 6699W        W22316  16.820   1.264   0.621  0.1737  0.0068  0.0379
 6700W        W22317  10.773   2.573  13.489 -0.0779 -0.1117  0.2481
 6701W        W22318   7.666  13.872   3.773 -0.1058 -0.1431 -0.0073
 6702W        W22319   0.939   6.117  13.554  0.0777 -0.3363  0.0534
 6703W        W22320   5.550  15.685   0.405 -0.2373 -0.2168  0.1864
 6704W        W22321   9.866  15.239   6.251 -0.0477 -0.1374 -0.0309
 6705W        W22322   8.235   8.784  12.366 -0.1850  0.0241  0.0047
 6706W        W22323   5.320   5.332   2.295  0.1712 -0.1613  0.0470
 6707W        W22324   9.979  17.050   5.656  0.1170  0.0768  0.2654
 6708W        W22325  16.941   1.445   2.926  0.1178  0.0558 -0.3048
 6709W        W22326   9.122   3.027  14.068 -0.0346 -0.0596 -0.3496
 6710W        W22327  13.017  13.685   4.133 -0.5359  0.0874 -0.1014
 6711W        W22328   5.151   5.144  14.497 -0.0247  0.3156 -0.3322
 6712W        W22329  14.383   9.247   4.079  0.1390 -0.1921 -0.0296
 6713W        W22330   3.939   4.152   3.679  0.0037 -0.2151 -0.0446
 6714W        W22331   4.072  14.863  11.254 -0.1615 -0.3225  0.1397
 6715W        W22332   3.843   0.040   5.159 -0.2691 -0.0315 -0.1718
 6716W        W22333  15.826   5.583  13.725 -0.0541  0.3678 -0.2462
 6717W        W22334   3.570  17.157  14.218  0.3769 -0.2070 -0.0090
 6718W        W22335   5.876   2.658   1.636 -0.0675 -0.2428 -0.0491
 6719W        W22336  13.245  11.767  13.254  0.2683 -0.3055  0.1114
 6720W        W22337   8.972  17.634   3.755  0.0183  0.0318 -0.3273
 6721W        W22338   1.263  16.920  12.087  0.2735 -0.0017 -0.0205
 6722W        W22339   7.061  13.925   1.521 -0.2153 -0.1328 -0.1758
 6723W        W22340   8.037  14.453  13.915  0.1371 -0.1911 -0.1035
 6724W        W22341  14.930   6.846  12.197 -0.0383  0.3104 -0.0670
 6725W        W22342  16.878   7.342  15.199 -0.1109  0.1796 -0.3078
 6726W        W22343  12.435  17.626   0.399  0.2019  0.0529 -0.0711
 6727W        W22344  14.373  15.208  13.533 -0.2241 -0.0013 -0.2507
 6728W        W22345   7.492   0.289  12.689  0.0514  0.0679  0.2255
 6729W        W22346  13.040  11.306  16.793 -0.0369 -0.3081 -0.0759
 6730W        W22347   0.348   6.270  12.777 -0.0590  0.0878 -0.0755
 6731W        W22348   3.332   8.570  12.704  0.2430  0.0475  0.0431
 6732W        W22349   3.527  10.141   0.510 -0.0975 -0.1029 -0.1018
 6733W        W22350   5.422  16.683  12.127 -0.0260  0.2186  0.4899
 6734W        W22351   9.071   9.181  12.044 -0.0855  0.0658  0.2228
 6735W        W22352  11.496  12.477   3.467  0.2603 -0.1268  0.0488
 6736W        W22353  11.318   8.492  13.330  0.0183 -0.1250 -0.0216
 6737W        W22354   6.768  12.807   2.901 -0.0671 -0.0532 -0.1511
 6738W        W22355   4.706   3.099  15.296 -0.0642  0.1410 -0.1381
 6739W        W22356   1.880   3.037   1.549 -0.0489 -0.0387  0.0141
 6740W        W22357   8.578   5.772   5.146  0.1475 -0.0986 -0.1123
 6741W        W22358   6.998  16.718   1.209 -0.3273 -0.0794 -0.1481
 6742W        W22359  10.195   9.303   4.157  0.0772 -0.0670  0.2056
 6743W        W22360   7.968   3.172  15.970  0.0852  0.1373  0.0182
 6744W        W22361  15.701   8.840  12.119 -0.2541 -0.1549 -0.1083
 6745W        W22362   1.991  15.654   5.102 -0.1152  0.1394 -0.2117
 6746W        W22363  14.859  16.369   2.870  0.2460 -0.0811  0.1635
 6747W        W22364   1.390  12.734   2.019  0.0322 -0.0508 -0.2080
 6748W        W22365  15.565  14.877   1.095  0.0705 -0.0644  0.1879
 6749W        W22366  15.199   3.393  11.308 -0.2011 -0.2150 -0.3401
 6750W        W22367  14.003   6.408   1.704 -0.1699  0.1204 -0.3336
 6751W        W22368  11.091   6.689   2.615  0.2401  0.1160 -0.1315
 6752W        W22369   0.620   8.434  12.122  0.0189  0.0965 -0.2415
 6753W        W22370  10.074  11.739   2.551  0.1002 -0.0145  0.1097
 6754W        W22371  16.137  16.785  13.669  0.5164  0.0685  0.2209
 6755W        W22372  12.140   6.798   5.027 -0.1065  0.0718  0.0269
 6756W        W22373  10.836  17.155  10.507  0.2027 -0.1635  0.4372
 6757W        W22374  11.708   7.181   6.284 -0.0989  0.3125 -0.0359
 6758W        W22375   5.345  15.110  11.168 -0.1657 -0.1526  0.1964
 6759W        W22376   3.016   0.577   4.548  0.3053 -0.0164 -0.0877
 6760W        W22377  17.280  11.314   3.462 -0.0041  0.1233 -0.0785
 6761W        W22378  15.252  11.542  13.813  0.2797 -0.1844 -0.0516
 6762W        W22379   1.092   4.459  15.080  0.0243  0.0496 -0.0342
 6763W        W22380   9.461  17.238   4.049 -0.0194  0.0523 -0.2756
 6764W        W22381  16.553  11.449  15.276  0.1713 -0.0083  0.1957
 6765W        W22382   1.649   9.529   5.759 -0.0868 -0.0987 -0.2886
 6766W        W22383   4.305  10.600   2.712  0.2452 -0.0065  0.1013
 6767W        W22384  14.063   0.424  16.820  0.1789 -0.1064  0.2204
 6768W        W22385  16.589  15.213   0.713  0.2948  0.0440  0.1944
 6769W        W22386   7.956  12.110  12.703  0.1131  0.1934 -0.0660
 6770W        W22387  14.255  13.590  10.851 -0.2501  0.2431 -0.0579
 6771W        W22388   0.972   1.976  11.840  0.3314 -0.0509  0.1797
 6772W        W22389  17.406  13.530   0.523  0.3562  0.0847 -0.4538
 6773W        W22390  12.342   8.222  16.188  0.1330 -0.3810  0.1705
 6774W        W22391  12.337   0.731  16.099 -0.1997 -0.0427  0.3264
 6775W        W22392   2.499  16.762   4.675  0.3668  0.0824  0.1509
 6776W        W22393   0.975  13.869  15.930  0.1577  0.0813  0.0390
 6777W        W22394  12.058  14.027  16.509 -0.0547 -0.0044  0.0973
 6778W        W22395  14.784  16.744  15.156 -0.0135  0.2521  0.0707
 6779W        W22396  11.061  15.591   5.357 -0.1431  0.1801  0.0626
 6780W        W22397   2.296   7.621  15.232 -0.1919 -0.0717  0.2876
 6781W        W22398   1.470  16.527  13.435  0.3926  0.1281 -0.2833
 6782W        W22399  11.293  15.370  16.341 -0.0278  0.0557  0.1215
 6783W        W22400  12.352   5.123   1.913  0.2054 -0.2793  0.0193
 6784W        W22401   5.453  10.783   3.755  0.0278  0.1559  0.1670
 6785W        W22402  14.973   8.083   0.272  0.0131 -0.0727  0.1392
 6786W        W22403   3.182  15.746  14.066 -0.3690 -0.2563 -0.1131
 6787W        W22404  12.169   3.900   5.527 -0.1506  0.2008 -0.0433
 6788W        W22405   3.717   3.440   1.047 -0.1096  0.1186 -0.1885
 6789W        W22406  17.862   9.047   6.480  0.0177  0.0584  0.0561
 6790W        W22407  11.398   4.988  12.375 -0.0535 -0.0253  0.1405
 6791W        W22408  15.950  15.983  13.110 -0.1152  0.1227 -0.2300
 6792W        W22409   0.086  11.840   4.968  0.0271 -0.0255 -0.1177
 6793W        W22410   8.715  17.441   1.235 -0.1287  0.1902  0.0477
 6794W        W22411   7.893   5.895   2.199 -0.0440  0.0610 -0.0475
 6795W        W22412  17.857  13.580  15.586 -0.0021  0.1935 -0.0110
 6796W        W22413  11.745   2.994  11.786 -0.0147  0.1316  0.2127
 6797W        W22414   2.267  12.214   3.267 -0.1327  0.1097  0.2635
 6798W        W22415   7.233   5.981  14.351  0.2086  0.2711 -0.2054
 6799W        W22416  14.142  17.064  12.494 -0.1195  0.0947  0.1885
 6800W        W22417  16.984  17.686   5.008 -0.0213  0.2414  0.0106
 6801W        W22418   2.142   9.162   1.312 -0.1836  0.1816  0.0072
 6802W        W22419   3.418  11.984   3.045  0.1282 -0.3354  0.2296
 6803W        W22420   1.772  12.661   0.331 -0.3183 -0.0051  0.3589
 6804W        W22421  13.315   5.244  12.233  0.0742  0.1639  0.1403
 6805W        W22422   1.495  13.086  16.752 -0.0566 -0.3773 -0.1063
 6806W        W22423  15.867  16.922   4.012  0.0802 -0.0948  0.0197
 6807W        W22424   0.265   6.582   5.377  0.0884 -0.0564  0.0641
 6808W        W22425  17.443   6.370   3.975 -0.0528  0.0444 -0.0200
 6809W        W22426   8.306  11.092   3.873  0.3563  0.2069 -0.3984
 6810W        W22427   1.348  16.971  15.623  0.2454 -0.2654 -0.2669
 6811W        W22428   8.787  15.677  12.452 -0.0738 -0.0071 -0.1867
 6812W        W22429  14.216   5.602  16.655 -0.1615 -0.2110 -0.2040
 6813W        W22430   5.306  10.293  12.251 -0.0319  0.2634  0.5218
 6814W        W22431  15.453   9.451  12.828  0.1282  0.1807 -0.1809
 6815W        W22432   3.700   8.746  12.217 -0.1485 -0.3379  0.0239
 6816W        W22433   7.122   1.088   5.426  0.2783 -0.1868  0.1053
 6817W        W22434   3.577  12.932   4.153  0.2539  0.1230  0.0595
 6818W        W22435  13.987   4.753   3.177  0.0033 -0.0610 -0.3355
 6819W        W22436   6.402   0.539  14.928 -0.0133 -0.1187  0.2803
 6820W        W22437  11.548  13.354  11.789  0.2015 -0.0919  0.1594
 6821W        W22438   3.319   4.394   2.374 -0.1865 -0.3620  0.0369
 6822W        W22439  13.541   8.041  15.699  0.0646  0.1471  0.0925
 6823W        W22440  17.355  10.452   0.597  0.0561 -0.1821  0.0384
 6824W        W22441  17.314   2.184   4.849 -0.3361 -0.0285 -0.2663
 6825W        W22442  14.799  11.542  13.617  0.1419 -0.0130 -0.0364
 6826W        W22443   7.697   7.026   0.340 -0.1843  0.0364  0.3002
 6827W        W22444   9.094  10.549  12.920 -0.1994 -0.1898  0.0181
 6828W        W22445   6.760  17.275   1.560  0.0098 -0.1508 -0.1061
 6829W        W22446   0.606  15.760   0.115  0.4146  0.1121  0.0254
 6830W        W22447  10.808  13.393   2.384 -0.1209 -0.2326  0.1029
 6831W        W22448   6.839   2.917   3.735  0.0887  0.1206 -0.2293
 6832W        W22449  17.768   3.551   0.118 -0.2193 -0.2605 -0.1148
 6833W        W22450  13.795  12.203  15.804  0.0816  0.0528 -0.0300
 6834W        W22451  12.355   0.432   3.663  0.1184  0.0992 -0.0077
 6835W        W22452   8.357   0.883   1.408  0.3916  0.1646  0.0222
 6836W        W22453  12.682  12.613   0.574  0.2648 -0.1950 -0.0253
 6837W        W22454   5.423  14.476  15.272 -0.0804  0.0394 -0.1437
 6838W        W22455  10.843   7.990   2.830 -0.2690 -0.0778  0.1992
 6839W        W22456   9.798   8.410   6.094 -0.0883  0.0563  0.1071
 6840W        W22457  17.670   6.007  16.384  0.0325  0.1671 -0.1589
 6841W        W22458   3.896   1.354   2.665 -0.0929 -0.1057  0.1580
 6842W        W22459   0.644  15.634  15.191  0.0640  0.1690  0.1129
 6843W        W22460   8.792  12.720   2.597 -0.1519 -0.0197 -0.2338
 6844W        W22461   1.528   8.638   1.066  0.2176 -0.0340  0.0684
 6845W        W22462  14.280   6.061  12.981  0.2219  0.2305 -0.2031
 6846W        W22463   0.462  17.099   3.351 -0.1182 -0.1184 -0.0799
 6847W        W22464  15.184   1.782   5.719  0.0937  0.2286 -0.0484
 6848W        W22465  14.007  13.931   6.004 -0.0982  0.2730 -0.2423
 6849W        W22466  16.070   4.587   0.061  0.2482 -0.1974  0.1162
 6850W        W22467   3.683   0.302  12.771 -0.2405 -0.0331 -0.0920
 6851W        W22468   4.536  17.232   5.742 -0.0396 -0.0161  0.0607
 6852W        W22469   2.786  13.996   2.270  0.2058 -0.0620  0.2307
 6853W        W22470   2.074   2.740   4.229 -0.0610  0.0472 -0.0084
 6854W        W22471   3.815  16.357  16.438 -0.0704  0.1442 -0.1684
 6855W        W22472  12.662   4.676   5.515  0.0371 -0.0518 -0.3976
 6856W        W22473   6.279   7.923   2.413  0.2609  0.0722 -0.1475
 6857W        W22474   5.389   7.769  16.601  0.3116 -0.1933  0.1501
 6858W        W22475  16.932   2.366  11.347  0.3631  0.2604 -0.3610
 6859W        W22476  16.253  13.128   1.038 -0.3199  0.3554 -0.0519
 6860W        W22477   1.310   8.239   3.812  0.1639 -0.1008  0.2036
 6861W        W22478   6.007  14.464  13.622 -0.1978 -0.0171  0.1074
 6862W        W22479  13.222   1.449   2.052  0.1261 -0.1672 -0.1137
 6863W        W22480   1.747   7.187  14.106 -0.0005 -0.0828 -0.2167
 6864W        W22481   7.775   0.268  12.160 -0.0675 -0.3271  0.0207
 6865W        W22482   2.771   6.345   4.403 -0.0885  0.0532  0.2099
 6866W        W22483  14.623   8.315  12.265 -0.0167 -0.0473 -0.0814
 6867W        W22484  15.480   1.109   1.724 -0.0010  0.1997  0.1714
 6868W        W22485   8.454  14.073  11.121  0.1534 -0.3926  0.1969
 6869W        W22486  13.473  15.795   2.527  0.0751  0.1397 -0.1013
 6870W        W22487  11.174  12.459   5.539 -0.0844 -0.2082 -0.2125
 6871W        W22488  15.948   4.221   1.859 -0.4284 -0.0422 -0.0360
 6872W        W22489   0.748   9.838  12.773  0.0097  0.0623 -0.0311
 6873W        W22490   8.850  14.920  11.913 -0.1086  0.1654  0.0229
 6874W        W22491  15.628   4.823   0.312 -0.1373 -0.1594 -0.0003
 6875W        W22492   4.411   7.172  16.252 -0.0372  0.1544  0.1658
 6876W        W22493   6.240  15.791   2.701  0.0711 -0.2496 -0.2501
 6877W        W22494  14.330   7.611  15.515  0.2270 -0.1907  0.1351
 6878W        W22495  16.495   0.659  16.592  0.1922 -0.1280 -0.0854
 6879W        W22496   4.105   9.271   1.645 -0.1161 -0.0267 -0.2571
 6880W        W22497  14.871   0.851  16.368  0.0826  0.1610 -0.1974
 6881W        W22498   8.199  12.973  10.601  0.0870  0.1430 -0.0236
 6882W        W22499   2.270  17.685  14.722 -0.0584 -0.0906 -0.2272
 6883W        W22500   6.682   6.450   4.357  0.0513 -0.1771 -0.1247
 6884W        W22501   6.557  16.249   2.511  0.1509  0.1576  0.0592
 6885W        W22502   4.418   0.160   1.012 -0.1584  0.1809 -0.1787
 6886W        W22503  10.093   0.129   1.434 -0.1612 -0.0998 -0.0743
 6887W        W22504   6.723   3.519   0.585 -0.0122 -0.1988  0.0653
 6888W        W22505   9.618   8.552  15.452  0.1057  0.1215 -0.1343
 6889W        W22506   1.704   7.331   2.737  0.3753  0.0814 -0.0971
 6890W        W22507  10.776  16.146  14.141  0.1730 -0.2421 -0.1004
 6891W        W22508   6.498   9.976  12.259  0.1011 -0.3356 -0.0276
 6892W        W22509  16.192   5.560   3.165  0.0160  0.2195 -0.1110
 6893W        W22510   8.796  15.259   0.012 -0.0785  0.1477  0.1081
 6894W        W22511   8.335  13.583  14.868  0.0447 -0.2384  0.2259
 6895W        W22512   2.798   9.954  12.017  0.0430 -0.0526 -0.0027
 6896W        W22513  13.159  16.917   3.735  0.0309  0.0232  0.0219
 6897W        W22514  16.586  14.393   1.771  0.2415 -0.2597 -0.0728
 6898W        W22515  17.485   2.237  12.320 -0.1732 -0.0319 -0.0564
 6899W        W22516  11.016   3.024  12.458  0.1270 -0.0767  0.1817
 6900W        W22517   2.632  11.828   2.446 -0.0655  0.1226  0.0190
 6901W        W22518   9.150   1.995  12.994  0.0762 -0.3277 -0.1917
 6902W        W22519   2.324   3.276  15.304  0.2813 -0.0097  0.3543
 6903W        W22520   0.002   3.136   5.587 -0.1269  0.2164  0.1072
 6904W        W22521  11.453   5.039   4.347 -0.0176  0.3182 -0.3584
 6905W        W22522   8.570  10.112  16.582 -0.1163 -0.2447  0.0356
 6906W        W22523  12.195  10.023   3.154  0.4084 -0.1465  0.0090
 6907W        W22524  12.473  10.122   0.650  0.0882  0.1352  0.0264
 6908W        W22525   2.477   3.233  14.520 -0.0695 -0.2669 -0.0800
 6909W        W22526   1.364  15.080  14.698  0.4274 -0.0889  0.0137
 6910W        W22527  15.738   7.454  15.603 -0.2787 -0.1620  0.0992
 6911W        W22528   3.546   3.673  15.079 -0.0990 -0.0831  0.1400
 6912W        W22529   5.518  15.259   2.963 -0.0180  0.0539  0.3025
 6913W        W22530   2.855   7.557   5.146 -0.0090 -0.0575  0.1664
 6914W        W22531  13.642  15.005   4.068  0.0045 -0.1282  0.0386
 6915W        W22532   2.288   0.443  11.353 -0.2280  0.0912 -0.0174
 6916W        W22533  17.183   6.666   3.218  0.3573  0.1152 -0.1816
 6917W        W22534   9.638  12.900  12.751  0.1283  0.1839  0.0539
 6918W        W22535   7.308  15.339  15.717 -0.0616 -0.0601  0.0380
 6919W        W22536  14.669  13.640  11.127  0.1844  0.2667  0.1281
 6920W        W22537   6.286   9.264  13.551 -0.1055  0.2681 -0.0493
 6921W        W22538  12.997  11.058  15.273 -0.0416 -0.1863 -0.0952
 6922W        W22539  10.864  10.332  13.977  0.0892  0.1122  0.0591
 6923W        W22540   8.341  10.908  12.869  0.2158 -0.1094 -0.2469
 6924W        W22541   3.254   6.344   5.724  0.0275 -0.0027 -0.2152
 6925W        W22542   2.359  13.178   3.684  0.2402  0.1539  0.0173
 6926W        W22543   8.351  17.286   4.286 -0.0409 -0.1733 -0.0782
 6927W        W22544  11.201  17.225   2.685  0.0318  0.2691  0.1834
 6928W        W22545   7.852  16.280  13.871  0.2993 -0.0061 -0.0516
 6929W        W22546  14.535   0.769  14.576  0.1121 -0.2048 -0.0682
 6930W        W22547  17.081   8.839   3.503 -0.2648 -0.0115 -0.0536
 6931W        W22548   9.866  13.396  15.644  0.0291 -0.2116 -0.2027
 6932W        W22549   3.028  11.729  10.256  0.3333 -0.0887 -0.0713
 6933W        W22550  10.808   2.330   2.054 -0.2636 -0.1097 -0.0471
 6934W        W22551  13.421  11.824   2.230 -0.0120  0.1544  0.0732
 6935W        W22552   6.698   1.456  16.595  0.0163 -0.0431 -0.1849
 6936W        W22553  11.640   8.170   1.185  0.3223 -0.3195  0.1501
 6937W        W22554  11.247   0.536   0.789 -0.1014  0.4776 -0.1513
 6938W        W22555  17.362   8.409   4.778  0.1258  0.0304 -0.2507
 6939W        W22556   0.571   1.996  12.922 -0.0087 -0.1527  0.2330
 6940W        W22557  14.196   6.761  15.458 -0.0031 -0.4018  0.0111
 6941W        W22558   5.155  10.885   3.354  0.1633  0.2091  0.2245
 6942W        W22559   3.896   8.790  14.207 -0.0657 -0.1608 -0.2713
 6943W        W22560   6.775   8.898  13.882 -0.2052  0.2352 -0.0707
 6944W        W22561   4.699  16.336   0.163  0.0209  0.0813  0.3228
 6945W        W22562   9.331  17.663  15.772  0.1104 -0.1986 -0.1684
 6946W        W22563   7.908  17.191   4.538  0.0491 -0.0956  0.2229
 6947W        W22564  11.759   4.432  14.880 -0.2153  0.2430 -0.0106
 6948W        W22565   2.836  13.650   0.396 -0.0528 -0.1286 -0.1568
 6949W        W22566   8.359  10.274   0.549 -0.0441  0.1295 -0.1100
 6950W        W22567   5.164   8.478  13.789 -0.0349  0.1776 -0.0721
 6951W        W22568   3.757  14.967  15.996 -0.3221  0.4109  0.2204
 6952W        W22569   2.764   6.731   0.142 -0.0140 -0.1845  0.1359
 6953W        W22570   5.425  10.256  16.405 -0.1206 -0.0768 -0.1968
 6954W        W22571   6.765  12.114  11.664 -0.0794 -0.1865 -0.1466
 6955W        W22572   1.386   6.805  15.829 -0.1192  0.1525  0.0103
 6956W        W22573  14.707  16.905  14.238 -0.0715 -0.0353  0.1963
 6957W        W22574   8.562  14.788   3.952 -0.0496  0.1094 -0.0277
 6958W        W22575   9.467  17.295   3.069 -0.1445 -0.0522  0.2225
 6959W        W22576   4.946  11.663   3.887 -0.1059 -0.0242  0.0131
 6960W        W22577   1.369   8.971  16.014 -0.4132  0.4689 -0.0415
 6961W        W22578   6.824  13.171   2.518 -0.2176 -0.0572  0.0373
 6962W        W22579   5.747   7.387  14.316  0.0547 -0.1927 -0.3406
 6963W        W22580  17.682   7.754  15.256 -0.0791 -0.1683  0.2281
 6964W        W22581   2.334  12.948   0.979 -0.0055 -0.0551  0.2895
 6965W        W22582   7.358   4.520   2.458  0.3717  0.0200 -0.1034
 6966W        W22583   3.052   7.788  12.395 -0.1803  0.1266  0.0795
 6967W        W22584  13.208  10.185   6.054  0.0964  0.1440 -0.2815
 6968W        W22585  17.123  14.314  13.116  0.0373 -0.1178 -0.0853
 6969W        W22586   0.147   8.917  13.977 -0.2977 -0.0969 -0.0758
 6970W        W22587  15.211  16.415  15.085 -0.2742  0.2357 -0.0006
 6971W        W22588   8.947   8.225  13.293  0.1306  0.2450 -0.1385
 6972W        W22589  13.783   6.443   3.361 -0.1597  0.3297  0.0788
 6973W        W22590   5.364  11.775   3.417 -0.0515  0.0512 -0.1347
 6974W        W22591  13.551   5.201   5.596  0.1881  0.2027  0.2255
 6975W        W22592  17.489   7.509   1.833  0.0923  0.3604  0.0394
 6976W        W22593   0.940  17.243   3.428 -0.1195 -0.1434 -0.0523
 6977W        W22594   2.498   0.262   0.006 -0.1133 -0.1981  0.2934
 6978W        W22595   8.557  15.348   5.122  0.0381  0.1028  0.0549
 6979W        W22596   7.343  16.189  14.892 -0.0025  0.0805  0.2973
 6980W        W22597  13.889  17.438   3.262  0.2508 -0.1301  0.4612
 6981W        W22598   6.368  14.385   1.399  0.3442  0.0359 -0.4336
 6982W        W22599   7.186   3.943   3.736  0.1809 -0.2330 -0.3713
 6983W        W22600  17.846  11.289  13.877 -0.1617  0.0047 -0.0055
 6984W        W22601   3.740   0.249   0.517 -0.1557 -0.2056  0.1239
 6985W        W22602  12.898  14.473  11.334  0.2398 -0.1922 -0.2603
 6986W        W22603   0.585  10.793   2.485 -0.0298  0.2812 -0.3128
 6987W        W22604   5.338  10.264   0.481  0.1834 -0.0374 -0.0183
 6988W        W22605  13.742  12.852   1.274 -0.1070 -0.1392 -0.0894
 6989W        W22606  11.589  12.509  13.702  0.2759  0.0602 -0.1083
 6990W        W22607  11.736   0.715  15.871  0.2448  0.0820  0.0575
 6991W        W22608   4.538   1.997  12.024 -0.1974  0.2136  0.0343
 6992W        W22609  13.847  11.425  11.964 -0.3065  0.0175  0.0316
 6993W        W22610  13.951   2.371   5.247 -0.1140  0.0255  0.3100
 6994W        W22611   1.032   3.961   4.211  0.0855 -0.3310 -0.3113
 6995W        W22612   2.191   6.528  15.566 -0.0906 -0.0671 -0.1173
 6996W        W22613  17.034   5.461  12.007 -0.0983 -0.1017  0.3567
 6997W        W22614  15.694   8.766  16.412  0.2959  0.3969 -0.0621
 6998W        W22615   3.347   8.333   4.334 -0.0121 -0.3588 -0.1281
 6999W        W22616  12.799  17.597  13.696 -0.0847 -0.0618  0.0455
 7000W        W22617   3.700  16.680   3.431 -0.1664 -0.0149 -0.1357
 7001W        W22618  11.026  12.722  13.810  0.1635 -0.2125  0.2697
 7002W        W22619  15.560   2.821  16.811  0.0454  0.0253  0.0044
 7003W        W22620   1.685   0.925   1.456  0.0183  0.1302  0.2273
 7004W        W22621   4.418  15.866   4.280  0.0989  0.0428 -0.0691
 7005W        W22622   8.836  12.830   5.572  0.0011 -0.2775 -0.0209
 7006W        W22623   9.126  14.601  16.055 -0.1283 -0.1739 -0.0616
 7007W        W22624   6.447   0.311  15.378  0.0873  0.0627  0.0468
 7008W        W22625  11.993   5.072  16.699  0.0286 -0.1032  0.1136
 7009W        W22626   7.201  14.191   1.066  0.1333  0.0420  0.0197
 7010W        W22627  12.370  12.031   0.248  0.3801 -0.0471  0.0624
 7011W        W22628   6.263   2.505   2.004  0.1295 -0.1080  0.0713
 7012W        W22629   6.361   2.769   3.881  0.1164  0.0668 -0.0721
 7013W        W22630  16.141   2.621  15.545 -0.1433 -0.1181  0.3260
 7014W        W22631   6.024   4.997  13.965 -0.0638 -0.2020 -0.0466
 7015W        W22632   2.349  11.804   1.475 -0.3054  0.0685 -0.3596
 7016W        W22633   3.495   6.864   3.203 -0.0422 -0.0021 -0.1733
 7017W        W22634   9.248   2.326   4.286 -0.0740 -0.0940  0.2307
 7018W        W22635   0.737   7.869  12.067  0.1287 -0.0709 -0.1855
 7019W        W22636   4.915  15.712   2.174  0.1676  0.0930 -0.2879
 7020W        W22637   8.351   3.399   2.261 -0.0284 -0.1338  0.4722
 7021W        W22638   5.511  12.564   1.438 -0.1226 -0.1121 -0.0864
 7022W        W22639   2.260   0.622   3.056  0.3605  0.1080 -0.0854
 7023W        W22640  11.421  11.972   3.480  0.3199 -0.1729 -0.0926
 7024W        W22641  16.748   3.454   2.143  0.1381 -0.0660  0.1856
 7025W        W22642  11.799   4.963  13.072 -0.2168 -0.0583 -0.3482
 7026W        W22643  12.955   1.285  16.298  0.1887 -0.0466 -0.1835
 7027W        W22644   3.299   5.441  14.965  0.0951 -0.4037  0.0116
 7028W        W22645   7.397   3.054  11.561  0.0119 -0.1137  0.0342
 7029W        W22646   4.719   5.838   4.013  0.2074 -0.0481 -0.0529
 7030W        W22647  17.447   5.971  12.579  0.2765 -0.2678 -0.4867
 7031W        W22648  14.142  12.675  11.644  0.0828  0.3146  0.1954
 7032W        W22649   8.410   6.022   3.887  0.0942 -0.0105 -0.3221
 7033W        W22650   5.102   4.378   3.595  0.0311  0.1698  0.0083
 7034W        W22651   1.561  16.790  12.473 -0.0771  0.0207  0.2360
 7035W        W22652   2.250   2.242  13.884  0.2215 -0.1285  0.0977
 7036W        W22653   1.299   0.826   4.591  0.3792 -0.0455 -0.1576
 7037W        W22654  17.154   2.904   0.149 -0.2891 -0.0444 -0.0108
 7038W        W22655   0.564   6.445  16.744  0.0532  0.2168 -0.2272
 7039W        W22656   5.111   4.663  12.011  0.2443  0.0334  0.2312
 7040W        W22657   4.669   5.677   2.234  0.0018 -0.3178 -0.3457
 7041W        W22658   5.603   4.917  12.640 -0.0132 -0.0538 -0.3542
 7042W        W22659   8.192   3.675   0.921 -0.1013 -0.0471  0.1976
 7043W        W22660  11.820   6.755   4.553 -0.1172  0.1671  0.1838
 7044W        W22661  11.375   3.230  13.042 -0.3362 -0.1960  0.3793
 7045W        W22662  13.106   1.012   1.777  0.0039 -0.1833 -0.1402
 7046W        W22663  17.034   9.320   0.237 -0.2752 -0.0415  0.1554
 7047W        W22664   3.905   0.341   2.222 -0.3020  0.2481  0.1323
 7048W        W22665   4.588   4.557   5.390  0.2379 -0.1541 -0.2055
 7049W        W22666  11.598   7.860  14.638 -0.3051  0.1214  0.1756
 7050W        W22667   9.851   3.096   4.300 -0.0173  0.2022  0.0606
 7051W        W22668  13.493   3.538  14.599 -0.1745  0.0460  0.0421
 7052W        W22669   1.149   5.777   1.308 -0.1550  0.0182 -0.0195
 7053W        W22670   7.806   7.928   1.552  0.0221 -0.1625  0.0408
 7054W        W22671   9.131  11.756  15.175 -0.0828  0.3050  0.0484
 7055W        W22672  16.959   4.316   1.498  0.0202  0.3152 -0.0452
 7056W        W22673  16.242  12.539   3.863 -0.0862  0.1579 -0.0267
 7057W        W22674  15.965   7.736  16.780 -0.2233 -0.0100 -0.3573
 7058W        W22675  12.435  12.531   1.722 -0.0207  0.1254 -0.0738
 7059W        W22676   4.056   0.967  15.954 -0.1495  0.4408 -0.3671
 7060W        W22677  12.771  15.451   4.640  0.0223  0.3989  0.2731
 7061W        W22678   8.339  11.231   2.439  0.0043  0.2321  0.4185
 7062W        W22679   9.074  10.480  11.906  0.0375 -0.2664  0.0564
 7063W        W22680  13.533  13.115  12.965  0.1379  0.1761 -0.1894
 7064W        W22681   3.825   8.411  12.878 -0.0068 -0.1340 -0.1084
 7065W        W22682  17.825   2.053  13.899 -0.1716  0.0767 -0.1543
 7066W        W22683   4.446  15.126   3.874  0.4911 -0.1462  0.2361
 7067W        W22684  11.350  16.123   2.786 -0.0486  0.2960  0.2472
 7068W        W22685  10.856   4.218  11.725  0.1122  0.0050 -0.0672
 7069W        W22686  14.658   1.874  14.557 -0.5676  0.3229  0.0557
 7070W        W22687   0.958   8.373  13.052  0.3571 -0.0655 -0.1211
 7071W        W22688   3.903   8.377  14.856 -0.2562 -0.1263 -0.1078
 7072W        W22689   2.922   9.134   5.527 -0.2255 -0.0128 -0.2130
 7073W        W22690   3.826   7.446  16.648 -0.0256  0.0843 -0.1725
 7074W        W22691  17.499  10.222  14.995  0.2798 -0.3390  0.1137
 7075W        W22692   7.232  16.294  11.089 -0.2228 -0.0841  0.3934
 7076W        W22693  14.419  10.521   3.845  0.0680 -0.1504 -0.3236
 7077W        W22694   2.450  16.522   3.045 -0.1169 -0.1749 -0.1425
 7078W        W22695  14.745  17.748   4.808 -0.1735 -0.1485 -0.0048
 7079W        W22696   6.917   3.647   5.278 -0.0233 -0.2924  0.2248
 7080W        W22697   0.777   7.396   0.663 -0.0267 -0.0098 -0.1187
 7081W        W22698  11.777   0.258  12.274  0.3551  0.1072 -0.2241
 7082W        W22699   8.736   6.684   1.789 -0.2736  0.1226 -0.0582
 7083W        W22700  11.400  12.777   1.838 -0.0144 -0.2124  0.1002
 7084W        W22701   1.667   6.875   1.555  0.2145 -0.1660 -0.2489
 7085W        W22702  12.749   5.941  15.107  0.2384 -0.2214 -0.0098
 7086W        W22703  15.018  17.240  16.741  0.0304  0.0200 -0.1159
 7087W        W22704   6.877  14.630   0.252 -0.0853  0.1936 -0.0191
 7088W        W22705  17.219   9.954  12.230 -0.0704  0.1247  0.1305
 7089W        W22706   7.412   8.799   1.801  0.1849 -0.2271  0.0065
 7090W        W22707  14.527   3.027  10.438 -0.0466  0.1535 -0.2243
 7091W        W22708  13.867   4.615  14.597 -0.0438  0.2260 -0.0745
 7092W        W22709  17.371   1.463   3.582 -0.2353  0.0851  0.1819
 7093W        W22710  12.161  17.814  10.591 -0.0322  0.0308  0.0671
 7094W        W22711  13.121   8.335  16.617 -0.0064  0.2893  0.2494
 7095W        W22712  11.882  15.504   0.875 -0.0981 -0.1536  0.1428
 7096W        W22713  11.628  11.444  11.906 -0.0190  0.2772 -0.2559
 7097W        W22714   6.552  11.579   4.084  0.0829  0.2573 -0.0624
 7098W        W22715   3.235  10.990  13.564 -0.0517 -0.1202  0.0948
 7099W        W22716  11.197   9.547   6.125 -0.1887 -0.2230  0.2010
 7100W        W22717   6.921   1.081  16.268 -0.1706  0.1263  0.2608
 7101W        W22718   4.952   4.591  14.518 -0.1653 -0.2337  0.1807
 7102W        W22719  12.733   3.917   3.850 -0.0654  0.1696 -0.4446
 7103W        W22720  16.184  10.144  15.281 -0.0919 -0.0420  0.3052
 7104W        W22721   8.030  12.225   0.520  0.3053 -0.0759 -0.0722
 7105W        W22722   2.552   2.477   1.991  0.1300  0.2732 -0.2920
 7106W        W22723   7.541  11.482  13.756 -0.0937 -0.0069 -0.1268
 7107W        W22724  17.058   6.545   5.746  0.1860  0.0725 -0.3586
 7108W        W22725   7.568   9.533   2.489  0.2522  0.0460  0.0380
 7109W        W22726   0.172  13.582  13.194  0.0827 -0.0366  0.0520
 7110W        W22727   4.279   4.713   1.618  0.0320  0.3351  0.0273
 7111W        W22728  16.896  16.140  13.023 -0.0085 -0.0055 -0.2165
 7112W        W22729   9.267   1.934   5.579  0.0330  0.2070  0.2094
 7113W        W22730   4.605  14.259   1.098  0.0411  0.1083  0.1836
 7114W        W22731  15.555  10.145  11.658  0.0267  0.0157 -0.2146
 7115W        W22732   6.814  11.974  15.923 -0.0429  0.0372  0.0407
 7116W        W22733   4.690   2.643   2.438 -0.2004  0.0126  0.3998
 7117W        W22734  14.490   7.689   1.589  0.1320  0.1122 -0.1190
 7118W        W22735  14.613  17.527  16.683 -0.2103 -0.3804  0.4617
 7119W        W22736   5.010  14.729   0.807  0.0940  0.0150 -0.1649
 7120W        W22737  12.541  13.568   1.069 -0.1338 -0.1542  0.0730
 7121W        W22738   7.713  17.336   1.442 -0.1116  0.2380  0.1110
 7122W        W22739   2.252   4.597   2.569  0.0083  0.0606 -0.0141
 7123W        W22740   7.720  11.426   3.214  0.0266 -0.1186 -0.1027
 7124W        W22741  14.355  13.553   0.986 -0.2635 -0.0272  0.0930
 7125W        W22742  15.409   1.501   1.208 -0.1050 -0.2026 -0.3164
 7126W        W22743  10.089  13.365  13.881  0.2145  0.0170 -0.0593
 7127W        W22744  14.424   0.520   0.491  0.0787  0.1259  0.1411
 7128W        W22745   7.720   1.839  16.428 -0.0118 -0.0936 -0.1743
 7129W        W22746   6.960   3.610   1.028 -0.0470  0.0610  0.0306
 7130W        W22747   5.068   9.083   5.371 -0.0564  0.4054  0.1332
 7131W        W22748   8.732  11.963  12.031  0.0466  0.2536  0.0732
 7132W        W22749  13.268  12.507   3.740 -0.2450 -0.0451  0.0446
 7133W        W22750  11.260   0.944  12.023  0.0108  0.2395 -0.2545
 7134W        W22751   5.507   5.471  11.999  0.1663 -0.2868  0.2334
 7135W        W22752   5.127   4.908  14.972 -0.0175  0.1384  0.3691
 7136W        W22753  17.208   0.208  11.846 -0.0677  0.1030 -0.0937
 7137W        W22754   4.215  11.289   5.420  0.1298  0.0260 -0.1000
 7138W        W22755   5.328   9.563   5.593  0.1388 -0.0607 -0.1806
 7139W        W22756   4.409   9.419   2.923  0.1155 -0.0485  0.0018
 7140W        W22757   8.900   3.477  13.048  0.1351  0.1291 -0.1738
 7141W        W22758  13.244  15.767  14.715  0.1499  0.0035  0.0635
 7142W        W22759  13.134   7.280  14.518 -0.1607 -0.0536 -0.0893
 7143W        W22760  13.329   9.267   0.767  0.0849  0.1285 -0.1377
 7144W        W22761  17.381  14.473   2.340  0.0441  0.0082  0.2849
 7145W        W22762  14.234   5.209   1.769  0.1404  0.1862  0.0455
 7146W        W22763   5.028   8.273  10.641  0.1032 -0.0758 -0.1821
 7147W        W22764  13.839   5.395  12.030  0.3514 -0.3112 -0.1250
 7148W        W22765   2.622  12.820  12.911 -0.1754 -0.0350  0.1196
 7149W        W22766   0.217  15.857   1.088 -0.2939 -0.0923  0.1477
 7150W        W22767   6.917  17.534  16.272 -0.0749 -0.2214  0.3610
 7151W        W22768   0.207  16.912  10.453 -0.1735 -0.0180  0.2109
 7152W        W22769   0.697  16.061   4.569 -0.2627 -0.2290 -0.0729
 7153W        W22770   4.116   2.073  12.588 -0.1400 -0.0301  0.1110
 7154W        W22771   0.702  11.795   1.400 -0.2747 -0.1166  0.0070
 7155W        W22772   5.699  16.812  14.752 -0.0646 -0.2709 -0.0283
 7156W        W22773   8.306   2.499  15.252 -0.3155 -0.4518  0.0033
 7157W        W22774  13.413   2.401   5.280 -0.1247 -0.0755 -0.2281
 7158W        W22775  16.062   5.042   1.551  0.0996 -0.0720 -0.1711
 7159W        W22776  10.615  17.620  13.231  0.0905 -0.0670  0.4301
 7160W        W22777  15.092  10.227   3.346 -0.1717 -0.2157  0.0964
 7161W        W22778   0.037   8.816  12.342 -0.2914  0.0142  0.0004
 7162W        W22779  11.560   4.790   2.169  0.1211  0.0303  0.1640
 7163W        W22780  12.667  14.070   4.568  0.2379  0.0382 -0.0504
 7164W        W22781   7.003   4.232   0.055 -0.0959 -0.2817 -0.0064
 7165W        W22782   5.365   0.119   2.885  0.3072 -0.0299  0.0168
 7166W        W22783   0.788  11.095  16.762  0.1568 -0.2352  0.2021
 7167W        W22784   4.389  16.514   2.621 -0.0765 -0.1050  0.0097
 7168W        W22785   1.343  10.014  12.937  0.0501  0.4003 -0.3142
 7169W        W22786  14.850   0.031  14.026  0.0981 -0.1199  0.2129
 7170W        W22787   8.384  17.384   3.083  0.0349 -0.0865  0.0636
 7171W        W22788  13.645  14.392   0.168 -0.3331  0.0398 -0.1923
 7172W        W22789   4.409   4.848   5.039  0.2316 -0.0814  0.1557
 7173W        W22790   7.097   8.447  12.754 -0.1648 -0.1507 -0.2090
 7174W        W22791  13.463  15.955  13.774 -0.1608 -0.0413  0.0130
 7175W        W22792  11.935   8.613   5.527 -0.0453  0.1233  0.1853
 7176W        W22793   2.940   3.800   1.800  0.0019  0.2542  0.1161
 7177W        W22794   7.344   1.086  13.188 -0.2815  0.2236  0.1232
 7178W        W22795  14.326  12.270   4.902  0.2289  0.2267 -0.3356
 7179W        W22796   6.207   3.283  13.055  0.1261 -0.0581 -0.1431
 7180W        W22797  15.448  16.882  12.530 -0.1836  0.0604  0.0390
 7181W        W22798  15.298   5.697   1.429 -0.2948  0.1412 -0.0902
 7182W        W22799   2.880   2.165   2.590 -0.1975 -0.1430 -0.3970
 7183W        W22800   6.367  12.858  12.931  0.0254  0.0176 -0.3380
 7184W        W22801  14.542   5.447   2.188  0.0157  0.0082 -0.2054
 7185W        W22802   0.576  16.663  15.143 -0.1447 -0.0005  0.1603
 7186W        W22803   2.043   6.085  13.922 -0.1245  0.3450  0.0469
 7187W        W22804  12.048   7.513   4.548  0.2052 -0.2280  0.2268
 7188W        W22805   8.306  16.654   2.827 -0.3545 -0.3413  0.2403
 7189W        W22806  11.030   2.404   5.613  0.3691 -0.0097  0.1507
 7190W        W22807   8.354  17.543   2.170 -0.1409 -0.0780  0.1782
 7191W        W22808   7.407  15.055   5.219 -0.1968 -0.1209  0.0216
 7192W        W22809   1.704   4.576  16.302  0.1211  0.1155 -0.3721
 7193W        W22810   1.812  12.443   3.376 -0.1793  0.1428 -0.0406
 7194W        W22811   9.108   4.044   0.850  0.0391  0.0381  0.1905
 7195W        W22812   0.474  10.279   5.643  0.0009 -0.1394 -0.3574
 7196W        W22813   8.850  15.534   3.537 -0.0041 -0.0601 -0.1136
 7197W        W22814   2.265   8.019   1.420  0.0484  0.1372  0.1858
 7198W        W22815  15.850   7.839   6.203 -0.3220  0.1398 -0.0892
 7199W        W22816   2.519   7.215  16.721  0.1559  0.0426  0.2587
 7200W        W22817   1.425  14.172   2.641 -0.3289 -0.0136  0.1322
 7201W        W22818  14.510  13.759  12.424  0.2233  0.0790  0.3225
 7202W        W22819  17.185  17.593  15.882  0.1585  0.2143  0.1578
 7203W        W22820  10.775   1.209   4.818 -0.2821  0.1194  0.1911
 7204W        W22821  14.948  16.301   3.928 -0.0130 -0.1230  0.1915
 7205W        W22822  15.669  10.097  14.267  0.2839 -0.1713 -0.1419
 7206W        W22823  12.144   3.265  15.401 -0.1440 -0.1649 -0.3385
 7207W        W22824   1.833   0.374   3.901 -0.1455 -0.1079 -0.5524
 7208W        W22825   5.518   9.692  12.368  0.1537 -0.0341 -0.2625
 7209W        W22826   6.462   9.361  14.080 -0.2870 -0.2882 -0.0405
 7210W        W22827   0.749  17.164   4.385  0.2305  0.1430  0.2224
 7211W        W22828  12.365   6.528  13.111 -0.1380 -0.0290 -0.2006
 7212W        W22829  11.150   1.040  14.052 -0.3854  0.4155  0.2205
 7213W        W22830   0.472   2.840   1.810  0.0370 -0.0651 -0.0724
 7214W        W22831   8.665  16.725  14.098 -0.1446  0.1839 -0.0388
 7215W        W22832   0.838  14.991  13.461  0.0343 -0.2116  0.0618
 7216W        W22833   2.628  17.300  14.672 -0.1086  0.2771  0.1739
 7217W        W22834   4.217  13.504   3.198 -0.1243 -0.0080 -0.0493
 7218W        W22835   0.806   7.157  10.610  0.1447 -0.1034 -0.0099
 7219W        W22836  14.156  11.273   2.771  0.2209 -0.0852  0.1794
 7220W        W22837  17.563   2.797   2.289 -0.0109 -0.0001  0.0467
 7221W        W22838   6.559  14.749   3.008  0.0351  0.4491 -0.3445
 7222W        W22839   7.487  16.952  11.692  0.1531 -0.1955 -0.0733
 7223W        W22840  17.563   7.046  16.111  0.0843  0.2713  0.0865
 7224W        W22841  17.193  10.971   3.002  0.1917 -0.0081  0.0494
 7225W        W22842  12.771  15.294   3.044  0.3623  0.0418 -0.4230
 7226W        W22843  16.635   6.790   1.873 -0.1490 -0.0594 -0.0234
 7227W        W22844  17.455   9.168  16.116 -0.0755 -0.0333  0.2678
 7228W        W22845   9.448   5.848  15.705  0.0603 -0.2541 -0.1044
 7229W        W22846  12.099  14.338  14.694 -0.0093 -0.3100  0.0986
 7230W        W22847   3.330   9.311   5.278  0.1032  0.1269 -0.1954
 7231W        W22848   9.169  16.639  15.142 -0.0252 -0.2244 -0.0566
 7232W        W22849  15.911  11.981  11.970 -0.2205  0.1676 -0.2715
 7233W        W22850   8.612   8.988   1.084  0.0594 -0.0363 -0.1837
 7234W        W22851   1.419   9.053  15.018  0.0999  0.3235 -0.0096
 7235W        W22852  14.730  16.463  12.804 -0.0002  0.2743 -0.0631
 7236W        W22853   7.276   3.909  12.865  0.0104 -0.1301 -0.4663
 7237W        W22854  10.006   4.122   4.799 -0.3376  0.3507 -0.0167
 7238W        W22855   2.004  11.502   2.819 -0.1082  0.0145  0.2107
 7239W        W22856  17.849   8.646   0.987  0.0571  0.0331  0.3213
 7240W        W22857   9.394  15.687   0.514  0.0553  0.0857 -0.2576
 7241W        W22858   6.672   0.210   0.429  0.2999  0.3656  0.1432
 7242W        W22859  12.624  16.130   0.979 -0.1336  0.1093 -0.1710
 7243W        W22860   6.574   2.854  13.711  0.0024  0.0473 -0.3319
 7244W        W22861  15.484   6.144  14.733  0.0009  0.1798 -0.1467
 7245W        W22862  15.257  13.428   0.862  0.0456  0.1007 -0.2432
 7246W        W22863   8.293   3.320   1.773 -0.1516 -0.0095  0.0427
 7247W        W22864   0.371   9.043   2.695  0.0494 -0.2150  0.2662
 7248W        W22865  15.910  14.238  13.802  0.0476 -0.1432 -0.1263
 7249W        W22866  13.828   4.495   1.036  0.2672  0.2768 -0.0934
 7250W        W22867   3.935  13.958   3.133 -0.0266  0.2262 -0.0989
 7251W        W22868   0.071   5.458   0.245 -0.2998 -0.1593  0.1364
 7252W        W22869  14.014   1.878   5.073 -0.2736 -0.1042  0.2936
 7253W        W22870   6.758  14.283   5.152 -0.1898  0.3173 -0.1211
 7254W        W22871   1.371   1.233   2.134 -0.0413 -0.0671  0.0693
 7255W        W22872   9.080   9.983   5.809 -0.1367  0.1484 -0.1269
 7256W        W22873   9.812  17.643  15.049  0.1282 -0.0696  0.1952
 7257W        W22874  11.183   0.653   0.265 -0.2292  0.0251  0.2636
 7258W        W22875  10.271  13.015   1.225  0.1558 -0.3927 -0.2367
 7259W        W22876   9.143   1.048   5.549 -0.2586 -0.2039 -0.0506
 7260W        W22877   2.465  16.409  12.511 -0.2698 -0.0130 -0.2284
 7261W        W22878  14.018   9.836  13.837  0.2721 -0.1025 -0.1546
 7262W        W22879   3.139   1.818  13.022 -0.3229  0.0837  0.3930
 7263W        W22880  13.617  11.556  13.915 -0.0400 -0.3900 -0.1179
 7264W        W22881  12.198  12.092  14.933  0.1689 -0.0335  0.5714
 7265W        W22882  12.150  12.940   4.952 -0.3487 -0.0611  0.0692
 7266W        W22883   2.281  14.330   0.741  0.0764  0.0255 -0.0353
 7267W        W22884  10.160  15.782   2.546 -0.1613  0.1857 -0.0332
 7268W        W22885  10.408   8.001  12.388 -0.0161 -0.0365  0.0443
 7269W        W22886   3.673   2.210  15.498 -0.1598 -0.3373 -0.1497
 7270W        W22887   4.929   0.836   0.766 -0.0876 -0.2152 -0.0147
 7271W        W22888   6.292   9.837   1.473  0.0445 -0.0203  0.1341
 7272W        W22889   5.080  11.079  14.155  0.2683 -0.0987 -0.0901
 7273W        W22890  10.984   8.710   2.186  0.1051  0.2563 -0.1711
 7274W        W22891  15.220  15.553   0.343 -0.0946 -0.0722  0.1989
 7275W        W22892  15.698   4.762   5.420  0.0666  0.0707  0.0063
 7276W        W22893   9.403   3.022  14.613  0.1703  0.1212 -0.1520
 7277W        W22894   8.496   5.428   5.768  0.3080 -0.2311  0.1949
 7278W        W22895   5.829  15.069   1.998 -0.0362 -0.0725  0.0712
 7279W        W22896   5.918  16.930   2.645 -0.2052 -0.0476  0.0175
 7280W        W22897   0.124  11.644   2.899  0.0214 -0.0232  0.1199
 7281W        W22898   6.892   6.674  12.382  0.1156  0.0932  0.0583
 7282W        W22899   6.174  17.303   1.374 -0.3152  0.3128 -0.2078
 7283W        W22900  12.036   0.777  13.034 -0.1981  0.2252 -0.1267
 7284W        W22901   4.391  11.420   0.041  0.3242  0.0426  0.0623
 7285W        W22902  12.942  15.076  16.633 -0.0829 -0.3281 -0.0631
 7286W        W22903  13.950   9.352   3.224  0.2749 -0.0355 -0.2233
 7287W        W22904   1.035   3.371  12.539  0.4998  0.0371  0.0018
 7288W        W22905   9.459  11.488   2.478  0.0727 -0.1007 -0.1510
 7289W        W22906  10.278  13.060  15.056  0.1247 -0.1601 -0.2389
 7290W        W22907  15.205  16.769  16.791  0.1600 -0.0626 -0.0134
 7291W        W22908   1.955   9.391  12.636 -0.1266 -0.1727  0.1837
 7292W        W22909  14.019   6.324   3.891 -0.1820  0.1607 -0.1339
 7293W        W22910   9.986  10.054  15.490 -0.0511  0.0031  0.0524
 7294W        W22911  14.101   2.224  15.555  0.2515 -0.2325 -0.2726
 7295W        W22912  13.590   6.876  16.300  0.0857  0.0007 -0.2290
 7296W        W22913   5.812  15.255   2.479  0.1523  0.1710 -0.2471
 7297W        W22914  15.375   6.721   0.510 -0.0094  0.0629 -0.1738
 7298W        W22915  17.690  11.607  11.822 -0.0369 -0.0652  0.1549
 7299W        W22916   4.024  17.125  10.958  0.1297 -0.0895  0.0148
 7300W        W22917   3.858  12.828   2.674  0.2309 -0.0834 -0.0231
 7301W        W22918   5.173  16.344   4.431  0.1562 -0.0792  0.1493
 7302W        W22919   7.439  10.968   2.244 -0.1986  0.0484  0.1679
 7303W        W22920   4.558   8.253   3.901 -0.2186  0.3540 -0.1893
 7304W        W22921   4.262   6.598   4.153  0.0453 -0.2596 -0.0485
 7305W        W22922  17.203   6.252  14.947  0.1129 -0.4555  0.0453
 7306W        W22923   7.045  15.383   3.646 -0.1230  0.0563 -0.3632
 7307W        W22924   0.284   2.012   4.270 -0.0951  0.0230 -0.1386
 7308W        W22925   0.221  16.341   5.806 -0.0639  0.2350  0.0774
 7309W        W22926  16.159   7.491  13.740  0.3437  0.2349  0.0992
 7310W        W22927   0.915  11.286   3.669 -0.2413 -0.2021  0.2465
 7311W        W22928   2.907  13.047  10.181 -0.0237 -0.0097  0.0949
 7312W        W22929   1.596   6.924  12.329 -0.0962 -0.2281 -0.0457
 7313W        W22930  14.151  12.920  12.113  0.2211  0.0070 -0.0024
 7314W        W22931  16.431   5.224   0.891 -0.1800  0.0423 -0.0314
 7315W        W22932   1.334  15.087  13.537 -0.1628 -0.3005  0.1496
 7316W        W22933   0.794  10.290   2.673  0.2965  0.0916 -0.0463
 7317W        W22934   0.656   3.772  16.251  0.1322 -0.2202 -0.0297
 7318W        W22935   7.372   2.451   1.512 -0.1803  0.3228 -0.2616
 7319W        W22936   0.672   7.503  15.778  0.0967  0.1824  0.0656
 7320W        W22937  14.869   8.408   4.985  0.4446 -0.2042 -0.3727
 7321W        W22938   0.750   0.019  11.353 -0.0391  0.2433 -0.1727
 7322W        W22939  12.652  12.718  12.388 -0.1469  0.2170 -0.2302
 7323W        W22940   4.095  11.501   3.213  0.1642  0.1733 -0.1206
 7324W        W22941  16.734   1.850  15.269  0.0725  0.4013  0.0470
 7325W        W22942  15.094  11.547  10.639  0.0392 -0.1310  0.1309
 7326W        W22943   0.837   0.206  12.282 -0.1394  0.1720  0.2154
 7327W        W22944   7.463  10.454   3.726  0.1083 -0.0377 -0.3137
 7328W        W22945   8.177  13.097  13.572 -0.0111 -0.1150  0.0761
 7329W        W22946   4.361  13.439  16.438  0.2201  0.1482 -0.1073
 7330W        W22947  10.211  17.257  11.647  0.0243 -0.3287 -0.3571
 7331W        W22948   0.758  11.793  13.783  0.0151  0.1297 -0.0427
 7332W        W22949  11.270   1.306   4.764 -0.0907 -0.2133  0.0772
 7333W        W22950   0.334   4.755  15.736 -0.3536  0.0099 -0.1777
 7334W        W22951  12.254  10.941   4.740  0.0377  0.2200 -0.0634
 7335W        W22952   9.519  14.435   1.562  0.1530  0.0679  0.1256
 7336W        W22953   2.102  10.156  12.055  0.1579  0.0270  0.0931
 7337W        W22954  14.050  10.079  12.381 -0.0643 -0.0532  0.1462
 7338W        W22955   6.642  15.420   4.479  0.0192 -0.0500 -0.0373
 7339W        W22956   3.112   1.958  15.075 -0.0967  0.0628 -0.3013
 7340W        W22957  16.420   2.743  14.491 -0.0752 -0.1623  0.1469
 7341W        W22958  17.563   5.067  12.472  0.1049 -0.1134 -0.0231
 7342W        W22959   9.449   8.599  12.573 -0.0474 -0.1678 -0.0647
 7343W        W22960   7.760   9.111   4.718  0.0144 -0.0948  0.0328
 7344W        W22961  16.406  16.602  15.440 -0.0727 -0.0464  0.0068
 7345W        W22962   8.177   9.541   0.807 -0.2341 -0.0758 -0.0155
 7346W        W22963   6.003   2.524  13.044 -0.1233  0.2396  0.0188
 7347W        W22964   6.415  17.738   0.631  0.1507 -0.2106  0.0106
 7348W        W22965   4.769   2.517  11.931 -0.1841 -0.0882  0.0678
 7349W        W22966  15.894   6.106   4.480 -0.0604 -0.0670  0.2785
 7350W        W22967   5.299  17.039  12.630 -0.1156  0.3336 -0.1394
 7351W        W22968   5.427   0.474  15.848  0.1314 -0.0703 -0.2283
 7352W        W22969   5.090   0.065   5.691  0.1941 -0.0239  0.0545
 7353W        W22970   9.032   1.269  16.144  0.0458  0.2008 -0.0393
 7354W        W22971  17.108   7.094   1.975  0.1223 -0.0745 -0.0175
 7355W        W22972   3.334   4.900   1.247 -0.3593 -0.0712  0.2335
 7356W        W22973   2.465   5.057  12.383  0.1620  0.1022 -0.0765
 7357W        W22974   4.783  16.346  13.052  0.0991 -0.0425 -0.0241
 7358W        W22975   1.934   9.215  15.256  0.0992  0.1889 -0.0056
 7359W        W22976   0.813   6.049   5.618  0.0173  0.0082 -0.0473
 7360W        W22977  12.472   1.688   5.685 -0.0455 -0.1367 -0.0067
 7361W        W22978   8.247   5.684   1.933  0.2972  0.3420  0.0811
 7362W        W22979   7.850  16.307  12.813 -0.1699 -0.0778 -0.0463
 7363W        W22980   9.038   7.307   2.146  0.0049 -0.0003 -0.2384
 7364W        W22981   5.940  17.404   2.611  0.2100 -0.0799 -0.2547
 7365W        W22982   7.515   7.823   6.090 -0.1322 -0.0313 -0.1821
 7366W        W22983   9.902  12.083  14.111 -0.0035 -0.1977  0.0112
 7367W        W22984   4.535  16.336  11.164 -0.1099 -0.1030  0.0944
 7368W        W22985  15.328  16.305  16.555 -0.2040  0.3266  0.2437
 7369W        W22986  14.354   6.830  12.201 -0.1122 -0.0227 -0.1714
 7370W        W22987   4.546  17.204   2.200 -0.3326 -0.2449 -0.4675
 7371W        W22988   0.424  12.968  14.498  0.1986 -0.3855 -0.2554
 7372W        W22989  11.120   1.754   0.550 -0.0870 -0.0043 -0.1943
 7373W        W22990   9.263  15.117  11.646  0.0472  0.0648 -0.3906
 7374W        W22991  15.755   4.571   6.450  0.1087  0.2707 -0.0537
 7375W        W22992  14.610   6.838   6.555 -0.2481  0.0111  0.3298
 7376W        W22993   1.592   0.618   2.664 -0.2020 -0.1902 -0.1160
 7377W        W22994   2.683   5.010  13.318 -0.2344 -0.0866  0.0168
 7378W        W22995   2.404  10.496   4.074 -0.2255 -0.3079  0.0097
 7379W        W22996   9.634   7.481   3.105  0.2010 -0.1501  0.2635
 7380W        W22997   0.537   3.070   0.680  0.1183  0.0895  0.1620
 7381W        W22998   3.832   6.535  12.727 -0.4620 -0.2987 -0.1317
 7382W        W22999   2.765   0.914   0.339  0.3017 -0.2250  0.1314
 7383W        W23000   6.780  15.356  16.429 -0.0322  0.0207  0.0556
 7384W        W23001   6.246   1.866  13.432 -0.3714 -0.0655 -0.1679
 7385W        W23002  16.592   2.259  12.519 -0.0005  0.1219 -0.0815
 7386W        W23003   7.913   0.130   0.156  0.6614  0.1353  0.1748
 7387W        W23004   3.384  16.645  11.565 -0.1013 -0.2073 -0.3009
 7388W        W23005   1.111   4.966   3.100 -0.0936  0.1266  0.2661
 7389W        W23006  12.181   8.297  13.476 -0.0822 -0.0957 -0.0286
 7390W        W23007   5.024  16.993   5.533  0.0648  0.3445 -0.0154
 7391W        W23008   0.218   3.655   3.372  0.0224  0.4674  0.2014
 7392W        W23009   5.804   9.435  14.591  0.0188 -0.1083  0.1026
 7393W        W23010  17.513   6.228   2.346 -0.1124 -0.0655  0.1472
 7394W        W23011   2.666   1.247  12.299 -0.0123 -0.0824 -0.1293
 7395W        W23012  11.748   7.587   1.876  0.0211 -0.1466 -0.0281
 7396W        W23013  12.739   2.528   0.673 -0.2437  0.1214  0.1820
 7397W        W23014  15.221  11.493  16.769  0.1450 -0.0308 -0.0574
 7398W        W23015  12.428   6.502   2.461 -0.4771 -0.2317  0.2227
 7399W        W23016   2.543   9.692   2.571  0.1475  0.2278 -0.0799
 7400W        W23017  10.085  15.102   0.684  0.3039  0.0404  0.1945
 7401W        W23018   9.962   5.501   5.696  0.0558 -0.1070  0.0719
 7402W        W23019   3.844  13.891   1.121  0.0999 -0.0370 -0.1247
 7403W        W23020  10.331   5.087   3.691  0.2953  0.0949 -0.0317
 7404W        W23021   6.798  17.708   4.559 -0.1651  0.1338  0.0855
 7405W        W23022  13.711  15.266   2.434  0.2278  0.1556  0.1558
 7406W        W23023  10.262  17.295  12.485 -0.3390 -0.1657 -0.2314
 7407W        W23024   2.977  10.867   5.479  0.4224  0.1443  0.2610
 7408W        W23025   9.230   9.907  14.054 -0.0731  0.0980 -0.1105
 7409W        W23026   3.636  17.044   4.761  0.1856 -0.0887  0.0983
 7410W        W23027  11.842   4.018   2.024 -0.0734 -0.1322  0.2541
 7411W        W23028   4.020  10.644   3.647  0.1016 -0.1259 -0.1332
 7412W        W23029   7.971   3.912  14.230  0.1496 -0.1685 -0.0452
 7413W        W23030   5.780   4.430  12.835 -0.1550 -0.0538 -0.0645
 7414W        W23031  16.633  12.613   4.156 -0.2091  0.1914 -0.0732
 7415W        W23032   3.480  10.051   2.123  0.1008 -0.2370 -0.2787
 7416W        W23033  10.684  13.325   4.239 -0.2565 -0.0847 -0.0008
 7417W        W23034   3.708  17.795  15.994 -0.1950 -0.0365  0.2695
 7418W        W23035   2.756   9.114  15.961 -0.2343 -0.0852  0.1469
 7419W        W23036  14.345  10.866  11.511 -0.0431  0.2921  0.1782
 7420W        W23037  14.514   6.758   0.057  0.2472  0.3074 -0.5247
 7421W        W23038   5.428  15.656   1.177 -0.0602 -0.1737  0.1369
 7422W        W23039   3.498   2.125  13.331 -0.3388 -0.0530 -0.2137
 7423W        W23040  14.131  14.384   3.557  0.0709 -0.2705  0.0192
 7424W        W23041  13.743   8.918   0.851 -0.2506 -0.4233 -0.2671
 7425W        W23042   9.586   0.021  15.409 -0.0094 -0.2640  0.3046
 7426W        W23043  16.237  11.376  15.635  0.2869  0.1276 -0.1640
 7427W        W23044  14.839  12.088  13.355  0.0222 -0.1142  0.2090
 7428W        W23045  13.890  10.837   5.116  0.0079  0.0393 -0.2101
 7429W        W23046  14.807  11.895   6.177  0.0492 -0.0437 -0.0782
 7430W        W23047   2.226   2.335  15.023 -0.0773  0.2583  0.0753
 7431W        W23048  14.971   2.672  12.847  0.0841  0.2560  0.1770
 7432W        W23049   7.854   5.670   4.331  0.2098  0.1309 -0.1397
 7433W        W23050  14.764   8.424   6.521  0.1868  0.2233  0.2554
 7434W        W23051  13.973  14.835   3.698  0.3142  0.0982  0.2520
 7435W        W23052   6.732  14.083  14.089 -0.1772  0.2134 -0.1214
 7436W        W23053   4.172   9.862  16.460 -0.0887  0.0576 -0.1513
 7437W        W23054   3.637  16.607  13.973  0.2530 -0.1000 -0.1712
 7438W        W23055  10.272  17.373  15.979 -0.0033  0.3354  0.1453
 7439W        W23056   7.816   6.326  13.205 -0.1003 -0.3406 -0.2509
 7440W        W23057   4.976   0.873   5.579  0.0679  0.0501  0.0373
 7441W        W23058  16.078   2.005  13.106  0.0483  0.0847  0.0507
 7442W        W23059   1.853   7.159   1.185  0.4157 -0.0239 -0.1738
 7443W        W23060   3.410   5.146  14.082  0.1173  0.4658  0.0670
 7444W        W23061  12.979   5.842   4.760 -0.0258 -0.2115  0.2003
 7445W        W23062  15.866   6.569   2.297 -0.2223 -0.0786 -0.1241
 7446W        W23063   7.374   6.902   4.915 -0.1848  0.2382  0.4366
 7447W        W23064  17.766   4.541   0.109  0.1476 -0.0585 -0.1954
 7448W        W23065  13.709   9.889   1.647  0.4572 -0.0129 -0.2101
 7449W        W23066   5.096   2.055  15.197  0.3189  0.1301 -0.1390
 7450W        W23067   1.698   3.992  15.211  0.0163 -0.0419  0.0070
 7451W        W23068   3.714   0.986   4.346  0.0236 -0.1221 -0.2288
 7452W        W23069  16.606  12.500  11.647 -0.0907 -0.0935 -0.3933
 7453W        W23070   4.297   9.322  12.754 -0.1778  0.1397 -0.1159
 7454W        W23071  16.632   9.562   0.481  0.0912 -0.0801  0.3875
 7455W        W23072   2.760   4.234   4.588 -0.2181 -0.2286  0.1815
 7456W        W23073   6.480   9.534   0.017  0.0839 -0.0090  0.0777
 7457W        W23074   6.063   2.976   6.591  0.1684  0.3247 -0.0560
 7458W        W23075  10.821   6.102   1.698 -0.0542  0.0656  0.0768
 7459W        W23076  15.387   3.378   2.377  0.1388  0.2946 -0.0056
 7460W        W23077   9.475  12.777   3.699  0.3479  0.0762 -0.0741
 7461W        W23078  15.139   8.737  11.870  0.2629 -0.2853  0.0431
 7462W        W23079  15.025   2.134  12.991 -0.0365 -0.0307 -0.1702
 7463W        W23080  13.632  13.403  15.983  0.1651  0.1459  0.2540
 7464W        W23081  15.256  17.397  14.671  0.3705 -0.2058 -0.1020
 7465W        W23082   1.395   4.088  14.447 -0.5120  0.3606  0.1272
 7466W        W23083  16.631   2.334  13.900 -0.1284  0.0940 -0.2529
 7467W        W23084  11.041  17.667   2.022  0.1109 -0.2746 -0.2261
 7468W        W23085   4.792   7.820  12.943 -0.0877 -0.2417  0.0846
 7469W        W23086  12.467  17.858   0.821  0.0778 -0.1613 -0.4568
 7470W        W23087   5.668  10.543  11.929  0.0256  0.1856 -0.1018
 7471W        W23088  12.906   3.298   5.018 -0.0033 -0.0437 -0.2235
 7472W        W23089  14.697  15.575  16.578  0.0704  0.0555  0.0159
 7473W        W23090   2.277  16.817   6.417 -0.0413  0.0944 -0.1596
 7474W        W23091   2.469   6.702  16.002  0.2316  0.2092 -0.1729
 7475W        W23092  12.856   1.969  11.558 -0.0951 -0.2586  0.1467
 7476W        W23093   6.500  10.961   2.164 -0.1450  0.1000  0.1234
 7477W        W23094  11.825  15.946  15.410  0.0499  0.0602 -0.2013
 7478W        W23095   8.379  10.452   6.323 -0.0617  0.1659 -0.0127
 7479W        W23096  17.463  11.076   4.139 -0.1441 -0.0359  0.2715
 7480W        W23097  12.960   5.915  14.097 -0.1637 -0.2350  0.3189
 7481W        W23098   7.900   5.289  14.678  0.0384 -0.0341  0.0810
 7482W        W23099   9.576  15.894  11.841  0.0158 -0.1975 -0.0541
 7483W        W23100   9.870   8.070   2.444 -0.0427 -0.0156  0.1554
 7484W        W23101   4.940   0.526   4.974 -0.0618 -0.1964 -0.0420
 7485W        W23102  11.249   9.374  14.786 -0.0130  0.3116 -0.1131
 7486W        W23103   8.105  12.013  16.371 -0.0577  0.0913  0.1756
 7487W        W23104  12.930   3.613   3.516 -0.0585  0.1011  0.1671
 7488W        W23105  16.838   2.514  13.053  0.1174 -0.0656 -0.0074
 7489W        W23106  14.586  12.190  12.394  0.1705 -0.2902  0.1013
 7490W        W23107   3.193   1.971  15.651 -0.2612  0.1047  0.1151
 7491W        W23108  11.417   1.276   3.547  0.1964 -0.1527  0.2776
 7492W        W23109  13.906  13.779  12.208 -0.1980  0.3703  0.2522
 7493W        W23110   4.317   4.553   2.103  0.1442  0.3284 -0.1412
 7494W        W23111   9.420  16.230   3.061  0.1464  0.3129  0.1951
 7495W        W23112  12.115   5.360   3.301 -0.0859  0.0477 -0.0938
 7496W        W23113   1.799  11.790   4.209  0.2435  0.3549 -0.2404
 7497W        W23114   1.238   5.478   0.825 -0.2215  0.2392  0.1020
 7498W        W23115   3.334  12.374  11.598 -0.2038  0.1010  0.0735
 7499W        W23116  15.279   7.026   4.362 -0.1262  0.0214  0.2142
 7500W        W23117   1.937   0.746   0.407  0.0034  0.1474  0.0153
 7501W        W23118  17.056   0.360   0.599 -0.2445 -0.0210 -0.1971
 7502W        W23119  10.378  13.775  12.261  0.1043 -0.0795 -0.2288
 7503W        W23120   1.475   6.636  16.318  0.2189  0.0501  0.0236
 7504W        W23121   3.396   2.672  12.427  0.0236  0.1050 -0.0758
 7505W        W23122  14.928   2.989  15.546  0.0520  0.1394  0.1370
 7506W        W23123   8.745   6.759   4.310  0.1232  0.0795  0.0630
 7507W        W23124  12.547  12.404   1.008 -0.0696  0.1757 -0.0612
 7508W        W23125   4.789   7.480  12.567 -0.1118 -0.0701  0.2447
 7509W        W23126   3.740  14.628   2.911 -0.1727  0.0714  0.1736
 7510W        W23127  12.418  13.434   0.500  0.1162 -0.2934  0.0960
 7511W        W23128   7.803   5.059   3.766  0.0137  0.1020  0.1513
 7512W        W23129  16.881   4.490   2.558  0.1032 -0.2196 -0.3784
 7513W        W23130   8.753   7.686   1.180  0.2539 -0.2051 -0.0653
 7514W        W23131  17.365   1.573  15.777  0.0701  0.0917 -0.0663
 7515W        W23132   0.701   1.347   3.580 -0.0417  0.1017  0.3579
 7516W        W23133  17.102  14.078   2.546 -0.0944  0.2058  0.1536
 7517W        W23134   0.280   6.410   0.428 -0.0557 -0.0161  0.0807
 7518W        W23135  16.316   3.585   1.365 -0.0940 -0.2939 -0.0069
 7519W        W23136  13.268   8.827  13.299 -0.2612  0.0380 -0.2053
 7520W        W23137  14.138   2.517   4.763  0.0199  0.1166 -0.1717
 7521W        W23138  16.869   7.007  11.768 -0.2091  0.0468  0.1358
 7522W        W23139   9.003   9.731   0.312 -0.1344 -0.0365  0.0740
 7523W        W23140   5.523   7.416   1.596  0.0450  0.0166  0.1387
 7524W        W23141  12.121   5.833   3.214 -0.2701 -0.0410  0.1680
 7525W        W23142  13.624   2.343   3.403  0.1091 -0.0300 -0.0413
 7526W        W23143   1.769   4.739   0.758 -0.1498  0.0598 -0.2622
 7527W        W23144  17.790  14.273  14.205 -0.1184  0.3674  0.1362
 7528W        W23145   2.166  13.616  14.134  0.1413  0.1111 -0.2051
 7529W        W23146   2.297  11.645  14.050 -0.3536 -0.0958 -0.2618
 7530W        W23147  16.937   9.807  14.380  0.2373 -0.0515 -0.1894
 7531W        W23148  10.312   9.567   4.589  0.1870  0.0415  0.2045
 7532W        W23149  16.674  17.203  15.600  0.0811  0.1675 -0.0755
 7533W        W23150   1.455   1.377   3.041 -0.3432  0.1338 -0.0876
 7534W        W23151   8.083  12.078   1.687  0.0742  0.0764 -0.1142
 7535W        W23152   1.759  15.566   2.530  0.0623 -0.3896 -0.1607
 7536W        W23153   9.032   3.474   3.210 -0.1554 -0.0699  0.0571
 7537W        W23154   2.439  10.162   4.962 -0.2513  0.1510 -0.0840
 7538W        W23155  14.563   1.123   5.487 -0.1512 -0.2192  0.1939
 7539W        W23156  11.949  16.004   0.640  0.0476  0.1273 -0.2879
 7540W        W23157  15.049   4.733  11.266  0.2596 -0.1268 -0.3615
 7541W        W23158  12.540   5.670   0.942 -0.0480  0.1550  0.2346
 7542W        W23159  16.784   4.500   0.700  0.0181 -0.1865 -0.2946
 7543W        W23160   7.976  11.096  14.886 -0.1574  0.2067  0.1077
 7544W        W23161   3.277   9.635  14.578 -0.3673  0.0929 -0.0055
 7545W        W23162  16.428  17.847   3.117  0.2190 -0.2362  0.1741
 7546W        W23163  15.362   9.310  14.897  0.0818  0.1778  0.0789
 7547W        W23164  14.069  16.993  11.487 -0.0981  0.0163  0.0524
 7548W        W23165   3.531   1.557   0.220  0.0090 -0.1126  0.0059
 7549W        W23166   3.950  14.838   3.340  0.1231 -0.0993  0.2657
 7550W        W23167  11.737   1.635  13.999  0.1829  0.0349  0.1724
 7551W        W23168   7.960  17.824   1.102  0.2228 -0.1808 -0.2985
 7552W        W23169   6.953  14.463   3.780 -0.0868  0.2207  0.0637
 7553W        W23170   1.667  10.228   2.491  0.0024  0.1753  0.0719
 7554W        W23171   4.090   3.531   4.164  0.0137  0.1341 -0.1482
 7555W        W23172   0.864  15.176  13.049 -0.1810  0.2091 -0.0926
 7556W        W23173   8.841   2.336  12.343 -0.2641  0.0105  0.0832
 7557W        W23174  15.760  14.664   3.763  0.2530 -0.1278 -0.1006
 7558W        W23175   1.140   8.419   0.331 -0.0557  0.0071 -0.0092
 7559W        W23176   2.225   9.957  16.236 -0.0220 -0.4178  0.2004
 7560W        W23177   4.870  16.654   4.741  0.2444  0.1430  0.0488
 7561W        W23178  13.602   1.897   0.527 -0.2662 -0.1257 -0.2259
 7562W        W23179   7.116   7.202  14.391  0.0610  0.2621 -0.2340
 7563W        W23180  14.617   6.582  15.191  0.0880 -0.3075 -0.2372
 7564W        W23181   9.578   6.594   4.662 -0.3298  0.0437 -0.0354
 7565W        W23182  11.852   0.688  13.450  0.3051 -0.0993 -0.2714
 7566W        W23183  15.243  15.951   3.229  0.4770  0.4957  0.2095
 7567W        W23184   0.691   8.945  14.712 -0.1922  0.1236  0.0257
 7568W        W23185   2.588   5.459  12.587  0.1625 -0.1218 -0.1297
 7569W        W23186   8.564   5.015   6.246  0.1783  0.0724  0.3939
 7570W        W23187   9.980  17.077  15.151 -0.6010 -0.0473 -0.0321
 7571W        W23188  15.282  14.760  11.254 -0.2187 -0.3657 -0.4040
 7572W        W23189   0.899   5.649   0.402 -0.0081  0.0368 -0.0578
 7573W        W23190  10.430   1.901  12.596 -0.1789  0.0729  0.2562
 7574W        W23191   3.179   1.386   2.054 -0.1403  0.0028  0.0626
 7575W        W23192  17.836   4.300   2.235 -0.0615 -0.1625 -0.1353
 7576W        W23193   6.024   2.054  14.779 -0.2598  0.0323  0.0520
 7577W        W23194   3.338  10.840   3.157  0.0337  0.4726  0.2127
 7578W        W23195   9.887   3.881  14.897 -0.0136  0.0719  0.0147
 7579W        W23196   4.826  12.098  13.791  0.0820 -0.2322 -0.0451
 7580W        W23197  11.748   5.268   5.971  0.1369 -0.0039 -0.0732
 7581W        W23198   7.896  15.966   1.095 -0.4156  0.0948  0.3096
 7582W        W23199  12.666  14.422   1.722  0.5250  0.1258  0.0446
 7583W        W23200   9.670  17.730   4.798  0.0923 -0.3380  0.0298
 7584W        W23201   4.039   9.957  13.950  0.3338 -0.0637 -0.1735
 7585W        W23202  10.479   1.939   1.237 -0.0791 -0.0505  0.4805
 7586W        W23203   4.246  12.383   3.053  0.1530 -0.2291 -0.2712
 7587W        W23204   0.866  14.869  11.035 -0.1005  0.1125 -0.1635
 7588W        W23205  14.343   4.587   1.024  0.2907  0.0161  0.0034
 7589W        W23206  17.320   9.556   3.555  0.1272 -0.0582 -0.0520
 7590W        W23207  14.510  12.068  14.237  0.0265  0.3016  0.0877
 7591W        W23208  11.817   8.082   0.069  0.1185  0.1691  0.2133
 7592W        W23209   7.381   2.156   5.546  0.1775 -0.2829 -0.2470
 7593W        W23210  16.563   7.237  13.752  0.1941 -0.1323  0.0886
 7594W        W23211   5.058  13.853  11.901  0.0448  0.4782  0.1037
 7595W        W23212  12.536  12.032  14.332  0.0648 -0.0645  0.0381
 7596W        W23213  13.726  14.940  12.801  0.1336 -0.0616 -0.1008
 7597W        W23214   9.621   7.677   1.427  0.2703 -0.0820 -0.2926
 7598W        W23215   9.921   0.816   2.642 -0.1880  0.1705 -0.0918
 7599W        W23216   3.785  10.696  11.544 -0.1017  0.3811  0.0413
 7600W        W23217  12.570  10.755   5.854  0.4024  0.1909  0.2134
 7601W        W23218  11.523  14.086  13.140  0.3633  0.0322 -0.0647
 7602W        W23219  16.893   2.294   3.493 -0.0321  0.1967  0.1536
 7603W        W23220   9.687   1.079  15.448  0.0628  0.1318  0.1047
 7604W        W23221  16.897  14.760   1.532  0.2377 -0.1501 -0.6031
 7605W        W23222  12.379  16.456  14.375 -0.0234 -0.1153 -0.1518
 7606W        W23223   1.951   5.809   3.852 -0.0914  0.2015  0.2034
 7607W        W23224  10.888  16.645  14.720 -0.0967  0.1681 -0.1667
 7608W        W23225   0.708   0.560   2.178 -0.0685 -0.0005 -0.2244
 7609W        W23226  17.740   8.016   5.966  0.2456  0.1972 -0.2869
 7610W        W23227  10.316  17.152   1.037 -0.1074 -0.0416 -0.2451
 7611W        W23228  16.705  16.109   0.292 -0.1676  0.1734  0.1103
 7612W        W23229  12.336   2.100  15.782 -0.0082  0.1666 -0.2051
 7613W        W23230   5.222   1.584  12.317  0.1420  0.1093 -0.0452
 7614W        W23231   6.540   5.553  16.083  0.1593 -0.1553 -0.2500
 7615W        W23232   4.361  10.965  14.218  0.0795 -0.2089  0.0029
 7616W        W23233   4.475   1.686  13.856 -0.1891 -0.0719  0.0519
 7617W        W23234  14.002   8.795   3.995  0.0645  0.2494 -0.1067
 7618W        W23235  11.498  15.883   5.510 -0.1094  0.1299  0.0554
 7619W        W23236  13.663   8.101  14.919 -0.2727  0.2421  0.2279
 7620W        W23237   8.234  13.641  13.988  0.2181  0.0955 -0.0807
 7621W        W23238  13.313   3.636  16.158  0.1654  0.2929 -0.3520
 7622W        W23239   1.101  10.920  14.236  0.0043 -0.0071 -0.0290
 7623W        W23240   9.489   4.563  12.735 -0.0565  0.0070  0.0034
 7624W        W23241  13.255   5.637  10.730 -0.1970  0.3209 -0.0470
 7625W        W23242  10.322   9.210   5.951 -0.3240 -0.0710  0.2593
 7626W        W23243   6.424   1.436  15.751  0.2501 -0.2230 -0.2528
 7627W        W23244  12.607  13.956   1.382 -0.2966 -0.1020  0.0645
 7628W        W23245   7.879   8.715   6.077 -0.3555 -0.1114 -0.2546
 7629W        W23246   1.252   3.047   3.146  0.2229 -0.4403 -0.2272
 7630W        W23247   5.171  14.349  13.258 -0.0247 -0.2141  0.0755
 7631W        W23248  12.695   2.086   1.660  0.1903  0.1355 -0.0463
 7632W        W23249  16.072   1.364   4.647  0.2640  0.0183 -0.0737
 7633W        W23250   6.684   2.445   3.571  0.1650  0.0796  0.1968
 7634W        W23251   2.150   9.990  15.717 -0.0145  0.2042 -0.0322
 7635W        W23252   5.824  16.540  15.684  0.9346  0.2627  0.1727
 7636W        W23253  12.540  12.336  13.510  0.2710 -0.0188  0.1594
 7637W        W23254   5.064   0.397   1.592  0.2939  0.2364  0.0132
 7638W        W23255   7.972   6.903   1.109 -0.2257  0.2585  0.2308
 7639W        W23256  15.610  14.119  12.773  0.0174  0.2419 -0.0364
 7640W        W23257  15.696   7.812  16.223  0.1446  0.0320  0.0216
 7641W        W23258  14.165  12.552   2.676  0.1375  0.2683  0.5023
 7642W        W23259   9.958  16.104  13.031  0.3859 -0.0279 -0.0534
 7643W        W23260   2.566  13.734  13.411 -0.0104 -0.1380  0.1901
 7644W        W23261   7.776   8.885  12.560  0.1082  0.4731 -0.0788
 7645W        W23262   3.655   6.017  12.204  0.2079 -0.0080  0.0594
 7646W        W23263   6.251  11.467  12.207  0.1112  0.0315 -0.0703
 7647W        W23264   8.641   6.790   5.692 -0.0633 -0.2119 -0.0576
 7648W        W23265   7.242  10.598  16.547 -0.0084 -0.1119 -0.0242
 7649W        W23266   9.144   4.249  15.129  0.2808 -0.2078  0.2626
 7650W        W23267  12.532   3.842   0.429  0.2281 -0.2158  0.1376
 7651W        W23268   6.912   7.507   0.626  0.0484  0.0098 -0.2600
 7652W        W23269  10.371   0.974  13.525  0.0640  0.0563 -0.1360
 7653W        W23270   5.371   2.943  12.659 -0.2126  0.0457  0.0044
 7654W        W23271  10.302   8.550   0.864 -0.0990  0.3309 -0.1369
 7655W        W23272   5.712  10.501   2.721 -0.0956  0.0538 -0.1458
 7656W        W23273   9.585   2.876  16.424 -0.1837  0.1123  0.0308
 7657W        W23274  16.067   3.783   4.810  0.2289  0.3304 -0.0179
 7658W        W23275  11.701  15.913   1.903 -0.2036 -0.0263 -0.1067
 7659W        W23276  15.962  10.741   3.327 -0.3466  0.0314 -0.2196
 7660W        W23277   1.727   0.969  16.260  0.1725  0.2481 -0.0338
 7661W        W23278   0.715   4.368  11.967  0.0168  0.2782 -0.0013
 7662W        W23279  16.929   8.979  15.020  0.0970  0.0725  0.2527
 7663W        W23280  15.233   6.457  13.789 -0.4630 -0.1284  0.1062
 7664W        W23281   9.729   7.240  16.582  0.1549 -0.3068 -0.1002
 7665W        W23282   4.004  14.141  12.068 -0.1271  0.0030 -0.1405
 7666W        W23283  14.470   8.218   4.716  0.0774  0.2717 -0.1339
 7667W        W23284  12.517   3.896  13.292  0.2142 -0.2425  0.1558
 7668W        W23285   0.365  15.239   0.460 -0.0049  0.0128  0.0749
 7669W        W23286  11.377   4.919   5.771 -0.0207  0.0461  0.0571
 7670W        W23287  17.300   2.548   1.430  0.0810  0.0105 -0.0407
 7671W        W23288  15.008   2.260   1.335  0.1941 -0.2905  0.0587
 7672W        W23289  17.751   5.436  14.785  0.0923 -0.0613 -0.1508
 7673W        W23290  10.736   7.133   5.766  0.0087  0.1511 -0.1089
 7674W        W23291   2.508   5.366  13.781  0.0017 -0.2537  0.0124
 7675W        W23292   0.666  15.986  16.235 -0.1749 -0.2698  0.0471
 7676W        W23293  14.196   8.268  16.759  0.1223 -0.1662  0.1506
 7677W        W23294   7.482   5.606  14.722  0.6033  0.1844 -0.0706
 7678W        W23295  15.268   1.554   4.641  0.1882 -0.0610 -0.2944
 7679W        W23296  11.571   1.472  15.415 -0.0342  0.1170 -0.3000
 7680W        W23297   3.041  12.454   0.343 -0.0485  0.0082 -0.1260
 7681W        W23298  13.780  15.577  16.207 -0.1374  0.0854 -0.0393
 7682W        W23299   1.199   3.583  16.373  0.0940  0.2674 -0.0895
 7683W        W23300  13.804  11.888   1.413  0.1301 -0.0802 -0.0760
 7684W        W23301   1.164  17.151  14.209 -0.2243 -0.0280  0.1321
 7685W        W23302   2.404   4.431  14.680 -0.0693  0.0682  0.0617
 7686W        W23303  14.276   5.833   5.105  0.2214 -0.0734  0.0106
 7687W        W23304   4.995   2.558  12.783 -0.0999  0.1123 -0.0692
 7688W        W23305   5.314   2.695   0.257  0.2842 -0.3601  0.1033
 7689W        W23306  11.078   1.508   1.546 -0.2093  0.0234 -0.0176
 7690W        W23307   7.312   3.083   5.862 -0.1975 -0.1299 -0.1045
 7691W        W23308  10.238  17.437   0.204  0.2784 -0.0498 -0.2038
 7692W        W23309  14.221   3.062   0.065  0.1349 -0.0766 -0.0114
 7693W        W23310  14.299   0.087   5.188 -0.2824 -0.4528  0.1197
 7694W        W23311   9.570  12.485  15.860 -0.0558 -0.0009 -0.2152
 7695W        W23312   3.812   5.261   4.122  0.0247  0.0199  0.0247
 7696W        W23313   2.480  12.347   2.513 -0.2569  0.1226 -0.1840
 7697W        W23314  13.675   2.802   5.116  0.0759 -0.0588 -0.0149
 7698W        W23315  17.255  13.123   2.150  0.3125  0.0835  0.2030
 7699W        W23316   2.978  16.407  14.816  0.3667  0.0542  0.1942
 7700W        W23317  14.718   6.606   2.229 -0.0693 -0.0975 -0.2178
 7701W        W23318  16.804  11.475   1.465 -0.2859  0.0520 -0.0180
 7702W        W23319   6.863  12.582  12.206 -0.2131 -0.3038 -0.1684
 7703W        W23320   9.032   2.845   0.223 -0.0817  0.2127 -0.0358
 7704W        W23321   7.940   2.689  16.090  0.1435 -0.0683 -0.1091
 7705W        W23322   1.226  11.035   0.947  0.2363 -0.0536  0.0527
 7706W        W23323  17.447  10.251   3.769  0.0821 -0.0699  0.0274
 7707W        W23324   6.309  17.355   3.263  0.1119  0.0152  0.2033
 7708W        W23325  11.839  12.658   4.633 -0.1640 -0.1831  0.1189
 7709W        W23326   4.105  12.187   0.238  0.1160  0.1418 -0.5314
 7710W        W23327   2.780   6.529  14.393  0.1516  0.1105 -0.1184
 7711W        W23328  11.017   4.690   4.381 -0.0211 -0.0791  0.0167
 7712W        W23329   4.377  13.242  13.871 -0.0453 -0.1135  0.3503
 7713W        W23330   4.839  10.135   0.372 -0.1210  0.0898 -0.3258
 7714W        W23331   8.387   7.481  16.120  0.1979 -0.1552  0.2602
 7715W        W23332   1.048  16.784   4.189 -0.3305  0.1893 -0.2156
 7716W        W23333   4.575  17.038  11.793 -0.0035 -0.0002  0.0666
 7717W        W23334   8.460  14.049   5.383 -0.1101 -0.2774  0.0189
 7718W        W23335   9.304   9.656  14.703  0.2884  0.0142  0.0130
 7719W        W23336   1.929   9.808  12.916 -0.0123 -0.5268 -0.2404
 7720W        W23337  16.856   7.754  15.581 -0.3051 -0.2411 -0.0234
 7721W        W23338  17.105  15.516  13.939  0.0558  0.2788 -0.1261
 7722W        W23339  14.360   9.403   6.328  0.0275 -0.0890 -0.0449
 7723W        W23340  11.917   8.616  14.344 -0.2680 -0.0640 -0.3496
 7724W        W23341  15.341  12.195   3.377 -0.0544 -0.3300  0.0467
 7725W        W23342   5.917  12.366  15.898  0.1642  0.4578 -0.1015
 7726W        W23343   5.879   3.781   0.852 -0.1261 -0.2230 -0.0264
 7727W        W23344   0.117  17.422   1.217 -0.3091  0.6576 -0.1998
 7728W        W23345   2.378   1.368   5.517  0.3567 -0.0522 -0.0932
 7729W        W23346  10.400  15.479  14.385 -0.1816  0.1135 -0.0450
 7730W        W23347   9.860   8.400  14.373  0.1222  0.1957 -0.1446
 7731W        W23348   1.428   3.572  14.348 -0.1948 -0.0705  0.1334
 7732W        W23349   9.622   8.349  13.399 -0.0620  0.0998 -0.0572
 7733W        W23350  14.497  10.553   0.457  0.2671  0.2425 -0.3869
 7734W        W23351   7.116   8.855  12.111  0.0140  0.0141  0.1523
 7735W        W23352   0.444   5.928  14.209 -0.0218 -0.3020 -0.0816
 7736W        W23353  15.829  13.334   2.571 -0.0149 -0.1075 -0.1536
 7737W        W23354   6.894   4.541   2.324 -0.0806  0.2399  0.0449
 7738W        W23355   6.717  10.513   5.123 -0.1093 -0.4100  0.7890
 7739W        W23356  10.876   1.942  14.373  0.2962 -0.4496 -0.1919
 7740W        W23357   4.263  11.591  12.174 -0.1294  0.3280  0.1965
 7741W        W23358   7.240   3.565   4.852  0.1872  0.2443 -0.0339
 7742W        W23359  13.089  14.898  12.683 -0.0880  0.3562 -0.0655
 7743W        W23360   8.461  15.181   1.286  0.2639  0.2537  0.0935
 7744W        W23361   7.401  14.985  12.166  0.2178  0.1455  0.3187
 7745W        W23362   5.499   0.138  16.617 -0.1294 -0.0041 -0.0305
 7746W        W23363   4.934  13.916  13.034 -0.0962  0.2853  0.1599
 7747W        W23364  16.131  11.214   4.137  0.1123 -0.2437 -0.1979
 7748W        W23365   6.751   5.379  13.340 -0.1704 -0.1602 -0.0861
 7749W        W23366  15.428   2.580  14.904  0.0822 -0.0910 -0.1858
 7750W        W23367   0.072  14.120   1.816 -0.2742 -0.1967  0.2165
 7751W        W23368   2.248   4.195   4.394  0.0494  0.1749  0.1651
 7752W        W23369  10.035   7.025  13.382  0.4029  0.0424  0.0959
 7753W        W23370  12.047   4.159  16.373 -0.1095 -0.1527  0.4460
 7754W        W23371  12.799   2.667   1.493 -0.2380 -0.0467  0.0256
 7755W        W23372   4.385   0.478  16.177  0.0845  0.2238  0.3287
 7756W        W23373   7.401  14.286   3.922  0.1232  0.2017 -0.1593
 7757W        W23374   7.288   8.992  12.770  0.1604  0.0024  0.0079
 7758W        W23375   1.778  15.410   1.053 -0.0795 -0.0603 -0.0949
 7759W        W23376  16.449   4.161   3.427  0.0239  0.1340 -0.0433
 7760W        W23377   7.493  11.160  14.261 -0.1364  0.2318  0.0542
 7761W        W23378   6.306  12.161   2.246  0.0623 -0.2086 -0.1662
 7762W        W23379  15.167  16.618   0.803 -0.0094  0.3380  0.0052
 7763W        W23380   8.430  16.325   0.812 -0.2209 -0.5388  0.3112
 7764W        W23381   4.870  17.087   3.997 -0.3375  0.0734 -0.1584
 7765W        W23382   6.251   4.559  11.898  0.0772 -0.0731  0.1080
 7766W        W23383  13.133  13.856  13.148 -0.0474  0.3965 -0.0763
 7767W        W23384   1.031   9.011   2.743 -0.0872  0.0099  0.1947
 7768W        W23385  16.614   7.626  13.404 -0.1873  0.1561 -0.2765
 7769W        W23386   4.662  13.535  14.170 -0.3952 -0.1769 -0.0266
 7770W        W23387   8.793   3.183   5.074 -0.1272 -0.1083 -0.1908
 7771W        W23388   7.274  11.398   3.535 -0.0316 -0.2067  0.2384
 7772W        W23389   5.965  12.293   4.552 -0.0326  0.0043 -0.0813
 7773W        W23390   9.711  13.989   3.325 -0.0433 -0.0221  0.0152
 7774W        W23391   6.801  12.078   4.913 -0.1759 -0.1779 -0.0279
 7775W        W23392  10.796  10.621  15.378  0.1348  0.0546  0.1587
 7776W        W23393   2.968  14.925   4.167  0.0476 -0.3393  0.1139
 7777W        W23394   1.958   2.556   3.690  0.0127  0.0600  0.0454
 7778W        W23395   6.844  13.809  11.263  0.1412 -0.0622 -0.1377
 7779W        W23396  15.799  13.351   0.174  0.2485  0.0426 -0.0156
 7780W        W23397   3.848  10.236   0.134 -0.1078  0.0850  0.0409
 7781W        W23398  17.041   0.010   5.521  0.2634 -0.3617  0.0919
 7782W        W23399   9.307   6.062   5.381  0.2616  0.1088  0.3987
 7783W        W23400  13.983   2.260  12.204 -0.1100  0.0962  0.3430
 7784W        W23401   0.491  12.644   1.207 -0.1550 -0.0183  0.2475
 7785W        W23402  10.945  15.008  16.273 -0.3028  0.1294 -0.1133
 7786W        W23403   2.046   0.503   6.256  0.2454 -0.0218 -0.1756
 7787W        W23404  14.485  12.886   4.755  0.0201 -0.1608  0.2566
 7788W        W23405  12.204  14.241   1.437  0.0496  0.0164  0.0258
 7789W        W23406   1.073  16.619   2.489  0.2818 -0.2384  0.0836
 7790W        W23407   9.718   5.972   5.630  0.0926 -0.1372  0.0397
 7791W        W23408  11.585  16.395  14.948  0.2306 -0.1291 -0.5258
 7792W        W23409   9.732   2.470  12.078  0.0216  0.1703 -0.2886
 7793W        W23410   3.882  16.783  11.269  0.0608 -0.2765 -0.0716
 7794W        W23411  17.151   4.702  14.229 -0.0047 -0.0440  0.1444
 7795W        W23412  10.474   4.875  14.666  0.0103 -0.2367 -0.0787
 7796W        W23413   7.201   6.204   4.998  0.0472 -0.0753 -0.1782
 7797W        W23414  12.836   2.530   5.392 -0.2184  0.1690  0.3372
 7798W        W23415   1.169  12.525   2.965 -0.1892 -0.1125  0.1393
 7799W        W23416   9.108   0.541   5.371 -0.0877  0.1368 -0.0025
 7800W        W23417   5.049   2.077   1.803  0.1156  0.1383 -0.1259
 7801W        W23418   1.511   5.273   4.578 -0.1285  0.1491  0.0638
 7802W        W23419  13.168  12.857   4.086 -0.0130 -0.0678  0.3083
 7803W        W23420   8.187   6.653   0.221  0.0860 -0.3559  0.0775
 7804W        W23421  16.220  12.284   1.918 -0.3375  0.0501 -0.1469
 7805W        W23422   8.845  11.305  11.428  0.1179 -0.0229  0.0032
 7806W        W23423  11.908   5.991  14.170 -0.0545  0.3175 -0.3403
 7807W        W23424  13.830  17.783   5.249  0.1516 -0.2887  0.2516
 7808W        W23425   0.640   8.688   2.450  0.0934 -0.1687 -0.3495
 7809W        W23426   2.871   1.018   4.378  0.0259  0.1889 -0.4099
 7810W        W23427   3.358  13.517   0.310  0.1627 -0.0909  0.0621
 7811W        W23428  10.795   8.656   4.493 -0.2341 -0.1226  0.2128
 7812W        W23429  17.568   2.935  13.669 -0.1933  0.3905  0.0961
 7813W        W23430  10.180   5.779   2.964  0.1827 -0.1933 -0.0094
 7814W        W23431  15.208   1.014   4.818  0.2310 -0.0857  0.1637
 7815W        W23432  16.586  13.928   0.560 -0.3411  0.0192  0.0145
 7816W        W23433  12.848   1.836  14.332 -0.0145  0.0910  0.0607
 7817W        W23434   2.819   0.952   2.742  0.0608  0.0925 -0.4541
 7818W        W23435   3.949  13.741  11.583  0.0285  0.0362 -0.0148
 7819W        W23436  11.149  10.835  11.837  0.4449  0.0792  0.1675
 7820W        W23437   2.774   1.482  14.069  0.1019  0.4183 -0.1392
 7821W        W23438   9.288  14.985   4.957 -0.1101  0.1190 -0.2228
 7822W        W23439  11.993   0.401  16.574 -0.4336  0.3044 -0.1667
 7823W        W23440   8.802  14.978   4.900 -0.0198 -0.0764  0.1186
 7824W        W23441   8.594   1.304   1.071 -0.1716 -0.0868  0.1861
 7825W        W23442   1.665  11.405   4.688 -0.1103 -0.2065  0.0790
 7826W        W23443   1.626  13.420  15.498  0.0536 -0.0622  0.1044
 7827W        W23444   9.988   4.752   3.765 -0.0344  0.0468  0.1782
 7828W        W23445   2.520   0.467  14.074 -0.0767  0.1678  0.5928
 7829W        W23446   8.747  17.782   0.912 -0.1446 -0.1009  0.0843
 7830W        W23447   3.215  17.283   1.465  0.1354 -0.0833  0.0658
 7831W        W23448   4.914  17.636   4.387 -0.0145 -0.0666 -0.0059
 7832W        W23449  10.011  16.926   3.400  0.1396 -0.0237  0.2962
 7833W        W23450   6.044   8.725   3.640  0.1085 -0.1543 -0.3929
 7834W        W23451   8.751   5.326  12.723 -0.0977  0.1518  0.0679
 7835W        W23452   4.968   1.906  14.103 -0.1277 -0.2374 -0.1072
 7836W        W23453   4.726  16.980  16.143 -0.0037 -0.1258  0.0416
 7837W        W23454  10.882   6.135   3.391  0.2212 -0.2194  0.3186
 7838W        W23455  11.883  15.359   3.202 -0.2651  0.1556  0.0049
 7839W        W23456  16.780  12.020   4.737 -0.0757  0.2203 -0.1245
 7840W        W23457  14.345   0.500   1.543 -0.1342 -0.0497  0.0740
 7841W        W23458   8.353   0.700  12.737  0.0848 -0.0061  0.0213
 7842W        W23459  16.669  13.484   1.189  0.0623 -0.1255  0.1118
 7843W        W23460   9.867   0.588  15.393  0.0499  0.2245 -0.0828
 7844W        W23461   4.259  15.485  13.790 -0.1457 -0.2577 -0.1913
 7845W        W23462   9.394  10.506  10.607  0.0464 -0.1292 -0.0295
 7846W        W23463   5.249   5.375   5.249 -0.0240  0.2671  0.2517
 7847W        W23464   8.657  10.241  15.739  0.1150 -0.0135 -0.0533
 7848W        W23465   7.216  17.825  16.523 -0.2049 -0.2850 -0.1048
 7849W        W23466  11.957  10.313   1.635 -0.3205 -0.0344  0.2856
 7850W        W23467  15.539   4.745   2.358  0.0077 -0.1679 -0.2176
 7851W        W23468   6.620   2.592  16.089  0.1901  0.2108 -0.0040
 7852W        W23469  13.632   0.986   1.138  0.2133 -0.0197  0.2106
 7853W        W23470   4.808   5.864  14.002  0.0676  0.1844 -0.2594
 7854W        W23471  13.590   5.992  14.358  0.1626 -0.0705 -0.0400
 7855W        W23472   0.220   0.183   4.491 -0.0401 -0.1170  0.0460
 7856W        W23473  12.931  12.668  13.362 -0.3073 -0.1572 -0.0855
 7857W        W23474  11.219  13.990  12.748  0.1013  0.1205 -0.1174
 7858W        W23475   8.945  12.865  11.324  0.2782 -0.0086 -0.0203
 7859W        W23476  16.461  15.089   0.035 -0.1043  0.2037 -0.2268
 7860W        W23477   8.641   9.757  12.792 -0.2172 -0.1320 -0.3358
 7861W        W23478  11.718   2.158   1.623  0.0165  0.0537  0.0763
 7862W        W23479   0.926   6.973  11.871 -0.0755  0.0588  0.0648
 7863W        W23480   1.940   4.655  13.207 -0.0940 -0.2686  0.3459
 7864W        W23481   8.695   4.443   0.012  0.0391  0.2050  0.1441
 7865W        W23482  15.199  17.463   1.705 -0.2380 -0.0854 -0.3185
 7866W        W23483   5.186   9.156   5.875 -0.0123 -0.0357  0.2153
 7867W        W23484   5.944  11.383  12.614 -0.1340  0.0147 -0.0510
 7868W        W23485  13.906  17.197  15.311 -0.1815  0.0357 -0.1187
 7869W        W23486  17.328   2.065   1.912 -0.2242  0.1739  0.1480
 7870W        W23487   2.974  13.001   2.929 -0.1475  0.0801  0.2194
 7871W        W23488   9.232  13.584   2.586 -0.0268  0.1492 -0.0210
 7872W        W23489  11.550  14.422   1.618  0.0211  0.1133 -0.1748
 7873W        W23490  16.072   2.448  16.129 -0.0785 -0.1705  0.2017
 7874W        W23491   4.865  12.887  16.785  0.1401  0.0232  0.1609
 7875W        W23492   7.133  14.795  13.940 -0.1356  0.0277 -0.2894
 7876W        W23493   1.546   2.573  12.170 -0.0256  0.0494 -0.0823
 7877W        W23494   0.337   4.733  14.786  0.1945  0.3093  0.4127
 7878W        W23495   6.259   1.496  13.761  0.0009 -0.2807  0.1503
 7879W        W23496   8.124   3.287  15.505 -0.1464  0.1049  0.1022
 7880W        W23497  12.158   3.142   1.898 -0.0996 -0.0188  0.0255
 7881W        W23498   0.237  14.678   3.691 -0.1351  0.1678  0.1440
 7882W        W23499  10.063   4.860   0.438  0.3821  0.1293  0.0130
 7883W        W23500  12.722  12.077   0.653  0.4336 -0.1228  0.0010
 7884W        W23501   7.708  15.217   3.700  0.0545 -0.1485  0.2247
 7885W        W23502   6.165   9.946   0.676 -0.0696  0.2590 -0.2485
 7886W        W23503  15.980  17.065  15.400 -0.0216  0.1051 -0.0617
 7887W        W23504   3.406  11.128   2.236  0.2912 -0.2310  0.1816
 7888W        W23505  10.265   5.717   6.056 -0.0855 -0.0083  0.0868
 7889W        W23506   6.378   4.487   1.318  0.0412  0.0230  0.0045
 7890W        W23507  13.771   2.356   0.158  0.0684  0.1076  0.3165
 7891W        W23508  11.924  16.046   2.422  0.0812  0.1601  0.0332
 7892W        W23509   9.261   1.629   1.752  0.1442  0.2554  0.1637
 7893W        W23510  17.656  15.551   5.319 -0.0228  0.1585  0.0619
 7894W        W23511   2.947   2.932   2.122 -0.1756 -0.2315 -0.1064
 7895W        W23512   1.405   8.926   1.926  0.0352  0.3076  0.0612
 7896W        W23513  11.680   0.009  14.751 -0.0841  0.0152  0.3222
 7897W        W23514   6.669   4.212   3.979 -0.1212  0.2834 -0.1428
 7898W        W23515   5.552  14.867   1.572  0.1761 -0.1540  0.0538
 7899W        W23516  10.530   7.141  12.017  0.0813  0.2337 -0.1128
 7900W        W23517  15.841  15.002   5.796  0.3296  0.3508  0.0656
 7901W        W23518   1.794  12.616   4.575 -0.1104 -0.0155  0.0687
 7902W        W23519   8.023  11.168   5.119 -0.1105 -0.0365 -0.2522
 7903W        W23520  15.157   9.561  16.468 -0.2631  0.2143  0.0035
 7904W        W23521   3.189  15.233  14.133 -0.0180 -0.0710  0.0323
 7905W        W23522   1.532   2.928  13.636 -0.3356 -0.0302 -0.2632
 7906W        W23523   8.834  14.191   5.145  0.0361 -0.0638  0.0917
 7907W        W23524  14.918  12.095  15.721 -0.0584  0.2943 -0.0042
 7908W        W23525  14.427   1.620   4.090  0.0047 -0.0551  0.0053
 7909W        W23526  13.274  16.599  16.462  0.0326  0.0547 -0.0351
 7910W        W23527  11.084  10.214   0.242  0.0921  0.3211  0.2450
 7911W        W23528   0.343  17.309   5.687  0.2788  0.1950 -0.2675
 7912W        W23529   5.176  16.989  16.452 -0.0146  0.1861 -0.3137
 7913W        W23530   5.772  16.722   0.067 -0.1973 -0.0403  0.0814
 7914W        W23531  17.163  11.363   1.077  0.0169  0.1364  0.2260
 7915W        W23532   9.039   7.499   5.527 -0.0321 -0.1959 -0.0523
 7916W        W23533   1.605  16.486   4.716  0.0076 -0.0202 -0.0904
 7917W        W23534   9.648   1.541  12.432 -0.1092  0.1220  0.1993
 7918W        W23535  11.876   3.108  13.149 -0.2420  0.0299  0.1042
 7919W        W23536  11.693   1.067  11.761 -0.0047  0.3604  0.1900
 7920W        W23537   0.512   1.637  14.669  0.3072  0.0129  0.1112
 7921W        W23538   0.624  11.563   0.259 -0.1903  0.2654  0.0139
 7922W        W23539   8.116  11.909  11.819  0.0370  0.1047 -0.0727
 7923W        W23540   6.076  17.073   4.271 -0.2945  0.0606  0.0892
 7924W        W23541  16.674  16.738   2.393  0.4179  0.1431 -0.0058
 7925W        W23542   9.654   9.855  12.653 -0.0436 -0.0237 -0.2462
 7926W        W23543   9.376   2.925  15.956  0.1507 -0.0173  0.0447
 7927W        W23544   6.673   4.022   4.987 -0.0892  0.2054 -0.1959
 7928W        W23545   0.978  12.964  13.651 -0.1586 -0.0173  0.0949
 7929W        W23546   6.957  16.063  13.887 -0.3050 -0.1151 -0.0719
 7930W        W23547  12.710  17.751  16.297  0.3651  0.0914  0.0813
 7931W        W23548  13.853   9.495  14.161  0.0562 -0.0172  0.1814
 7932W        W23549  12.412   6.111  12.769  0.0773 -0.0182 -0.2758
 7933W        W23550   7.002  12.699  13.892  0.0851 -0.2498  0.1241
 7934W        W23551   4.604   8.392   1.812  0.0846  0.2833  0.1232
 7935W        W23552  13.822  16.812   3.016  0.0152  0.0902 -0.0468
 7936W        W23553  11.289   5.571   1.120  0.1121 -0.0015 -0.1780
 7937W        W23554   0.365  14.841  12.786  0.1959  0.3025 -0.0550
 7938W        W23555   0.708   2.212   4.515 -0.1241  0.1277  0.2015
 7939W        W23556   7.663   2.003   0.468 -0.2364 -0.0845 -0.1358
 7940W        W23557   8.737   2.285  11.813 -0.1516  0.0352  0.1847
 7941W        W23558   5.814  17.587   4.081 -0.3293 -0.2757 -0.0154
 7942W        W23559   5.170  15.995  15.508  0.1130  0.1634  0.1289
 7943W        W23560  17.349   6.193  15.788  0.1912 -0.0044  0.0784
 7944W        W23561  15.056  15.180  13.565 -0.1663 -0.0081  0.0883
 7945W        W23562   0.754   2.179   0.636 -0.2109 -0.0067 -0.0797
 7946W        W23563  17.226   7.783  11.581 -0.0042 -0.1640 -0.1630
 7947W        W23564  14.868   2.720   0.723  0.1599  0.0872 -0.1040
 7948W        W23565   0.266   3.981   0.806  0.1981 -0.0653  0.0640
 7949W        W23566   1.360   9.140   5.375  0.4056 -0.0951  0.2375
 7950W        W23567   1.294   4.846  16.438 -0.0422  0.0965  0.0401
 7951W        W23568   7.983   5.273  12.973  0.2484  0.0442  0.2747
 7952W        W23569   0.458  13.627  15.886 -0.2421  0.1085 -0.2042
 7953W        W23570  14.486   4.649   3.074 -0.1123 -0.2370  0.1940
 7954W        W23571   3.055  17.400  14.877  0.0284  0.0760  0.4263
 7955W        W23572  11.234  12.940   5.328  0.2072 -0.4529 -0.2034
 7956W        W23573  12.125   5.704  15.744  0.1233 -0.2720 -0.0976
 7957W        W23574   4.534  16.380  16.395 -0.2141  0.1807  0.4059
 7958W        W23575  13.410   0.157  15.103  0.0741  0.0460  0.2630
 7959W        W23576  13.524  10.449   5.258  0.1167  0.1297  0.0861
 7960W        W23577  13.533  10.547  14.026  0.2013 -0.0233  0.0510
 7961W        W23578   1.174   5.826   3.687  0.1321  0.2292 -0.2517
 7962W        W23579  11.478  10.811   2.012  0.0072 -0.0197  0.1474
 7963W        W23580  16.149  17.490   0.698 -0.0580  0.1618  0.2754
 7964W        W23581   5.283   8.040  13.558  0.0497  0.0622  0.2736
 7965W        W23582  12.759  14.892  14.395 -0.0951  0.1578 -0.2371
 7966W        W23583  17.119   3.952  15.991 -0.0597 -0.2619  0.2128
 7967W        W23584   9.545   7.952   1.031  0.2029 -0.1313  0.1615
 7968W        W23585   5.760   4.006   1.276 -0.2358  0.1800  0.2002
 7969W        W23586  15.531   5.940  14.254  0.2623 -0.0571 -0.0080
 7970W        W23587  11.580   0.269  16.247 -0.2920  0.1686 -0.3038
 7971W        W23588  17.225   4.804   4.289  0.0455  0.2547 -0.3466
 7972W        W23589  10.579   6.678  16.253  0.1552 -0.1011  0.1754
 7973W        W23590   3.926   4.322  10.525  0.0602  0.0771 -0.2358
 7974W        W23591  13.660   7.562  13.792  0.1491  0.0302  0.0214
 7975W        W23592   1.062  16.077  11.648  0.0042  0.2478  0.0475
 7976W        W23593  15.194   1.388   2.229  0.2459 -0.4653  0.1866
 7977W        W23594   3.272   2.538   2.582 -0.2869  0.0161  0.2943
 7978W        W23595  16.829  15.768  16.396 -0.0473 -0.2012 -0.0464
 7979W        W23596   4.863  14.702   3.010 -0.0572 -0.0862  0.1628
 7980W        W23597  16.517  10.148   1.184  0.3171  0.3937 -0.0363
 7981W        W23598   0.036  12.290   3.821 -0.2066  0.2005 -0.3207
 7982W        W23599   6.888  11.374   3.807 -0.1001  0.1649 -0.1539
 7983W        W23600   5.132   8.801  11.904  0.0582  0.2095  0.0835
 7984W        W23601  11.227  12.213   0.497  0.0230 -0.2765 -0.2386
 7985W        W23602  15.914   5.511  16.578  0.1647 -0.0884  0.2755
 7986W        W23603  11.988   4.051   4.212 -0.0179 -0.1290  0.0771
 7987W        W23604  10.865  14.486   2.487  0.1031 -0.0607 -0.1509
 7988W        W23605   6.523  10.711  16.421 -0.1115  0.3583 -0.2801
 7989W        W23606   6.574   7.108   0.675  0.0783  0.1319  0.1235
 7990W        W23607  16.666  11.247  16.560  0.1435  0.1334 -0.0465
 7991W        W23608  15.914  13.798  12.465 -0.0903 -0.1574 -0.1026
 7992W        W23609  15.042   1.887  15.889 -0.0157 -0.2495 -0.2232
 7993W        W23610  12.704   0.250   1.889 -0.0900 -0.2536  0.0991
 7994W        W23611   1.805  14.686  11.802 -0.1202 -0.1414  0.2027
 7995W        W23612   8.237   2.498   0.237  0.0780 -0.0409 -0.2424
 7996W        W23613   9.052   5.004   3.612  0.1504 -0.1439  0.0362
 7997W        W23614  15.084  11.778  11.092  0.1394 -0.2906  0.0981
 7998W        W23615   3.806  14.188   2.669 -0.0922 -0.3978  0.0210
 7999W        W23616  12.782  15.604  14.851 -0.0468  0.0739 -0.2014
 8000W        W23617   1.794  15.219  14.437 -0.0205  0.1752  0.0233
 8001W        W23618  10.474  17.091  15.224 -0.2313  0.2034  0.1608
 8002W        W23619   2.322   2.312   0.314 -0.2038  0.2063  0.0059
 8003W        W23620   6.309  16.571   1.602  0.0178 -0.0706  0.2025
 8004W        W23621  15.222  16.058   4.652  0.0806 -0.1846 -0.0259
 8005W        W23622   6.870   7.216  14.874  0.1144  0.0386 -0.0624
 8006W        W23623  17.655   1.983   0.691  0.0159 -0.0497 -0.2551
 8007W        W23624  17.444   1.705  11.471  0.3718  0.0950 -0.4009
 8008W        W23625  11.812  16.865   5.516 -0.3573 -0.2746 -0.2037
 8009W        W23626  13.371   9.589   1.288 -0.2217  0.0449  0.0848
 8010W        W23627   7.209   5.557  13.101 -0.3311  0.0346  0.2759
 8011W        W23628   1.178   5.180   0.182  0.1373  0.0481 -0.1643
 8012W        W23629   1.155  12.779  11.883 -0.0156  0.4196  0.2625
 8013W        W23630   1.497  15.851   1.064 -0.1693  0.3123  0.0265
 8014W        W23631   5.074  15.543   4.252 -0.3064 -0.0712 -0.4855
 8015W        W23632   7.741   8.015   2.119 -0.1986  0.2618  0.4434
 8016W        W23633  11.399   6.351   0.227  0.0327  0.2576 -0.0739
 8017W        W23634  17.170  15.184  12.658  0.1001 -0.1339 -0.2343
 8018W        W23635   7.886   6.841  13.654  0.2600  0.1469  0.0110
 8019W        W23636  13.870   5.200   5.039  0.0625  0.0072 -0.3898
 8020W        W23637  11.237   3.024  16.458 -0.1908 -0.1152  0.2429
 8021W        W23638  13.907  14.584  16.204 -0.1201 -0.0715 -0.1231
 8022W        W23639   6.335   3.872  15.619 -0.0346 -0.0087 -0.0691
 8023W        W23640  14.008  15.742   3.168  0.1622  0.1477  0.3920
 8024W        W23641  16.342  10.582  14.289  0.1759  0.1552  0.0224
 8025W        W23642   0.519  11.826   0.744 -0.0105  0.4334  0.0385
 8026W        W23643   0.138  13.742  12.002  0.0179  0.1472  0.0269
 8027W        W23644  15.482   5.965   3.301 -0.1825 -0.1977 -0.0487
 8028W        W23645   5.336  17.385   0.404 -0.3388 -0.0920 -0.0561
 8029W        W23646  11.565  12.011  15.602  0.1332 -0.0001 -0.1405
 8030W        W23647   6.374   6.056  12.626  0.3005  0.1816  0.2151
 8031W        W23648   7.642   9.082   5.742 -0.2719 -0.4199 -0.2539
 8032W        W23649   5.569   1.773   1.530  0.4163 -0.3529  0.2328
 8033W        W23650   0.296   9.931  14.230  0.0101 -0.2209 -0.3593
 8034W        W23651   2.991   2.651   4.241 -0.1287  0.3064 -0.0282
 8035W        W23652   8.594  15.881   3.307  0.0793 -0.1976  0.0049
 8036W        W23653   4.752   6.760   0.451 -0.2780  0.2070 -0.0314
 8037W        W23654  13.573  12.721  16.672  0.0048  0.1619  0.0362
 8038W        W23655   7.626  13.418   2.639  0.1063 -0.1807 -0.2373
 8039W        W23656  14.336   9.308  14.770 -0.2300  0.0729  0.0526
 8040W        W23657   0.376   0.733  15.396  0.0801 -0.2483 -0.1258
 8041W        W23658  16.880   9.301   0.838 -0.0987 -0.3389  0.1191
 8042W        W23659   1.016  12.860  15.833  0.0007  0.0086  0.1656
 8043W        W23660  15.654  10.516  13.253 -0.0082 -0.1581 -0.0932
 8044W        W23661  12.084  12.493   2.201  0.2202 -0.1361  0.2049
 8045W        W23662   5.510   3.502  14.230 -0.0533  0.0084  0.1638
 8046W        W23663   0.560  12.915   4.726  0.1592  0.0738 -0.4139
 8047W        W23664  12.838  11.521   4.719  0.2792 -0.1940 -0.3940
 8048W        W23665  14.681  16.911  11.612 -0.0922 -0.3428  0.1556
 8049W        W23666   0.430  11.300  15.702 -0.2584  0.1570  0.0068
 8050W        W23667   7.012   8.490  14.868  0.2250  0.1422  0.0754
 8051W        W23668   8.963  16.094  16.033  0.0379 -0.0074  0.0880
 8052W        W23669   7.878  10.762  13.076  0.0301  0.1274  0.1291
 8053W        W23670  11.124   9.809  16.062  0.3807  0.1168 -0.0325
 8054W        W23671  11.972   0.829   5.434  0.1334  0.1834 -0.1004
 8055W        W23672   2.329   3.953  14.353  0.3259  0.1006  0.1331
 8056W        W23673   7.670  15.151  15.073  0.0324 -0.1086 -0.1386
 8057W        W23674   4.985   6.435  13.411 -0.0266 -0.2250  0.0854
 8058W        W23675   8.513  14.306   3.521 -0.0160 -0.0724  0.0201
 8059W        W23676   4.895   9.975   5.368 -0.3424 -0.0191  0.0165
 8060W        W23677   4.610   0.462  10.044 -0.1105  0.0352 -0.2842
 8061W        W23678   5.232  16.469  11.141 -0.2714  0.1020 -0.1242
 8062W        W23679   7.999  13.060   3.796  0.0345  0.1719 -0.0435
 8063W        W23680   0.034   2.100  10.999 -0.2687 -0.0861  0.0457
 8064W        W23681  17.300   6.758  14.730 -0.2450 -0.2396  0.2473
 8065W        W23682   9.168   5.616   5.098 -0.1611  0.0836 -0.2408
 8066W        W23683   5.214   5.501   4.765  0.1513 -0.0639  0.2051
 8067W        W23684   7.499  16.455   0.403 -0.0355  0.0464 -0.4238
 8068W        W23685   8.998   2.160   2.753 -0.2490 -0.0959  0.0398
 8069W        W23686   3.317  17.252  16.162  0.2101 -0.0485  0.0658
 8070W        W23687   0.873  14.651  12.637 -0.0450 -0.0838  0.0517
 8071W        W23688  17.549  15.814  13.592 -0.1114 -0.0410  0.2420
 8072W        W23689  10.599  16.730  16.441 -0.3249  0.1115  0.0983
 8073W        W23690  11.372  11.901  15.063 -0.1815 -0.3587  0.1519
 8074W        W23691   1.462  12.549  12.887 -0.0798 -0.0793  0.1796
 8075W        W23692  17.789  10.387  15.337 -0.0292  0.0310 -0.1517
 8076W        W23693   9.878   6.256   1.164 -0.1971  0.1893 -0.0751
 8077W        W23694   3.215   4.892  13.229 -0.2247 -0.0594 -0.0390
 8078W        W23695   1.329   6.176  15.140 -0.2405  0.0086  0.1527
 8079W        W23696  14.198   2.280   3.145  0.0061  0.0679 -0.0834
 8080W        W23697  13.398  12.885  12.469 -0.2049 -0.2041  0.0356
 8081W        W23698  17.387  11.726   1.358 -0.0383 -0.0363  0.0625
 8082W        W23699   1.640   1.603  14.139 -0.0631 -0.0482 -0.2272
 8083W        W23700   9.045   0.503  13.740 -0.2390  0.0246 -0.3140
 8084W        W23701  13.695   5.985   4.544 -0.0998  0.1845  0.1933
 8085W        W23702   7.572  14.792  15.417 -0.0551  0.2320  0.2997
 8086W        W23703   8.225  15.101   3.784 -0.1946  0.0658 -0.3305
 8087W        W23704  12.158   4.448   1.525 -0.2715 -0.1588 -0.0325
 8088W        W23705   3.103  12.985  16.772  0.1900  0.2816  0.0045
 8089W        W23706   3.377   8.425  15.766  0.1153 -0.0342 -0.3595
 8090W        W23707   1.189  16.282   4.431 -0.0423  0.0061 -0.1677
 8091W        W23708   1.573   2.131   5.463  0.1202  0.1387 -0.1963
 8092W        W23709  14.620   8.282  13.892 -0.0597 -0.0770 -0.1104
 8093W        W23710   6.426   6.107  11.183 -0.1398 -0.0186 -0.2332
 8094W        W23711  15.274  17.415  13.144  0.3369 -0.2122 -0.1704
 8095W        W23712   7.358   9.021   1.102  0.2914 -0.0591 -0.0886
 8096W        W23713   4.303  11.735   4.655  0.0121 -0.0975 -0.0026
 8097W        W23714  12.037  15.032  11.348  0.2528  0.0602  0.0843
 8098W        W23715   8.001   9.240   3.406  0.1501  0.0798 -0.1704
 8099W        W23716  12.484  11.412   0.302 -0.1908  0.0109  0.0628
 8100W        W23717   6.612  12.491  10.217  0.3089 -0.1985 -0.1720
 8101W        W23718   1.862   9.019   0.901  0.0734 -0.1842 -0.0988
 8102W        W23719  15.261   9.029   4.119  0.0166  0.0501 -0.1394
 8103W        W23720   0.614  16.772  14.491 -0.0503  0.3168  0.2757
 8104W        W23721  10.076   1.913   1.589  0.3000  0.0453 -0.1653
 8105W        W23722  10.648  15.989   4.446  0.1716 -0.1992 -0.2721
 8106W        W23723   7.363   5.677   2.205 -0.0632  0.2555  0.0952
 8107W        W23724   9.710   8.518  16.763 -0.1618  0.2284  0.1083
 8108W        W23725   9.520   8.934   0.521 -0.1466 -0.0335 -0.1290
 8109W        W23726   0.947   0.503   4.023  0.2023 -0.2415 -0.1047
 8110W        W23727   0.631  11.675   3.599 -0.0928  0.0182  0.0299
 8111W        W23728   0.812  12.272   0.648  0.1084  0.0454 -0.2403
 8112W        W23729   4.396  11.911   2.966 -0.3146  0.2465 -0.0213
 8113W        W23730  13.189   7.272   2.033  0.1958  0.0940  0.0679
 8114W        W23731  17.628   0.411   1.087 -0.2387 -0.2505  0.1633
 8115W        W23732   8.199   6.215  15.825  0.0249 -0.0674 -0.0851
 8116W        W23733   4.550  11.907   1.359 -0.2798  0.0499 -0.0989
 8117W        W23734   0.466   1.148  16.783 -0.1672  0.2686 -0.0682
 8118W        W23735  14.453   3.345  16.008  0.3379  0.1992 -0.3155
 8119W        W23736  12.320   8.442   4.246  0.1606 -0.0964 -0.3036
 8120W        W23737   7.045  10.118   5.052  0.0951  0.2333  0.3428
 8121W        W23738  13.879  12.909   3.011  0.0817 -0.2124 -0.0785
 8122W        W23739  10.379   6.737  12.376  0.1041  0.1719  0.3900
 8123W        W23740   7.347  16.441   5.284  0.0731  0.2171  0.0558
 8124W        W23741   7.368  16.296  15.831  0.0819 -0.3689 -0.2250
 8125W        W23742   0.651   5.189  13.447 -0.1698  0.2673 -0.2222
 8126W        W23743   5.015   9.482   1.205 -0.2741 -0.2134  0.1738
 8127W        W23744   5.887   0.649   3.068 -0.1249  0.0991 -0.1824
 8128W        W23745  13.775  16.709  11.762  0.1538  0.0817  0.0471
 8129W        W23746  12.386   0.508  12.842 -0.0714  0.0930  0.1451
 8130W        W23747   1.487   6.389   1.450 -0.1223  0.0206 -0.1285
 8131W        W23748   0.016   8.325  13.985  0.0962 -0.0450  0.0214
 8132W        W23749   8.921  16.690  13.718  0.2781  0.1988  0.0726
 8133W        W23750   4.828   4.113  15.405  0.0822  0.0104  0.1667
 8134W        W23751  11.667   4.353  11.852  0.0751 -0.0398  0.0677
 8135W        W23752  17.446   0.810  15.027  0.0465  0.1989  0.1601
 8136W        W23753  11.015  12.004   1.509  0.3124  0.1522  0.1634
 8137W        W23754  15.150  16.280   2.329 -0.1199 -0.0925 -0.0861
 8138W        W23755  14.203   8.522  12.051 -0.2217 -0.1178 -0.1305
 8139W        W23756  15.494   5.481   3.842  0.0960 -0.0098 -0.1488
 8140W        W23757  10.260   4.397   3.958  0.2534 -0.1115 -0.0167
 8141W        W23758  12.124  15.569   2.411  0.0354 -0.0054 -0.2701
 8142W        W23759  12.442   3.030   2.300  0.0086  0.1038 -0.0332
 8143W        W23760   4.315  16.428  13.299  0.0706  0.1377 -0.1624
 8144W        W23761   3.324  11.857   3.565  0.0925  0.3351 -0.1051
 8145W        W23762   4.122   5.493   0.037  0.1391  0.0428 -0.0102
 8146W        W23763   2.922  10.390  16.395  0.0848  0.1823 -0.1035
 8147W        W23764  11.833  15.855   6.263  0.0428 -0.0084  0.1453
 8148W        W23765  17.247   9.444   5.220 -0.2721  0.2299  0.1259
 8149W        W23766   6.980   3.857   4.577  0.1598 -0.1254  0.0759
 8150W        W23767  11.109  12.004   3.082  0.2600  0.0118  0.2750
 8151W        W23768  12.791   5.463   2.568  0.0276  0.1211  0.0422
 8152W        W23769  12.273   9.601  15.820  0.0596  0.1254 -0.2012
 8153W        W23770   9.300   1.477  10.790  0.1801  0.2456 -0.2064
 8154W        W23771   1.085  13.165   2.320 -0.1534 -0.1298 -0.0644
 8155W        W23772   3.238  13.943  13.894  0.0326 -0.0210  0.4316
 8156W        W23773  11.303   7.157  14.819 -0.2736  0.0041  0.0616
 8157W        W23774  14.348   8.686  12.495  0.0370 -0.0113  0.2537
 8158W        W23775   1.990   8.459   3.929  0.1221  0.1061  0.2357
 8159W        W23776  14.113   0.846  14.836 -0.1629 -0.0365 -0.5364
 8160W        W23777  14.606   7.960  15.355  0.0123  0.2640 -0.2121
 8161W        W23778  10.309   2.407  12.289 -0.0347 -0.0207 -0.1951
 8162W        W23779  10.972   9.193  15.271 -0.0815 -0.1415 -0.2080
 8163W        W23780   2.277   0.938  11.385  0.2764  0.0096 -0.0066
 8164W        W23781  11.748   1.733  15.003 -0.0904 -0.0182  0.0320
 8165W        W23782   3.471  17.024  15.227 -0.0486 -0.1635 -0.2673
 8166W        W23783  12.003   3.460  15.827  0.1280  0.1857 -0.1752
 8167W        W23784  14.587  14.022  16.679  0.1133 -0.0094  0.5092
 8168W        W23785   3.990  13.105   5.145 -0.1250 -0.1814  0.3602
 8169W        W23786  12.528   0.464   0.021 -0.0834  0.1247 -0.0288
 8170W        W23787   0.548  14.210   4.404  0.0953  0.0173 -0.4529
 8171W        W23788   4.010  13.900  14.090  0.1515 -0.2152 -0.2086
 8172W        W23789  16.712   7.008   2.274 -0.1248 -0.3077 -0.2664
 8173W        W23790   2.325   7.909  16.453 -0.1296 -0.0133  0.1586
 8174W        W23791   9.508  16.073  16.025  0.1334  0.1878  0.0844
 8175W        W23792   6.042   7.393   0.781  0.1176 -0.0010 -0.2668
 8176W        W23793   6.345  13.686   2.072  0.2069  0.3936 -0.1644
 8177W        W23794   0.230  17.810   2.246  0.1010  0.0350  0.0234
 8178W        W23795   0.595  13.732   1.805  0.0869  0.0023 -0.1568
 8179W        W23796   6.491   8.814   1.820  0.0300 -0.0347  0.0666
 8180W        W23797   4.688   6.903  13.300 -0.1082 -0.0409 -0.1606
 8181W        W23798   0.904   4.067   4.718  0.2125 -0.1898  0.1232
 8182W        W23799  13.746   0.919  14.335  0.0743 -0.1164 -0.0072
 8183W        W23800   0.310   2.295  15.151 -0.1993  0.0813  0.1658
 8184W        W23801  10.541  11.010  15.701  0.1310  0.0408 -0.2427
 8185W        W23802   3.049  11.177   4.534 -0.2281 -0.2352 -0.5254
 8186W        W23803   9.988   8.047  14.853 -0.0002 -0.1275  0.2058
 8187W        W23804   4.703   9.528  15.451  0.0059  0.0463 -0.0281
 8188W        W23805   5.604  14.719  11.817 -0.1137 -0.0200  0.2345
 8189W        W23806   7.666   1.300  15.781 -0.1104 -0.1761  0.1317
 8190W        W23807   3.982  13.460  15.392  0.1500 -0.0022  0.1117
 8191W        W23808   9.226  17.725   1.926 -0.0717  0.1231  0.3591
 8192W        W23809  10.680   3.216  15.694 -0.1081 -0.1431  0.3779
 8193W        W23810   7.558   5.545   1.311  0.1143 -0.0144  0.3890
 8194W        W23811   3.036   3.491   1.180 -0.1422  0.1833  0.1198
 8195W        W23812   1.741   8.112  11.785 -0.1398  0.1500 -0.1235
 8196W        W23813   6.521  11.271   4.542 -0.0277 -0.1117  0.2124
 8197W        W23814  10.309  16.513   2.059 -0.3804 -0.0136  0.2150
 8198W        W23815   9.206   9.352   0.791  0.0379 -0.1504 -0.3095
 8199W        W23816   0.422  17.376   2.452 -0.3335  0.1453 -0.0701
 8200W        W23817   2.060  16.558   4.902 -0.3188 -0.1843 -0.1329
 8201W        W23818   5.691  13.921  16.667  0.0389  0.0763 -0.1037
 8202W        W23819  14.956  15.839  11.923 -0.3815 -0.0718  0.3010
 8203W        W23820   1.111   3.991  16.679 -0.0344 -0.0224  0.0689
 8204W        W23821   4.406  15.116  14.782 -0.1935  0.0463  0.3323
 8205W        W23822   6.496   2.054  13.876 -0.1430 -0.0313  0.0456
 8206W        W23823   2.202   2.747   0.026  0.0452 -0.0107 -0.0657
 8207W        W23824  10.491  13.985  15.293 -0.0852  0.0539 -0.2775
 8208W        W23825   9.679  11.893  12.573  0.0740 -0.1728  0.0607
 8209W        W23826  11.676   3.321   0.722 -0.0533 -0.3854 -0.3988
 8210W        W23827   4.725   6.332  15.551  0.0702  0.0055  0.2299
 8211W        W23828   5.162  15.438  15.463 -0.1380 -0.1094 -0.0180
 8212W        W23829  10.472  16.432  14.521  0.2756 -0.0758 -0.0964
 8213W        W23830   4.722   9.895   2.136 -0.3990  0.1716  0.0712
 8214W        W23831   8.596   2.304  15.721  0.1320  0.3032  0.2258
 8215W        W23832   7.538   0.471   3.203  0.0411  0.1408 -0.0172
 8216W        W23833  14.671   5.294   3.513 -0.1415  0.1343 -0.2122
 8217W        W23834  16.151   4.284   1.001 -0.0306 -0.2296  0.0102
 8218W        W23835   4.115  15.566   4.682 -0.1912  0.3472  0.0710
 8219W        W23836   6.360   1.238  11.681  0.0199  0.1384 -0.3657
 8220W        W23837   2.372   7.824   4.262 -0.0144 -0.1327 -0.1789
 8221W        W23838  14.552   6.975   3.442 -0.0543  0.0886  0.1792
 8222W        W23839   3.055   1.609  14.488  0.3129 -0.1231 -0.1227
 8223W        W23840  11.266   5.694   4.944 -0.1434 -0.0547 -0.2662
 8224W        W23841  13.851  14.403  12.337 -0.1608 -0.0578 -0.2066
 8225W        W23842   0.156  16.938   3.735 -0.0608  0.0453 -0.0400
 8226W        W23843   8.401   1.093   6.736 -0.1700 -0.0489 -0.0834
 8227W        W23844  13.198   3.274  13.320 -0.2376  0.0927 -0.0365
 8228W        W23845   4.235   6.746  13.039  0.1641  0.0988  0.0772
 8229W        W23846   8.213   6.175  14.901  0.0625  0.0575  0.1276
 8230W        W23847  17.035   5.654  15.558 -0.0941  0.2142 -0.0860
 8231W        W23848   5.917   8.039   2.056 -0.1570  0.2163  0.1527
 8232W        W23849  16.543   8.334   2.043  0.3866 -0.0070  0.0880
 8233W        W23850   4.317   0.047   2.582 -0.1424  0.0570  0.0005
 8234W        W23851  11.767  12.837   3.591 -0.2402 -0.2449  0.3203
 8235W        W23852  12.612   0.884   0.876 -0.0920 -0.0898 -0.2015
 8236W        W23853  17.452   3.976   6.048 -0.1744 -0.1654 -0.0172
 8237W        W23854   4.067  15.004  13.442  0.1840  0.1375 -0.2146
 8238W        W23855   3.885  15.452   5.125 -0.0787 -0.1580  0.2931
 8239W        W23856   8.352  11.288   0.592  0.0227  0.1068  0.0111
 8240W        W23857  16.725  15.958  14.801  0.1173  0.2035 -0.0716
 8241W        W23858   9.637   9.359   0.257 -0.1229 -0.0808 -0.2037
 8242W        W23859   5.094   8.433   4.227 -0.0235 -0.3480  0.0252
 8243W        W23860   0.438  17.685   4.964 -0.3103 -0.0714  0.0555
 8244W        W23861  11.541  16.291  16.410 -0.0961  0.0597 -0.0197
 8245W        W23862   8.447   0.429   3.979 -0.0538  0.4116 -0.3917
 8246W        W23863   3.376  14.415  15.530 -0.0744  0.1268 -0.2057
 8247W        W23864  12.787   3.037   1.043 -0.0726  0.0032 -0.1539
 8248W        W23865  14.055   9.794   2.348 -0.1210 -0.1141 -0.0319
 8249W        W23866   3.095  12.670   4.329 -0.1012 -0.1702 -0.3289
 8250W        W23867   5.493   4.782   3.781 -0.0208  0.2975 -0.0935
 8251W        W23868   5.073  16.258  12.181  0.2495 -0.2906  0.2320
 8252W        W23869   5.395   8.274  14.770 -0.0860  0.0037  0.0003
 8253W        W23870   2.799  13.050   1.087 -0.0224  0.0747 -0.1505
 8254W        W23871  15.874  10.720  16.074  0.1329 -0.0927 -0.2519
 8255W        W23872  10.352   0.382  15.720  0.0357 -0.2022  0.1320
 8256W        W23873   8.300  11.254   1.207  0.1125  0.3621  0.0334
 8257W        W23874   2.274  15.001  12.566 -0.1418 -0.2214 -0.2223
 8258W        W23875   7.398   2.843   0.556 -0.0302 -0.2417  0.1300
 8259W        W23876   0.432  10.448  16.471 -0.1449 -0.0353 -0.0278
 8260W        W23877  11.951   2.648  13.552 -0.2183  0.1849  0.2064
 8261W        W23878  11.733  14.133  15.001  0.0830 -0.0075 -0.0334
 8262W        W23879  13.250   1.844  15.810 -0.1155  0.0895  0.0733
 8263W        W23880   7.421  13.781   4.823 -0.0864 -0.1239 -0.3824
 8264W        W23881  13.270  13.719   5.203  0.1225  0.1634 -0.0246
 8265W        W23882  15.545   9.109   0.401  0.1898  0.0621  0.1818
 8266W        W23883   5.240  11.172   5.495 -0.1237  0.0684  0.2161
 8267W        W23884  12.693   1.092   3.240  0.1922 -0.1306  0.0961
 8268W        W23885  17.534  13.195  15.768 -0.2613 -0.0610 -0.0097
 8269W        W23886   7.021  13.362   4.795  0.0749 -0.0025 -0.1658
 8270W        W23887  10.338   0.902  12.320 -0.2993 -0.0180 -0.2383
 8271W        W23888  11.218  15.785  15.012  0.0024  0.2418 -0.0801
 8272W        W23889   9.939   3.584   4.559  0.5474  0.1873 -0.0156
 8273W        W23890   4.525   0.984  15.686  0.1524  0.0974 -0.2358
 8274W        W23891  13.012  15.976   4.791  0.0363  0.2715  0.4296
 8275W        W23892  17.249   3.460   1.235  0.2782  0.0977 -0.1476
 8276W        W23893   6.093   3.535   1.373  0.1963  0.3561  0.1508
 8277W        W23894   3.757   7.560   1.457  0.2751  0.4096 -0.1334
 8278W        W23895  15.154  10.755  12.939  0.3549  0.1042 -0.0569
 8279W        W23896   5.711   6.909   1.734 -0.1354 -0.0980 -0.2688
 8280W        W23897   2.618   7.625   1.038 -0.1648 -0.1080  0.3115
 8281W        W23898   3.406  11.462   0.391  0.2888  0.0352 -0.1737
 8282W        W23899  16.849  14.007  14.009  0.1364  0.1178 -0.1779
 8283W        W23900  16.749   0.287  11.591 -0.3437  0.0225 -0.0333
 8284W        W23901   9.536   1.903  14.942  0.0597 -0.2755 -0.1448
 8285W        W23902   9.618   9.070   4.351 -0.1062  0.2144  0.0853
 8286W        W23903   5.371   7.022   4.280  0.0822  0.0244 -0.0887
 8287W        W23904  10.481   0.062   0.530  0.2193  0.3439 -0.3906
 8288W        W23905  10.932   9.542  13.912 -0.1578  0.1030 -0.0877
 8289W        W23906   3.169   7.927   5.761 -0.2716  0.0703 -0.2693
 8290W        W23907  15.803  14.868   4.540 -0.0048 -0.0018 -0.1137
 8291W        W23908   8.259   1.153   5.736 -0.0191 -0.2234 -0.1348
 8292W        W23909   4.008   4.971   1.990  0.1360  0.1359  0.2300
 8293W        W23910   1.176   7.550  13.264 -0.2439 -0.0194  0.1159
 8294W        W23911  13.238  16.034  12.979 -0.1836 -0.2529 -0.1061
 8295W        W23912  15.331   9.507   2.759 -0.1930 -0.1771 -0.1053
 8296W        W23913  12.553  16.757  14.730  0.0523 -0.2181  0.2232
 8297W        W23914   2.832   4.895   3.839 -0.1272 -0.0400  0.0959
 8298W        W23915  12.580  13.766  11.440 -0.0265  0.0281  0.0347
 8299W        W23916   4.858  16.714  14.705  0.2402  0.0620 -0.2095
 8300W        W23917   4.028   7.655  13.201 -0.1453  0.2345 -0.0625
 8301W        W23918  12.548  16.524  12.406 -0.2287  0.2562 -0.0180
 8302W        W23919   3.179   7.690  14.586 -0.0852  0.1483 -0.2192
 8303W        W23920   0.614   7.556   5.014 -0.2813 -0.0338 -0.0715
 8304W        W23921   5.217  15.923  11.789  0.1943  0.0812  0.0434
 8305W        W23922   8.613   6.325   3.457 -0.2025 -0.2189  0.0634
 8306W        W23923  16.128   2.321  14.385  0.1721  0.0687 -0.0413
 8307W        W23924   7.836   2.201  11.561 -0.0628 -0.0014 -0.0327
 8308W        W23925   6.079  12.550  16.427  0.0616 -0.1963  0.1558
 8309W        W23926  11.477   3.424   3.985 -0.0616  0.1275  0.2030
 8310W        W23927   0.168  17.268   5.126 -0.0849  0.1238 -0.1076
 8311W        W23928  16.455   3.979  12.163 -0.1687 -0.0622  0.1046
 8312W        W23929   2.650   6.323   3.891  0.5373 -0.4476 -0.0116
 8313W        W23930   4.848   6.841   4.061 -0.1679 -0.0742 -0.0408
 8314W        W23931   6.220  15.350  15.042 -0.0370  0.0041 -0.1634
 8315W        W23932   2.150   1.117  15.965 -0.0790  0.3637  0.0953
 8316W        W23933  11.240   0.045   3.849  0.0728  0.4473  0.3359
 8317W        W23934  11.752  14.464   4.696 -0.0334 -0.1412 -0.2976
 8318W        W23935  12.847   0.846   4.183 -0.0407 -0.4786  0.0908
 8319W        W23936   5.419   3.006   3.733 -0.0210 -0.1363  0.2831
 8320W        W23937   6.552   4.954  13.928  0.2270  0.0012 -0.2314
 8321W        W23938   5.311  10.668  13.167 -0.0584 -0.1194 -0.2134
 8322W        W23939  13.205  13.358  12.126  0.0365 -0.0151 -0.0150
 8323W        W23940  16.969   6.177   4.628 -0.0610 -0.2935 -0.1744
 8324W        W23941   5.562  12.808  12.718  0.3047 -0.2987 -0.1747
 8325W        W23942   3.562   0.560   4.614  0.3202 -0.1128  0.3083
 8326W        W23943  12.428  11.928  11.601 -0.0702 -0.1938 -0.2394
 8327W        W23944  17.728   8.711  16.753  0.3660 -0.0598 -0.0800
 8328W        W23945  16.998   6.985   0.693  0.0064 -0.2053 -0.1316
 8329W        W23946   7.930   5.802  14.737 -0.1548  0.1620  0.1675
 8330W        W23947  15.365  11.462  15.616  0.0702  0.0908  0.4805
 8331W        W23948   3.032  16.244  14.299  0.2302  0.2756  0.1041
 8332W        W23949   3.917  15.683   0.808  0.0825  0.4178  0.3632
 8333W        W23950  11.141   1.116   2.191 -0.0659  0.0346  0.0214
 8334W        W23951  11.674   3.068   3.208 -0.2111 -0.2102  0.0785
 8335W        W23952   1.976   3.450   2.097  0.1724 -0.3720 -0.0043
 8336W        W23953   8.822  14.090   4.657 -0.2587 -0.3496 -0.0699
 8337W        W23954   7.817   1.369   5.645  0.0390 -0.0684 -0.1532
 8338W        W23955  12.947   5.950   5.865 -0.3679 -0.0596 -0.1213
 8339W        W23956  17.683  11.272   3.020  0.0194 -0.1416  0.1824
 8340W        W23957  12.306   6.485   0.722  0.1607 -0.1376  0.2019
 8341W        W23958   7.624  17.806   2.786  0.0204  0.3161 -0.0370
 8342W        W23959   9.277  11.512  12.672  0.0660  0.3447 -0.4926
 8343W        W23960  10.156   0.396   2.675 -0.2666  0.1784  0.0105
 8344W        W23961   2.565   0.454  13.174  0.0776 -0.1192  0.0570
 8345W        W23962  12.906   0.245  15.115  0.1579 -0.4923 -0.5069
 8346W        W23963  17.820  14.916   4.190 -0.1017  0.1929 -0.0870
 8347W        W23964   8.059   4.563   1.010  0.0981 -0.1073  0.4547
 8348W        W23965   0.013  11.525   4.153  0.2514  0.0316  0.0373
 8349W        W23966  15.650  10.247  16.033 -0.0235  0.1269  0.0133
 8350W        W23967  15.031   5.477  12.697  0.2682  0.0703 -0.1543
 8351W        W23968   8.340  16.000  12.413 -0.0525 -0.1041  0.1269
 8352W        W23969   7.522   8.523  14.586 -0.1723 -0.2383  0.1901
 8353W        W23970   2.444   0.761   2.220 -0.0125  0.1635 -0.0849
 8354W        W23971   6.944   7.503  11.783 -0.1807 -0.0501 -0.0993
 8355W        W23972   0.917   5.023   1.652  0.6203  0.1401  0.1489
 8356W        W23973  13.312   7.585   4.066 -0.2068  0.0605  0.0724
 8357W        W23974   4.498   9.978  15.255 -0.1125  0.2136  0.1309
 8358W        W23975   3.206  11.958   0.125 -0.2545 -0.1071  0.0294
 8359W        W23976   7.283   7.098  13.028 -0.0047  0.1370  0.2021
 8360W        W23977  14.703  13.850   3.636 -0.1591 -0.1880 -0.0907
 8361W        W23978   6.119  17.467  14.446 -0.3254  0.1625 -0.1241
 8362W        W23979  11.386  13.172   2.336  0.0636  0.0237 -0.0251
 8363W        W23980   6.077  16.064   4.683 -0.1413  0.1764  0.0416
 8364W        W23981   5.394  16.920   5.907  0.0936  0.1902 -0.0457
 8365W        W23982   7.651   0.116  14.489 -0.0046  0.3173  0.1865
 8366W        W23983  13.785   7.053  12.086  0.4111 -0.2391 -0.1599
 8367W        W23984   5.900  16.604   3.043 -0.2765 -0.2503  0.0096
 8368W        W23985   3.370  15.272  15.792  0.3239  0.0684 -0.0164
 8369W        W23986   7.530   4.804  13.230  0.3812  0.1264 -0.3724
 8370W        W23987  10.975   5.524   2.582  0.0948 -0.1182  0.1657
 8371W        W23988  12.610   2.979  15.418  0.0424  0.0621 -0.2147
 8372W        W23989   4.360   0.996   0.055 -0.2645 -0.1237  0.0570
 8373W        W23990   0.631   1.177  12.361 -0.0529 -0.0671  0.1044
 8374W        W23991  15.347   0.989  16.552 -0.0020  0.1786  0.0498
 8375W        W23992  17.259  14.985   1.924  0.2383 -0.1941  0.0967
 8376W        W23993  14.949  13.084  11.193 -0.0299  0.1136 -0.0035
 8377W        W23994   2.244   3.861  13.852  0.2477  0.2172  0.0171
 8378W        W23995  12.475  13.338   5.089 -0.2055  0.0318  0.1318
 8379W        W23996   9.003  14.450   2.069 -0.0219  0.3357  0.3128
 8380W        W23997  12.092  14.793  15.369 -0.2025  0.3793 -0.1539
 8381W        W23998  10.791  16.959   3.918 -0.0615  0.0798  0.0444
 8382W        W23999  12.153  12.118   2.581  0.2003 -0.0888 -0.0698
 8383W        W24000   3.255  16.858  12.519 -0.1200 -0.2008  0.1893
 8384W        W24001   1.691  14.353   6.013  0.0127 -0.3655  0.1220
 8385W        W24002   7.511   9.874   0.062  0.1549 -0.1611  0.1483
 8386W        W24003  13.055  11.769   2.589  0.2097  0.1346 -0.1006
 8387W        W24004   8.935   8.735   1.422 -0.1861  0.3778 -0.0813
 8388W        W24005   2.042  11.542  11.703  0.1458  0.1524  0.0099
 8389W        W24006  14.140   0.663   2.798 -0.0529 -0.0884 -0.2377
 8390W        W24007  12.716   6.624   0.463 -0.2599  0.1095 -0.4099
 8391W        W24008  14.327   7.242  14.235 -0.1130 -0.0731 -0.3610
 8392W        W24009  11.197   8.632  16.750  0.0478 -0.4777  0.0294
 8393W        W24010  11.119   0.193  16.658  0.1230  0.0255 -0.1302
 8394W        W24011   8.682   4.723   5.279  0.1467  0.0214  0.0355
 8395W        W24012   4.971   1.359   3.507 -0.2425  0.0506  0.0765
 8396W        W24013   3.220   9.942   0.863 -0.1747  0.0332 -0.3657
 8397W        W24014  11.142  15.739   1.634  0.0916 -0.0467 -0.1111
 8398W        W24015   1.451   7.453  15.152  0.0884 -0.1678  0.0994
 8399W        W24016  14.614  11.844   1.083 -0.2617  0.0638 -0.3653
 8400W        W24017   3.705   9.593   5.031 -0.0650  0.1546  0.0408
 8401W        W24018  12.244   9.432   5.205 -0.1385  0.1011  0.2781
 8402W        W24019   3.897   9.307   6.609  0.0442  0.0936 -0.0193
 8403W        W24020   4.044   9.130  13.153  0.2969  0.2275 -0.0463
 8404W        W24021  10.791   8.812   0.415 -0.0370  0.0233  0.0559
 8405W        W24022   2.928  11.671   0.397 -0.0247  0.0986  0.0686
 8406W        W24023  12.403   8.798  10.759 -0.0499  0.3325  0.0589
 8407W        W24024  17.820   3.246   5.001  0.0157  0.2349 -0.1838
 8408W        W24025   8.399   2.757   3.055 -0.1839 -0.3373 -0.0617
 8409W        W24026  10.595   9.601  14.231 -0.0223  0.1559 -0.0478
 8410W        W24027   4.423  12.780   3.296  0.1258 -0.1247 -0.2129
 8411W        W24028  12.853   6.477  15.217 -0.2498  0.0036 -0.0220
 8412W        W24029   2.723   2.784   4.856  0.0335 -0.0879 -0.4464
 8413W        W24030   9.600   1.846  12.826  0.1009 -0.0070  0.1329
 8414W        W24031  10.165  10.749  13.021 -0.1360  0.1911 -0.0922
 8415W        W24032   4.307  13.047  14.332 -0.1902 -0.3095  0.4756
 8416W        W24033   2.853   9.264   4.180  0.2239  0.3041  0.3377
 8417W        W24034   1.033   4.980   5.023  0.1900  0.2822 -0.0292
 8418W        W24035  15.501  12.011  16.112  0.1352 -0.2844  0.0617
 8419W        W24036  12.633  10.263  16.278 -0.0304  0.0241 -0.0261
 8420W        W24037   6.469   2.492  12.144  0.1471 -0.0819  0.3886
 8421W        W24038  17.038   2.664   0.617  0.0408 -0.2392 -0.3824
 8422W        W24039  14.524   4.896  11.884 -0.1162  0.0153  0.2934
 8423W        W24040  12.878   3.440   0.188  0.2110  0.0886  0.4493
 8424W        W24041   2.763  17.509  13.707  0.3173 -0.1015 -0.0596
 8425W        W24042   8.451  13.548   5.951 -0.2290  0.0692 -0.1226
 8426W        W24043   6.607   4.858  16.692  0.2220 -0.0817  0.1669
 8427W        W24044   4.392  13.828   0.939  0.2719 -0.0609  0.1381
 8428W        W24045   1.736   2.403  14.066 -0.0100 -0.0913  0.0324
 8429W        W24046  15.960   9.896   5.745  0.3247 -0.2390  0.1868
 8430W        W24047  12.948  15.802  12.567 -0.1300 -0.0516 -0.0973
 8431W        W24048   7.303  17.053   1.471  0.1284  0.0189 -0.1612
 8432W        W24049  10.075  13.002  13.589  0.2665  0.0727  0.2613
 8433W        W24050   0.796  11.707   2.703  0.1946 -0.1460 -0.2647
 8434W        W24051  16.045  11.613  11.590 -0.0289 -0.2470  0.1876
 8435W        W24052  17.141  12.414   2.610  0.1954  0.0301 -0.1041
 8436W        W24053   4.475   5.462  14.715 -0.1264  0.1456  0.0428
 8437W        W24054  14.811  15.982   4.227  0.0252 -0.0933  0.0476
 8438W        W24055   7.414  12.564   0.803  0.1569  0.2380 -0.1404
 8439W        W24056  10.819  11.135  13.614  0.3547 -0.2241 -0.0650
 8440W        W24057  11.911   4.006  13.299 -0.3348 -0.1826 -0.1128
 8441W        W24058  13.571  17.467  11.855 -0.1125 -0.0966 -0.0099
 8442W        W24059   3.177  17.829   1.389  0.0691  0.0055 -0.0545
 8443W        W24060   5.992   4.734  14.589  0.3360  0.1075 -0.0624
 8444W        W24061   6.380  12.120   1.395  0.1762 -0.2662  0.1843
 8445W        W24062   2.667   8.423  12.948  0.1120  0.0864  0.1433
 8446W        W24063  16.642   4.796   3.479  0.0486 -0.0798  0.5117
 8447W        W24064  13.080  12.359  10.814  0.0611 -0.0483  0.1000
 8448W        W24065   7.316   8.836   2.322  0.1021  0.3275  0.3520
 8449W        W24066   5.557   8.176   3.515  0.0162 -0.0875 -0.0525
 8450W        W24067   2.921  11.330  13.846  0.3094 -0.0776 -0.1809
 8451W        W24068  16.594  10.265   6.053  0.0542 -0.0324 -0.0140
 8452W        W24069   0.883  14.528  16.813 -0.2770  0.0054 -0.1942
 8453W        W24070   8.896   4.594   1.397 -0.1183  0.1858  0.2027
 8454W        W24071  13.042  14.835  15.762  0.0929  0.1082 -0.2662
 8455W        W24072   6.190  14.776  11.179 -0.2120  0.1734  0.1802
 8456W        W24073   5.897   1.150  13.865 -0.0340 -0.0034 -0.0379
 8457W        W24074   9.289   0.794  15.584  0.4486 -0.2322  0.0281
 8458W        W24075  16.893   1.209  12.349  0.2120 -0.1832 -0.0600
 8459W        W24076   2.537   0.470   5.271  0.0951  0.0073 -0.0671
 8460W        W24077  12.954  15.009   4.890 -0.0508 -0.0416 -0.0940
 8461W        W24078  11.195   7.591  12.652  0.1048  0.0821  0.0213
 8462W        W24079  17.041  12.251  12.658  0.0738  0.0164 -0.0427
 8463W        W24080  10.938   5.592   1.635 -0.1238  0.1163 -0.1345
 8464W        W24081   1.243   8.159  14.671  0.1605  0.1643  0.1073
 8465W        W24082  16.059   2.677   2.320  0.2255 -0.0494 -0.3852
 8466W        W24083  14.422   9.966  15.954 -0.1511 -0.4224  0.0236
 8467W        W24084   6.923  10.156   2.844 -0.0897  0.0602  0.1684
 8468W        W24085   0.733  16.755  16.443  0.0026  0.0438  0.4077
 8469W        W24086   1.450  11.999   3.946 -0.1015 -0.1569  0.1145
 8470W        W24087  15.017   1.264   1.564 -0.3757 -0.0510 -0.1688
 8471W        W24088  15.857  13.418   5.053 -0.2962  0.1023 -0.0215
 8472W        W24089   8.591   3.802  13.271  0.0346  0.0016 -0.0087
 8473W        W24090   8.298  13.660  12.810  0.0347  0.3837  0.0154
 8474W        W24091   5.882  12.142  14.007 -0.1029 -0.4145 -0.1059
 8475W        W24092  12.004   9.099   1.367 -0.1990  0.1486  0.0236
 8476W        W24093   4.026  13.561  13.659 -0.2229 -0.2187 -0.2042
 8477W        W24094   3.786   4.555  16.063  0.0681 -0.0067 -0.1365
 8478W        W24095  10.540   5.705  16.140  0.3080 -0.2208  0.3164
 8479W        W24096   7.500  11.731  15.262  0.1944  0.1462 -0.0082
 8480W        W24097  17.076  13.553   1.452 -0.0095  0.0756  0.0900
 8481W        W24098   4.322   1.093  12.965  0.1408  0.2297 -0.2751
 8482W        W24099   0.507  14.564  16.143 -0.1572  0.3667 -0.0663
 8483W        W24100  13.220  15.460   3.958  0.1765  0.2173 -0.1733
 8484W        W24101   6.570   6.996  13.153 -0.1344 -0.1129 -0.0329
 8485W        W24102   6.828   5.630   2.927  0.0919  0.1663  0.1032
 8486W        W24103  11.536  10.347   0.475 -0.0545  0.0881  0.0634
 8487W        W24104  14.722   3.620   4.291 -0.3540 -0.0726  0.0825
 8488W        W24105  14.372   9.772   5.582  0.1211 -0.0081 -0.1653
 8489W        W24106   2.507  12.275  11.840  0.0574 -0.1201  0.2014
 8490W        W24107   9.547  15.911   1.096 -0.0431  0.0132  0.2626
 8491W        W24108   3.749  16.111   1.683  0.1473  0.0420 -0.2418
 8492W        W24109   4.160   5.776  15.023  0.0644 -0.2122 -0.1342
 8493W        W24110  13.066   6.044  15.446 -0.0021  0.1177 -0.1628
 8494W        W24111   7.768   6.982   5.155 -0.1903  0.0088  0.1268
 8495W        W24112  10.115   8.678   4.952 -0.2054  0.2525  0.0289
 8496W        W24113  12.929   4.328  16.687  0.0237  0.1121  0.1447
 8497W        W24114   5.200  10.542   2.976  0.0055 -0.1996 -0.1678
 8498W        W24115   9.929   1.320   4.949  0.3782 -0.1849 -0.1670
 8499W        W24116  17.027   3.902   1.101  0.0949  0.1671  0.0093
 8500W        W24117   5.282  15.171  16.571  0.0768  0.0701  0.1285
 8501W        W24118   4.142  17.533   5.478  0.2074  0.0629  0.3394
 8502W        W24119   2.475   9.226   0.095  0.0955 -0.2831  0.2903
 8503W        W24120   3.736  11.765   4.629  0.0286 -0.0430 -0.1127
 8504W        W24121  10.855  16.566   4.244  0.0791  0.0372  0.1428
 8505W        W24122   5.825   5.862  11.304  0.1168 -0.0453 -0.1199
 8506W        W24123  15.158  14.404   2.455 -0.1169  0.0193  0.1436
 8507W        W24124  16.363   8.646  14.290 -0.3519 -0.0201 -0.1272
 8508W        W24125   6.999  15.524  12.668 -0.2267  0.2879  0.0588
 8509W        W24126  15.203   8.397   3.321  0.0510  0.1458 -0.1020
 8510W        W24127   0.412   2.690   2.762  0.1769 -0.0743 -0.0033
 8511W        W24128   6.851   3.888  15.615  0.3279  0.0407  0.0890
 8512W        W24129   1.401   0.401   4.900 -0.2053  0.0419  0.2322
 8513W        W24130   5.765   4.769  13.641 -0.1926 -0.4038  0.0521
 8514W        W24131   8.021   2.955  15.141  0.3960  0.0055  0.2475
 8515W        W24132  11.132   1.822   3.448 -0.1122 -0.0264  0.0096
 8516W        W24133   6.232  13.049   1.235  0.2337  0.1074 -0.0889
 8517W        W24134  15.109   2.332  12.394 -0.1416 -0.0242 -0.1622
 8518W        W24135   0.227  10.935   2.807  0.0844  0.1175 -0.3226
 8519W        W24136  12.775   9.033  13.319 -0.0790 -0.2201  0.1421
 8520W        W24137   5.805   0.507   0.099 -0.1491 -0.2364  0.0314
 8521W        W24138  10.420  14.159   4.616  0.0831  0.0074 -0.1721
 8522W        W24139   2.025  11.162  14.117 -0.1650  0.2897  0.0578
 8523W        W24140   0.422   0.006   4.000 -0.0645 -0.1389  0.1481
 8524W        W24141   0.711  10.266  11.859 -0.0004  0.0981  0.1744
 8525W        W24142   2.800  15.743  12.213  0.2758  0.1261  0.2184
 8526W        W24143   2.961   7.753   1.516 -0.1352  0.0293 -0.0743
 8527W        W24144   1.842  17.415  14.681 -0.0947 -0.3181  0.0131
 8528W        W24145  15.830   5.231   5.750  0.0909  0.0640 -0.0315
 8529W        W24146  17.438   2.968  16.411  0.1429 -0.2549  0.0276
 8530W        W24147  11.097   7.033   2.951  0.2281 -0.3068  0.0473
 8531W        W24148  10.708  16.883   4.608  0.2607 -0.1872 -0.0240
 8532W        W24149   1.876   0.850  12.431 -0.0881  0.2062  0.1188
 8533W        W24150   6.618   7.877  14.118 -0.4984 -0.1524  0.0105
 8534W        W24151   7.786   5.311   5.306 -0.1697 -0.0333  0.1191
 8535W        W24152   3.220  13.089  10.898  0.0188  0.1699 -0.1994
 8536W        W24153   0.755  11.364   0.791  0.0463  0.0269  0.0058
 8537W        W24154   2.829  16.512  13.575  0.1687  0.0529 -0.0382
 8538W        W24155  10.348   6.783   5.920 -0.0591 -0.1192 -0.0460
 8539W        W24156   3.973   2.599  12.609 -0.2556 -0.2611  0.0992
 8540W        W24157  13.914  16.933  13.683  0.0164 -0.1098 -0.2378
 8541W        W24158   2.718   2.812   1.648 -0.1042  0.5026  0.0515
 8542W        W24159  14.957  13.161   2.166  0.0130 -0.1837  0.0537
 8543W        W24160   6.764   2.300   3.091 -0.0320 -0.1797 -0.0535
 8544W        W24161   2.616  11.314   4.379 -0.3023  0.2007 -0.1678
 8545W        W24162  11.235  10.003   1.689 -0.1235 -0.1905  0.2753
 8546W        W24163   2.671   4.132  15.053  0.2656 -0.0095 -0.0291
 8547W        W24164  13.979  10.335  13.955  0.0596 -0.0676 -0.0030
 8548W        W24165   8.964  12.342   3.002 -0.1743 -0.2500 -0.0929
 8549W        W24166  10.943   8.897  12.695 -0.0359  0.1979 -0.0483
 8550W        W24167  16.689  14.147  16.679 -0.1120  0.2336 -0.2110
 8551W        W24168   8.185   6.700   1.992  0.1018  0.1215  0.0828
 8552W        W24169   4.534   1.359  12.062 -0.0331  0.1265 -0.0528
 8553W        W24170   9.506   4.013  16.301 -0.3937 -0.1182  0.0401
 8554W        W24171   2.777  10.820   3.281  0.2946  0.1004  0.1809
 8555W        W24172   2.299   6.757   2.868  0.1719 -0.1014  0.1970
 8556W        W24173   2.999  15.684  15.165  0.2128 -0.3955  0.1332
 8557W        W24174  13.611  12.856  11.230  0.0516 -0.0054  0.0268
 8558W        W24175   2.351   4.964  14.691 -0.2663 -0.2061  0.2155
 8559W        W24176   5.389  10.070  10.715  0.1264 -0.1361  0.0068
 8560W        W24177   2.328   2.248  12.970  0.0781 -0.2109  0.1907
 8561W        W24178  13.586  17.193   3.815  0.1668 -0.3177  0.0366
 8562W        W24179   8.462   9.007  14.322  0.3182  0.2505  0.1023
 8563W        W24180   2.305   1.117   5.129  0.0484  0.1519 -0.0957
 8564W        W24181  11.293   4.616   0.883  0.0809 -0.1466  0.2781
 8565W        W24182   4.430   5.904   0.886  0.3322 -0.1149 -0.2795
 8566W        W24183   2.799  17.046   2.346  0.2102 -0.0338 -0.0309
 8567W        W24184  17.705   7.223  15.333 -0.0428  0.3535  0.2159
 8568W        W24185   4.085  14.611  16.166  0.1698  0.2832 -0.3157
 8569W        W24186  14.723  16.007   3.182  0.0233  0.3206  0.0242
 8570W        W24187   3.428   0.081  11.825  0.3600 -0.1430  0.1286
 8571W        W24188   0.496  12.480   6.322  0.0038 -0.3384 -0.0343
 8572W        W24189   4.465   2.512   4.030  0.0515  0.1123  0.0281
 8573W        W24190   5.314   4.178  16.721 -0.1123 -0.0652  0.3147
 8574W        W24191  13.968  14.138  11.487  0.0811  0.2072 -0.2334
 8575W        W24192   7.940   8.691  15.909 -0.1258  0.0551  0.3612
 8576W        W24193  11.099  10.340   1.317 -0.0839  0.0098  0.2967
 8577W        W24194   7.579  13.941   0.809  0.2453  0.1259  0.0700
 8578W        W24195  14.863   6.845   1.538  0.2239 -0.1471  0.1461
 8579W        W24196  13.277  14.931  10.109 -0.2660 -0.1284 -0.0459
 8580W        W24197  15.132  11.032   1.590 -0.0569  0.0021  0.0670
 8581W        W24198   7.167  17.030   4.394 -0.0129  0.0999  0.1719
 8582W        W24199   4.908   5.893  16.370  0.0380 -0.0334 -0.1134
 8583W        W24200   6.020  14.232   2.304 -0.2659  0.0939  0.2250
 8584W        W24201   6.462  13.218   3.092  0.0432 -0.0452  0.0435
 8585W        W24202   6.030   1.282  13.323  0.0145  0.4335  0.4954
 8586W        W24203  17.316  16.828   5.684  0.1457 -0.0295 -0.1661
 8587W        W24204  17.549   8.635  16.267 -0.1916 -0.2033  0.0690
 8588W        W24205  15.779   0.014  13.235  0.1543  0.3632 -0.1877
 8589W        W24206   1.307   7.989  12.003  0.0232  0.0983 -0.1692
 8590W        W24207  13.354   6.592   3.196 -0.2019  0.0896  0.1127
 8591W        W24208  13.994   8.498  14.668 -0.2376 -0.1489  0.0545
 8592W        W24209  11.699  14.410  16.475 -0.0669 -0.3427 -0.1878
 8593W        W24210  12.726  16.512  15.169  0.0079  0.0747  0.2402
 8594W        W24211  10.571   1.962   4.785  0.0798 -0.4218  0.1694
 8595W        W24212   8.157  16.679  15.047  0.0919  0.2553 -0.1411
 8596W        W24213   0.788  13.979   3.459  0.3270  0.0472 -0.3517
 8597W        W24214   3.309  15.492   1.635 -0.2335 -0.0807 -0.0615
 8598W        W24215  14.383   9.637   4.542  0.2148  0.1768 -0.0780
 8599W        W24216   8.856   4.618   4.788  0.1594 -0.1033 -0.0164
 8600W        W24217  17.795   6.082  12.943 -0.1846 -0.1235  0.0917
 8601W        W24218   8.733   5.352   5.289  0.0951  0.2573  0.4195
 8602W        W24219  13.469   6.071  13.818  0.2065  0.0903  0.2466
 8603W        W24220  17.078   2.992   1.410  0.0963  0.3994  0.1808
 8604W        W24221  13.768   8.834   4.528  0.1244 -0.0172  0.2996
 8605W        W24222   1.126   4.436   4.393 -0.0718  0.1486  0.1079
 8606W        W24223  14.859   4.793   5.594 -0.4221 -0.2386  0.0310
 8607W        W24224  13.882  17.012  15.898 -0.2815 -0.1307 -0.2175
 8608W        W24225   2.448  15.653   4.943 -0.1686  0.2412  0.2757
 8609W        W24226  14.620   9.442   0.675 -0.1547 -0.2002 -0.1483
 8610W        W24227  15.335   3.962   5.171 -0.0190 -0.0848 -0.2425
 8611W        W24228   0.128   0.360  13.947  0.1999  0.2285  0.3889
 8612W        W24229   0.880  15.891  13.561 -0.1618 -0.3931  0.1086
 8613W        W24230   1.361  13.590   0.109 -0.1023  0.1552 -0.0850
 8614W        W24231   3.734  13.338  13.114  0.0168  0.2341 -0.3913
 8615W        W24232  17.763   7.397   4.710 -0.0108 -0.1418  0.1164
 8616W        W24233   9.825  12.833   1.093 -0.1827  0.3010  0.2587
 8617W        W24234  12.513  16.696   5.597  0.3832  0.1313 -0.1158
 8618W        W24235  10.127   6.626  15.294  0.1707  0.1937 -0.0401
 8619W        W24236  14.363   6.014   6.576  0.2426 -0.2910  0.4263
 8620W        W24237   8.630  17.047   5.359 -0.0054 -0.2070 -0.2442
 8621W        W24238  14.457   8.155   1.644 -0.0499 -0.2764 -0.0715
 8622W        W24239  17.027  13.827   4.845 -0.0201  0.1119 -0.2752
 8623W        W24240   7.660   3.021   0.123 -0.0564  0.0143  0.0865
 8624W        W24241   4.685  11.378   2.256 -0.2312  0.1953 -0.0179
 8625W        W24242   1.948   4.274   3.240 -0.0050 -0.1793 -0.0470
 8626W        W24243   3.236   9.634  15.452  0.0493 -0.0740 -0.0870
 8627W        W24244  13.911  14.418  12.842 -0.0249  0.0336 -0.1038
 8628W        W24245   0.928   4.369   1.505 -0.0916  0.1738  0.2428
 8629W        W24246  11.856   6.388  15.037  0.1183 -0.3749 -0.0249
 8630W        W24247  16.252  17.818  13.048 -0.2524 -0.1598  0.0163
 8631W        W24248   1.699  13.103  14.553 -0.0979 -0.0663  0.1417
 8632W        W24249   9.040  15.215   4.460 -0.1596 -0.2703  0.0870
 8633W        W24250  12.144   3.513  13.163 -0.2887 -0.2318 -0.0966
 8634W        W24251  14.282  14.842  13.190  0.2323  0.0211  0.0509
 8635W        W24252   5.689   1.087   4.790  0.2798 -0.0823 -0.1194
 8636W        W24253  14.953   0.167   3.419  0.1705 -0.0240 -0.0751
 8637W        W24254  16.542  16.666  14.743  0.2000  0.1150 -0.3516
 8638W        W24255   2.449  17.243  15.623 -0.1712 -0.2191 -0.0532
 8639W        W24256   6.526   7.472   3.651  0.0557 -0.1664  0.1023
 8640W        W24257   2.994   6.570  13.127  0.0465  0.0285  0.1874
 8641W        W24258  15.230   1.381  13.504 -0.0440  0.0209  0.1363
 8642W        W24259  11.025  13.777  16.274  0.1903  0.3097  0.0038
 8643W        W24260  15.025  13.925  12.409  0.0391 -0.3749 -0.3498
 8644W        W24261  17.496   1.027   0.138  0.1240 -0.1192 -0.2219
 8645W        W24262  10.170  14.936   2.016  0.0461  0.0270 -0.0915
 8646W        W24263  12.789   0.823   4.874 -0.1648 -0.0736 -0.1333
 8647W        W24264  16.209   9.946   3.878  0.3114 -0.1815 -0.1418
 8648W        W24265   3.583   7.549  16.197  0.2101  0.2694 -0.1653
 8649W        W24266  12.615  10.111   2.937  0.0514  0.1302  0.1875
 8650W        W24267  16.006   3.582   1.775  0.1665 -0.1542  0.0457
 8651W        W24268   2.929  17.504   5.255 -0.0111  0.1632  0.0398
 8652W        W24269  16.873  14.573  15.418 -0.2058 -0.3806 -0.0265
 8653W        W24270  13.156  12.883  14.606  0.3096  0.3494 -0.1624
 8654W        W24271   7.650  13.594  11.636  0.0007  0.0800 -0.0642
 8655W        W24272   3.580  12.622   5.182 -0.1027 -0.1026 -0.0135
 8656W        W24273   2.489  13.992  12.567  0.2514  0.0812  0.0654
 8657W        W24274  12.037  14.372  12.350 -0.3264  0.0096 -0.0867
 8658W        W24275   8.668   9.453   4.864  0.1812  0.0177  0.1419
 8659W        W24276   6.745   8.589  16.381  0.0848  0.0510 -0.2141
 8660W        W24277  15.126  15.193  15.844  0.1428  0.0590 -0.1767
 8661W        W24278   2.698   4.569   0.272 -0.2345 -0.1526 -0.0256
 8662W        W24279   3.559   7.437  13.152  0.0698  0.2460 -0.0797
 8663W        W24280   4.667  11.390  14.302  0.0367  0.1300  0.0596
 8664W        W24281   5.768   6.249   3.617 -0.3346 -0.0535  0.1011
 8665W        W24282   3.392  17.571  11.505  0.1437  0.1364 -0.0206
 8666W        W24283   9.623   3.340   2.508 -0.0220  0.0006  0.1763
 8667W        W24284  10.216  16.029   5.556 -0.0431  0.1431  0.0367
 8668W        W24285   5.441   3.507   5.155 -0.0685 -0.1037 -0.1856
 8669W        W24286  11.875   7.149   3.291 -0.1979  0.1179 -0.0006
 8670W        W24287   3.937  15.003   3.923  0.0497 -0.1029 -0.1950
 8671W        W24288  13.531   4.174   6.113  0.2278  0.1146  0.1954
 8672W        W24289  15.535   5.722   1.882  0.3996 -0.0210 -0.0575
 8673W        W24290  16.021  15.805  15.245 -0.1073 -0.0082 -0.2697
 8674W        W24291   0.138   1.038   0.436 -0.2112 -0.0715  0.0754
 8675W        W24292   7.750   5.798   5.135 -0.0961  0.0785  0.2744
 8676W        W24293   0.351   3.881   0.230  0.3264  0.0669 -0.1607
 8677W        W24294  14.304  17.265   1.781 -0.1924  0.1896  0.0670
 8678W        W24295   7.643   8.829  14.970 -0.0834 -0.1132  0.1396
 8679W        W24296  17.726   7.219  16.579  0.1539 -0.0321  0.1259
 8680W        W24297   4.340   4.825  15.426  0.0613 -0.1457 -0.2121
 8681W        W24298   2.423   1.119   4.173 -0.1556  0.1733 -0.1660
 8682W        W24299   0.624  11.727  15.474 -0.1910 -0.1834  0.2459
 8683W        W24300  15.645  13.825   2.728 -0.0877  0.0847  0.1581
 8684W        W24301   5.624   5.659   3.898  0.0629 -0.3142 -0.2005
 8685W        W24302   7.432   5.184  15.693  0.2339  0.1937 -0.1284
 8686W        W24303   0.016  13.709   2.030  0.2280  0.0605 -0.0882
 8687W        W24304  13.267  17.507   2.936  0.3331 -0.0119  0.0280
 8688W        W24305   2.076  15.434  11.504  0.0982 -0.2026  0.2196
 8689W        W24306   3.281  13.210  12.392  0.0758 -0.1361 -0.0932
 8690W        W24307  14.944   8.657  13.581 -0.1918 -0.1619 -0.2986
 8691W        W24308  14.984   1.719   2.570 -0.2510  0.2910 -0.0766
 8692W        W24309   9.979  15.970  12.256 -0.2548  0.0015  0.1042
 8693W        W24310   9.216   6.922   3.943  0.0903 -0.2194 -0.0205
 8694W        W24311   7.222  12.579  15.250 -0.2994 -0.2723  0.0406
 8695W        W24312  10.815   5.233   0.537 -0.1354 -0.0287 -0.0914
 8696W        W24313  13.905  15.093  13.746  0.2233 -0.1980  0.2806
 8697W        W24314   3.596   9.807  15.762 -0.1266  0.1073  0.0458
 8698W        W24315  14.312  10.805   4.744  0.2816  0.1943  0.2226
 8699W        W24316  10.499   5.553  15.096 -0.2461  0.2550 -0.0282
 8700W        W24317  14.164   2.667   3.884 -0.0238  0.0390 -0.2828
 8701W        W24318  13.377   9.493  15.387  0.0529  0.0154 -0.1369
 8702W        W24319   0.665   6.331  16.191 -0.3614  0.0297  0.0224
 8703W        W24320  12.682   4.017   3.214  0.2577 -0.2080  0.1346
 8704W        W24321   6.086  15.435  16.195 -0.2059  0.2147  0.0806
 8705W        W24322  16.155   5.521   0.533 -0.0006 -0.2504  0.1406
 8706W        W24323   3.026   3.185   5.684  0.4176  0.5274  0.2413
 8707W        W24324   3.832  12.152  15.601  0.2571  0.1659 -0.1493
 8708W        W24325   2.815   3.032  16.678  0.0542 -0.1057  0.1808
 8709W        W24326  14.057  14.591   4.536 -0.2919 -0.0558  0.3263
 8710W        W24327  16.055   7.675  14.198  0.0312 -0.1584 -0.1298
 8711W        W24328  13.201   8.484   3.982 -0.3122  0.1440 -0.1984
 8712W        W24329   3.250   5.312  14.502 -0.2894 -0.1386 -0.1215
 8713W        W24330   3.716  16.244   3.664  0.1528  0.3046  0.0612
 8714W        W24331  14.311   6.826   4.437 -0.0782 -0.3622  0.0115
 8715W        W24332  12.371  15.707  15.745 -0.0654  0.0894  0.2551
 8716W        W24333  10.328  15.989  11.359 -0.1228 -0.0397 -0.2548
 8717W        W24334   4.705   4.655   4.342 -0.1142 -0.0175  0.1050
 8718W        W24335   1.835   1.182   0.944  0.0925 -0.5258  0.4570
 8719W        W24336   2.123  15.800   1.148 -0.3695  0.1791  0.0019
 8720W        W24337   3.223  15.955  14.786 -0.1062  0.0417  0.1841
 8721W        W24338  12.759   7.577   4.116  0.1082  0.3887 -0.3973
 8722W        W24339  14.001  15.931  12.242 -0.1020 -0.3259  0.1758
 8723W        W24340   4.170  16.580  16.077 -0.0846  0.1580 -0.1976
 8724W        W24341   5.670  17.069   1.344  0.0196  0.1081  0.0677
 8725W        W24342   3.080  15.502  14.594  0.1528  0.0301 -0.0574
 8726W        W24343  16.620   4.849   6.056  0.2749  0.0176 -0.0651
 8727W        W24344   1.035   1.010  16.796 -0.1885  0.1215  0.4878
 8728W        W24345  13.280  15.756  12.121  0.0503 -0.0799  0.0840
 8729W        W24346   5.976  12.537   5.643 -0.1067 -0.0198  0.0206
 8730W        W24347   8.975  16.872   0.510  0.2897 -0.0463  0.0578
 8731W        W24348   0.177   7.432  16.218 -0.0431  0.3393 -0.2841
 8732W        W24349   9.648   7.375   0.897  0.0878  0.0243 -0.0946
 8733W        W24350   9.009   0.428   6.702 -0.1365  0.0773 -0.1426
 8734W        W24351   7.753  15.808   3.137 -0.1432  0.1679  0.0559
 8735W        W24352   2.794   1.511  12.799  0.0283  0.0674  0.1534
 8736W        W24353  16.048   9.659  10.913 -0.0703  0.0230 -0.0197
 8737W        W24354  10.351   3.508   2.896  0.2360  0.0144 -0.2416
 8738W        W24355  14.829   6.678   6.122  0.2571 -0.3157 -0.0277
 8739W        W24356   3.412   2.101  14.605  0.3602 -0.1150 -0.1906
 8740W        W24357   0.753   5.009  12.393  0.0866  0.0336  0.0389
 8741W        W24358   3.667  13.669  14.469  0.1140 -0.0010 -0.0382
 8742W        W24359   3.611  15.415   4.598  0.0900 -0.2737  0.1009
 8743W        W24360   4.088  14.846  10.389 -0.1636  0.0469 -0.0813
 8744W        W24361  12.285  12.507   3.498  0.0459  0.0211 -0.0257
 8745W        W24362  11.216  13.722   4.784  0.1207 -0.1472  0.0606
 8746W        W24363  10.245   4.913   6.472  0.0637  0.2367 -0.1604
 8747W        W24364   8.831  11.886   4.155  0.2763  0.1654  0.0961
 8748W        W24365  13.229   2.179   0.205 -0.2241 -0.0666 -0.2619
 8749W        W24366   2.290  15.847  14.340  0.2223 -0.2175  0.1697
 8750W        W24367   7.840  14.252   4.293  0.2438  0.0280 -0.0930
 8751W        W24368   5.562  15.762   2.926  0.2297  0.0667 -0.0407
 8752W        W24369  17.671   2.959   0.533 -0.1875  0.1890  0.1319
 8753W        W24370  15.263  16.375   3.511 -0.0646 -0.1051  0.2925
 8754W        W24371   6.391  13.536  11.088  0.1204 -0.0390 -0.3221
 8755W        W24372   8.319   4.772  16.537 -0.4367  0.0254  0.0009
 8756W        W24373   7.008  16.528   3.601  0.1730  0.0581  0.2068
 8757W        W24374   9.854  14.055   1.430  0.0552  0.1526  0.0666
 8758W        W24375   0.907   8.120  15.816 -0.0850  0.2133 -0.1069
 8759W        W24376  13.773   2.595   2.402  0.3204  0.0971  0.0237
 8760W        W24377  13.955   1.626   4.549 -0.0535  0.0467  0.2345
 8761W        W24378   7.431   4.291  13.267 -0.2219 -0.0102  0.4533
 8762W        W24379   5.668   0.849  15.530  0.1071  0.1487  0.2872
 8763W        W24380  14.033  10.565  15.005 -0.0270  0.1208  0.0998
 8764W        W24381  13.192   8.873   1.610 -0.1120  0.1031 -0.1667
 8765W        W24382   2.741  10.869  13.088 -0.3707 -0.0628 -0.0614
 8766W        W24383   5.033  16.417   2.685 -0.1901 -0.1352  0.2261
 8767W        W24384  12.649   4.341   0.955  0.2465  0.0630 -0.1663
 8768W        W24385   1.590   3.046  13.112 -0.2392 -0.0207  0.0844
 8769W        W24386   5.775   6.636  16.444  0.2029  0.0944 -0.2025
 8770W        W24387   1.722   9.908  11.680 -0.0186  0.1181  0.0166
 8771W        W24388   6.889   1.243  13.928  0.2946  0.0258 -0.4181
 8772W        W24389   7.562   4.119   0.702 -0.3227  0.1000  0.1729
 8773W        W24390   6.849  15.862  11.434  0.0071  0.1611  0.2214
 8774W        W24391   4.572   6.382  14.613 -0.4163 -0.0570  0.1461
 8775W        W24392   1.051  15.882   1.293  0.0330 -0.1478 -0.4974
 8776W        W24393  12.193   7.180  14.692 -0.1266 -0.1556 -0.0363
 8777W        W24394   5.178  12.027  15.564 -0.2165  0.2244 -0.0784
 8778W        W24395  14.239   9.064   4.598 -0.1843 -0.1873 -0.1120
 8779W        W24396   6.065  11.761   0.515 -0.1536  0.0723  0.0972
 8780W        W24397  11.888  16.641  13.028 -0.0551  0.3445  0.1906
 8781W        W24398  14.549  11.750  15.740 -0.2944 -0.0643 -0.1718
 8782W        W24399  10.127   7.755   5.422 -0.0010  0.1148  0.0299
 8783W        W24400   9.331  13.747  16.316  0.1540  0.0201  0.0634
 8784W        W24401  15.891   7.337  16.411 -0.1554 -0.0998 -0.2347
 8785W        W24402  11.061   7.392  16.663  0.2526  0.0032  0.1173
 8786W        W24403   4.119  14.067  13.608 -0.1491 -0.0015 -0.2470
 8787W        W24404  14.865   9.859  16.052 -0.1410 -0.0540  0.0821
 8788W        W24405   7.126   5.712   3.777  0.1405 -0.0634  0.1516
 8789W        W24406   3.221   8.111   2.157  0.1328 -0.1134 -0.0194
 8790W        W24407  14.389  13.167   6.048 -0.0511 -0.2494 -0.1649
 8791W        W24408   6.155  16.425  16.608  0.1431 -0.0602  0.0254
 8792W        W24409   8.555   1.142   2.197  0.1313  0.0623  0.0664
 8793W        W24410   2.011   5.053  16.159 -0.1499  0.1440 -0.0742
 8794W        W24411   2.129  12.047  13.294 -0.1926 -0.1305  0.3857
 8795W        W24412   8.290   4.971  14.451  0.3712  0.2279  0.2368
 8796W        W24413   3.906   7.481   5.101 -0.0690  0.0917 -0.1727
 8797W        W24414   6.966   8.383   3.120 -0.1654 -0.0183 -0.1247
 8798W        W24415   6.596  10.256  11.861  0.1251  0.1004  0.4195
 8799W        W24416   5.976  17.843  12.223 -0.1963  0.0586 -0.0528
 8800W        W24417  15.869   7.494   1.283  0.1144  0.0130  0.1063
 8801W        W24418  14.783   1.877  13.925  0.1515 -0.1613  0.0823
 8802W        W24419   1.238  15.783   4.460 -0.3027 -0.2042 -0.3335
 8803W        W24420   6.477  12.750  14.585  0.0685  0.1043 -0.0071
 8804W        W24421  10.137  11.338  12.269  0.3261 -0.3757  0.1741
 8805W        W24422  16.233   8.735  15.208  0.1051 -0.0408  0.0658
 8806W        W24423  17.372  14.875   1.429  0.3691 -0.0714 -0.0548
 8807W        W24424  14.864   3.388  16.370 -0.1888 -0.0803  0.1555
 8808W        W24425  12.599  14.105  12.275  0.2448  0.0294  0.4076
 8809W        W24426  17.162  17.380  15.425 -0.0981 -0.4202 -0.1066
 8810W        W24427  13.701   6.779   1.431  0.0480  0.0320 -0.0071
 8811W        W24428  16.902  13.345   2.597 -0.0148 -0.0619 -0.2443
 8812W        W24429   7.761  13.674  16.192  0.1925  0.1796 -0.2161
 8813W        W24430   6.389  10.907  14.954 -0.2491 -0.0189  0.2685
 8814W        W24431   6.532  16.909   1.211 -0.1588 -0.4643 -0.0211
 8815W        W24432  12.217  13.871   0.559  0.2562  0.1535 -0.0424
 8816W        W24433  11.293   4.739  14.077  0.4163 -0.0813 -0.2279
 8817W        W24434   9.875   5.747  14.824  0.0776 -0.4909  0.2422
 8818W        W24435  17.679   0.071  11.975 -0.0220 -0.1205  0.1711
 8819W        W24436   5.995  13.574   2.460 -0.0240 -0.0435  0.3036
 8820W        W24437  14.012   5.874  11.958 -0.2217  0.1398  0.0115
 8821W        W24438   9.746   4.073   3.061  0.1743  0.1150 -0.0110
 8822W        W24439   9.762   0.383   0.093 -0.0927  0.1347 -0.2080
 8823W        W24440  14.950  10.107  12.578 -0.0178  0.0871  0.1765
 8824W        W24441  17.796   0.593   4.757  0.2437 -0.0009  0.0452
 8825W        W24442   5.770   1.253   5.912  0.2902 -0.0954 -0.2605
 8826W        W24443  12.044  17.334  10.384  0.1166  0.0058 -0.0684
 8827W        W24444   9.805   4.196   2.506 -0.2155 -0.0928  0.0206
 8828W        W24445  14.942  10.735   1.207  0.2094  0.0248  0.0811
 8829W        W24446  15.889  14.405   0.183 -0.0044 -0.2290 -0.1357
 8830W        W24447  15.553   6.815  13.866 -0.2481 -0.0583  0.2923
 8831W        W24448  13.086   3.867  14.475  0.1105 -0.2153  0.0860
 8832W        W24449   8.249   3.579  14.573 -0.1029  0.0946  0.0975
 8833W        W24450   8.259   6.805  15.050  0.2569 -0.0633  0.1749
 8834W        W24451  11.315   3.607   2.369  0.1833  0.1219  0.0551
 8835W        W24452  15.052   2.023  13.556 -0.2390  0.0360 -0.1051
 8836W        W24453  15.572  12.692  16.558  0.0825 -0.1827  0.1657
 8837W        W24454  16.561   6.770  14.081 -0.1352  0.1318  0.0235
 8838W        W24455   3.681  14.791  14.620  0.0911  0.0575 -0.0269
 8839W        W24456  15.293   4.710   3.723 -0.0037  0.1561  0.4310
 8840W        W24457   8.066  17.828   3.284  0.1725  0.0068 -0.1819
 8841W        W24458   8.362  17.037  15.371  0.0575  0.3853 -0.0552
 8842W        W24459  17.261   9.453  15.700  0.0838  0.1659  0.0876
 8843W        W24460   6.719   6.308   2.612  0.1330 -0.2152 -0.1486
 8844W        W24461  14.984   4.912  16.016 -0.0271 -0.1295  0.0000
 8845W        W24462  11.644   7.909  12.061  0.0507 -0.4609 -0.2105
 8846W        W24463   6.594  16.353  12.779  0.2140  0.0768  0.0987
 8847W        W24464   5.305  13.710   4.077 -0.2270  0.1200 -0.3090
 8848W        W24465   4.907   0.441   3.352 -0.4496 -0.0646  0.1228
 8849W        W24466   5.178  10.766  13.771 -0.1279  0.0316  0.1497
 8850W        W24467   2.443  14.185   4.009  0.1403  0.2128 -0.0273
 8851W        W24468  17.752  10.662  12.012 -0.0667  0.3046  0.2756
 8852W        W24469   5.398   0.330   6.442  0.0076 -0.0771 -0.1195
 8853W        W24470   7.333  12.887  12.079  0.2679  0.0255  0.3477
 8854W        W24471  12.625   0.514  12.389  0.0489  0.1175  0.4270
 8855W        W24472   8.228   4.154   5.907 -0.0181 -0.0871 -0.1377
 8856W        W24473   5.074  15.804  15.060 -0.1991  0.0052  0.3645
 8857W        W24474  16.431  11.882   0.605 -0.0121  0.0711 -0.1551
 8858W        W24475   1.053  13.583  11.628  0.2370  0.0721  0.1251
 8859W        W24476   0.338   6.571   1.072  0.1137 -0.1041  0.2474
 8860W        W24477  13.924   8.186   2.207  0.3582  0.0174 -0.2007
 8861W        W24478   2.939  12.970  14.466 -0.2909  0.0759  0.1270
 8862W        W24479   8.734  12.337  12.325  0.2538 -0.2547 -0.0694
 8863W        W24480  17.170  15.855  15.006  0.1069  0.0559  0.2550
 8864W        W24481   7.087   6.696   6.566 -0.4332  0.1118 -0.1655
 8865W        W24482  15.604   3.486   5.168  0.0108 -0.1126 -0.1137
 8866W        W24483  17.772  12.816  12.516  0.0803 -0.0799 -0.0751
 8867W        W24484   5.290   4.128   1.188  0.0210 -0.0064  0.2289
 8868W        W24485   3.992   6.913   3.185  0.0475 -0.1685  0.1587
 8869W        W24486  12.180  15.336  14.828  0.1863  0.1076  0.0778
 8870W        W24487   7.561   5.923  15.117 -0.2409  0.0978  0.0832
 8871W        W24488  10.268   0.979   3.836 -0.2213 -0.0286 -0.0251
 8872W        W24489   8.335  12.013  12.331  0.0366  0.1246  0.4955
 8873W        W24490   9.407  12.968   1.345  0.0795 -0.0928  0.1741
 8874W        W24491  12.940  15.870   3.342  0.0066  0.0613 -0.1275
 8875W        W24492  17.099   3.371   4.247 -0.0312  0.1563 -0.0972
 8876W        W24493   0.133   6.897  16.217 -0.3192  0.3337 -0.0037
 8877W        W24494  13.023  14.694   5.269  0.1179  0.2744 -0.0703
 8878W        W24495  14.753  14.459  12.489 -0.1383  0.1869  0.1515
 8879W        W24496   6.040   7.286   3.103  0.1105 -0.0656 -0.2890
 8880W        W24497  12.387  17.797  13.513 -0.1360 -0.0189 -0.0494
 8881W        W24498  11.408   8.587   1.073  0.0770  0.1712  0.3378
 8882W        W24499  13.613  17.206  11.407 -0.0780  0.1871 -0.4414
 8883W        W24500  14.603   8.835  12.095 -0.1075  0.1961 -0.3104
 8884W        W24501  12.838   2.196  16.612  0.1233 -0.2204 -0.0693
 8885W        W24502  16.930  11.308  13.206 -0.1184  0.0222 -0.2181
 8886W        W24503   0.836  15.004  14.873 -0.0245 -0.1379 -0.2800
 8887W        W24504   8.815  14.760  14.035 -0.1250  0.1461  0.1053
 8888W        W24505  13.459  14.845  13.529 -0.1434 -0.1835  0.2051
 8889W        W24506   0.557   0.169  14.866 -0.1233 -0.2183 -0.3719
 8890W        W24507   7.936  15.330   5.971  0.0646 -0.0234 -0.2256
 8891W        W24508  11.988  13.748   2.004  0.1301  0.0621 -0.0197
 8892W        W24509  17.609   8.601   2.630  0.4720 -0.0099 -0.2674
 8893W        W24510  15.642   5.780   0.068 -0.2594 -0.2789 -0.1891
 8894W        W24511  10.537   7.404  16.715  0.0559 -0.0162 -0.0104
 8895W        W24512   8.066   6.169  14.415 -0.1538 -0.1281 -0.1777
 8896W        W24513  10.893  14.481  14.968  0.1995  0.0543 -0.1906
 8897W        W24514  11.319   4.143  14.137 -0.0073  0.1425 -0.1420
 8898W        W24515  15.291   1.525  16.626 -0.1717 -0.2001  0.0266
 8899W        W24516   7.849  13.563  12.688  0.1328 -0.0534  0.1419
 8900W        W24517   0.789  14.619  15.310  0.3651 -0.1304  0.1772
 8901W        W24518  13.466   8.195   2.391  0.1641 -0.2053  0.0481
 8902W        W24519   1.810   4.202   4.186  0.1231 -0.1897 -0.0480
 8903W        W24520   9.972   4.798   3.257 -0.3745 -0.2680 -0.2070
 8904W        W24521  15.014   5.070   2.135 -0.0951  0.0815 -0.2271
 8905W        W24522   6.530   2.967  12.849 -0.0306  0.3520  0.1417
 8906W        W24523   5.738   0.884  13.468  0.0590 -0.0123  0.0304
 8907W        W24524   2.201   8.838   5.628  0.2957  0.1742 -0.1486
 8908W        W24525  14.906  15.165   1.615  0.1729 -0.1887  0.1538
 8909W        W24526  14.093  11.293  15.553  0.2270  0.2630 -0.1975
 8910W        W24527  12.662  10.090   3.401 -0.0539 -0.1370 -0.0711
 8911W        W24528   2.551   4.019   5.799 -0.1434  0.2535  0.2067
 8912W        W24529  10.402   8.511  12.694 -0.2609  0.1674 -0.1655
 8913W        W24530  14.205   1.113  14.232 -0.1186  0.3873  0.1039
 8914W        W24531   8.546   1.985  15.323  0.0943  0.1292  0.0087
 8915W        W24532   5.797   5.198  14.462 -0.2119  0.0043 -0.0201
 8916W        W24533   9.979  13.250   2.952  0.0751  0.1438  0.1451
 8917W        W24534  12.410  14.975  16.539  0.0124  0.2071 -0.3609
 8918W        W24535   2.680   9.606  13.700 -0.1914 -0.1621 -0.0074
 8919W        W24536   6.550  17.562  10.720  0.2258 -0.3647  0.0528
 8920W        W24537   5.969  13.364   2.924  0.0279  0.0360  0.0746
 8921W        W24538   5.968   9.533  15.750  0.2195 -0.0170  0.1322
 8922W        W24539   5.283  13.328   4.396  0.1582 -0.1553 -0.4227
 8923W        W24540   0.764   4.926  15.558  0.1254 -0.1699  0.0683
 8924W        W24541  12.705  15.109  14.844  0.2606  0.3932  0.3724
 8925W        W24542   7.152  13.546  11.533  0.2531 -0.0948 -0.2869
 8926W        W24543   3.935  12.742   3.166  0.2482  0.0962  0.0784
 8927W        W24544  12.782  12.527   5.704  0.0408 -0.0926  0.1405
 8928W        W24545  11.338   0.737  14.980  0.3695 -0.2057 -0.1692
 8929W        W24546   6.099   9.528   2.664 -0.1827 -0.0330 -0.0406
 8930W        W24547  15.133   3.185  12.304 -0.0270  0.1310 -0.0594
 8931W        W24548  17.485   2.046  13.258 -0.4658  0.0755  0.1139
 8932W        W24549  11.237   2.504   4.100 -0.0389  0.0452 -0.0834
 8933W        W24550   3.492  16.291   4.701 -0.1051 -0.2029 -0.0503
 8934W        W24551  10.651  10.119   2.028  0.0324  0.0667 -0.0281
 8935W        W24552   5.839   3.681   2.496 -0.0784 -0.3068  0.2568
 8936W        W24553  12.250  10.593  12.456 -0.0954  0.0580  0.1676
 8937W        W24554   3.553   1.688  14.381 -0.1734  0.5091  0.1769
 8938W        W24555   9.715   3.722   5.943 -0.2228 -0.1013 -0.0344
 8939W        W24556  13.887  11.563  13.355 -0.1916  0.0678  0.3574
 8940W        W24557  12.129   7.070  16.714 -0.4080  0.3387  0.2043
 8941W        W24558  13.251  15.489   4.877  0.1278  0.2789 -0.4162
 8942W        W24559   3.060  16.626  10.891 -0.3573  0.2226 -0.1931
 8943W        W24560  14.461   7.784  16.507 -0.0218 -0.0533 -0.2819
 8944W        W24561   4.010   3.420   5.620 -0.2301  0.3178 -0.1189
 8945W        W24562   0.487  14.840   6.007  0.0256 -0.2264  0.0674
 8946W        W24563   3.643   2.950   0.952  0.1310  0.2015 -0.0058
 8947W        W24564  10.701  17.336  13.977  0.0434  0.0135  0.1967
 8948W        W24565  15.150   4.537   5.251 -0.0926  0.0969 -0.0096
 8949W        W24566   3.413   4.314   3.082  0.3097  0.1472 -0.0779
 8950W        W24567   2.408  13.784  11.030  0.0632  0.1678  0.3966
 8951W        W24568  13.651   1.170   1.641 -0.0969  0.0561  0.1097
 8952W        W24569   3.085   2.750   0.793  0.0677 -0.0999 -0.0620
 8953W        W24570   7.131   1.095   1.980  0.2465 -0.1690  0.0366
 8954W        W24571   6.619   6.645   0.008  0.0476 -0.0938 -0.0322
 8955W        W24572   3.326   8.264  14.088 -0.2036  0.1251  0.0875
 8956W        W24573   3.922   8.686   2.325 -0.0557 -0.0018  0.2178
 8957W        W24574   6.948   3.937  14.992  0.1381  0.0994  0.2584
 8958W        W24575   0.764   7.143   3.725  0.1348  0.1621  0.2113
 8959W        W24576   0.430   4.076   1.631  0.0956 -0.0047 -0.0024
 8960W        W24577   3.229   5.946   0.567 -0.0962  0.2459 -0.1716
 8961W        W24578   7.157   0.047   1.207 -0.0441  0.1974 -0.3518
 8962W        W24579  10.816  13.965  11.984 -0.0395 -0.0682  0.0705
 8963W        W24580   8.889  17.660  13.866  0.0256  0.2824  0.3086
 8964W        W24581   4.985  12.510  12.842 -0.2033 -0.0500 -0.0482
 8965W        W24582   8.214   7.189   0.098  0.1884  0.0344 -0.0882
 8966W        W24583  14.620   3.510   5.051  0.0744  0.0993  0.1004
 8967W        W24584  11.248   2.251  12.671  0.0333 -0.1677  0.0066
 8968W        W24585   8.466   8.549  14.119 -0.1464 -0.2151 -0.1280
 8969W        W24586  17.555  14.911  16.547  0.4322  0.0104 -0.1105
 8970W        W24587   5.921   4.638  12.335 -0.1241 -0.0524 -0.0732
 8971W        W24588  12.591  14.175  16.537  0.0719  0.0694 -0.1983
 8972W        W24589  11.571   5.132  13.464 -0.0151 -0.1691  0.0736
 8973W        W24590  16.406  16.422   0.074 -0.0479 -0.1995 -0.1550
 8974W        W24591   1.754   6.325  15.777 -0.0566 -0.0804  0.0666
 8975W        W24592   8.577  17.404   0.058  0.1542  0.0237  0.0658
 8976W        W24593   4.259  16.503  15.570 -0.0303  0.2002 -0.0942
 8977W        W24594   6.620  14.371  11.340 -0.2730  0.2560  0.0720
 8978W        W24595  16.351  11.721  15.995 -0.2968 -0.1097 -0.0845
 8979W        W24596  16.833  15.624   0.934  0.1187 -0.0931  0.0562
 8980W        W24597  12.505   2.484  12.671  0.2102 -0.0510 -0.0527
 8981W        W24598  11.113  17.836  15.372 -0.2169  0.2875  0.4028
 8982W        W24599  10.311   0.654  11.847  0.0660 -0.1180 -0.0502
 8983W        W24600   4.765   0.286  14.043 -0.1584 -0.0463 -0.1259
 8984W        W24601   9.750   0.735  12.999 -0.1978  0.0355 -0.0849
 8985W        W24602   6.533   1.675   4.606 -0.2403  0.0091  0.1790
 8986W        W24603   2.831   9.420   5.095  0.0250 -0.3826 -0.1184
 8987W        W24604  17.253   5.723   5.212  0.2669 -0.0788  0.0852
 8988W        W24605  17.699  16.970  13.698 -0.0608 -0.4592 -0.0583
 8989W        W24606   3.649  14.146   0.771 -0.1955  0.0862  0.0471
 8990W        W24607  12.793  17.053  15.079 -0.2824 -0.3997  0.0453
 8991W        W24608   9.381   3.677   2.835  0.2896 -0.3789 -0.0307
 8992W        W24609   8.510   5.301   2.559 -0.1720  0.2211 -0.2015
 8993W        W24610   7.681  16.737   1.340  0.2387 -0.0530 -0.0734
 8994W        W24611   0.676   2.433   1.551 -0.1718  0.1110  0.0791
 8995W        W24612  11.252   9.816   2.901 -0.1975  0.2002 -0.3281
 8996W        W24613  17.637  14.663   1.934  0.0355  0.0716  0.0255
 8997W        W24614   6.188   5.693  13.105  0.0840 -0.1185 -0.2420
 8998W        W24615   8.504  13.311  11.952 -0.0672  0.0682 -0.0451
 8999W        W24616   5.248   2.675   3.365  0.2465  0.2592 -0.2072
 9000W        W24617   7.719  14.268  14.824 -0.1084  0.0785  0.1902
 9001W        W24618   2.721   9.174   2.703  0.1166  0.0400 -0.0653
 9002W        W24619   3.783  10.560  14.841  0.1899  0.3273 -0.0398
 9003W        W24620   7.300  16.410   1.449  0.0855  0.0957  0.2806
 9004W        W24621   3.426  12.507  12.560  0.0978 -0.3992  0.1025
 9005W        W24622  15.913  11.005   1.124 -0.4374  0.1920  0.0480
 9006W        W24623   0.655  16.781   5.096 -0.3085 -0.2109 -0.1792
 9007W        W24624  11.471   2.114   0.240  0.2031  0.0282 -0.1545
 9008W        W24625   4.547  17.565  11.787  0.1723 -0.2375  0.1055
 9009W        W24626   1.751  14.633  15.432  0.0709 -0.2663  0.0990
 9010W        W24627   3.574  13.315   1.816 -0.0949  0.1023 -0.3031
 9011W        W24628  11.326  11.555  15.979  0.0078 -0.0957 -0.1602
 9012W        W24629   6.219   7.760  15.227  0.1936 -0.0532  0.1910
 9013W        W24630   4.100   8.855  13.616  0.0805 -0.0166  0.0055
 9014W        W24631  15.650  16.664  14.283 -0.0460 -0.2084  0.1606
 9015W        W24632   4.116   7.217  13.928  0.1417  0.0662  0.0289
 9016W        W24633  13.590  16.753  15.295 -0.2208  0.1058 -0.0233
 9017W        W24634   3.863  10.911  14.063  0.2891 -0.1753  0.1881
 9018W        W24635  13.566  16.370   0.894  0.2070 -0.2681 -0.0444
 9019W        W24636   8.782  11.660  13.625  0.0690  0.5697 -0.2305
 9020W        W24637   0.960   5.974  16.011  0.0253  0.0620  0.1403
 9021W        W24638   0.628   6.445  13.321 -0.0986  0.0702 -0.2170
 9022W        W24639   1.332  11.561  15.275 -0.3340  0.1457  0.0268
 9023W        W24640  17.389   1.322  13.770 -0.1422 -0.2101 -0.0622
 9024W        W24641   0.132   3.846   6.138  0.2001  0.0299  0.3236
 9025W        W24642   7.582   4.656   1.609 -0.4159  0.1710 -0.1802
 9026W        W24643   7.098   0.540  16.314  0.0054  0.2033  0.2673
 9027W        W24644  15.354  13.810   1.314  0.0063 -0.0803  0.1291
 9028W        W24645   1.611  10.334   5.226  0.0936 -0.0458  0.1697
 9029W        W24646  17.365  11.084  12.923 -0.2282 -0.0007 -0.0547
 9030W        W24647   9.093   7.425  16.572 -0.0820  0.1709 -0.1172
 9031W        W24648  14.139   8.939   2.009  0.0051 -0.1639  0.1919
 9032W        W24649  16.379   4.105  11.543  0.1109  0.0645 -0.1159
 9033W        W24650   0.914   3.497   2.799 -0.0723 -0.0118 -0.3290
 9034W        W24651   6.219  10.510  12.137  0.1466 -0.0216  0.2049
 9035W        W24652   6.523   4.401  11.513 -0.1980 -0.1602  0.0448
 9036W        W24653  11.018  11.348  14.719 -0.2207  0.0429  0.1805
 9037W        W24654   0.739  16.015   2.027  0.1235 -0.1762 -0.0810
 9038W        W24655   9.750  14.433   1.108 -0.1126 -0.1129 -0.1773
 9039W        W24656   6.952  14.520  14.349 -0.4065  0.3314  0.0537
 9040W        W24657  12.377   5.211  13.169 -0.0369  0.2845 -0.2115
 9041W        W24658  15.940   3.997   1.383 -0.1296 -0.3319 -0.0157
 9042W        W24659   7.752  10.686  16.426 -0.0140  0.0369 -0.1535
 9043W        W24660   3.231  16.753   4.844  0.1224  0.0461  0.1330
 9044W        W24661  13.606  12.975  15.727  0.0239 -0.1558 -0.3990
 9045W        W24662   2.027   5.364   4.825  0.1486 -0.1377  0.3778
 9046W        W24663   0.065  14.281  11.958 -0.0535 -0.0980 -0.7108
 9047W        W24664  10.121   6.142   0.020  0.2652 -0.0485 -0.2240
 9048W        W24665  15.218   8.442   2.453  0.2443  0.1080 -0.0410
 9049W        W24666  15.652   5.158   4.635  0.0425 -0.1981 -0.2457
 9050W        W24667   1.506   9.429  16.020  0.0694  0.2160  0.0842
 9051W        W24668   9.402  15.393   2.907  0.0310 -0.5326  0.0586
 9052W        W24669   2.298  11.263  11.412  0.0303  0.2183 -0.1514
 9053W        W24670   3.760  14.849  13.073 -0.0685 -0.1416 -0.0642
 9054W        W24671  10.370  12.714   1.707 -0.2993 -0.1078  0.1297
 9055W        W24672   2.524  16.413  13.191 -0.1627 -0.2180  0.0212
 9056W        W24673   1.300  11.762  14.133 -0.3522 -0.1445 -0.0117
 9057W        W24674  13.530  14.087   1.150 -0.0553 -0.1051  0.2857
 9058W        W24675  10.053   9.029   2.109 -0.1099  0.1352  0.1216
 9059W        W24676  12.631  10.430  15.618 -0.0949  0.0076  0.1195
 9060W        W24677   6.584  15.682  14.669  0.0021  0.0858  0.1173
 9061W        W24678  11.205   3.350  13.523  0.1331  0.0663 -0.0948
 9062W        W24679  15.813  10.994   1.641  0.2742 -0.0146 -0.0343
 9063W        W24680   0.945  14.052   2.408  0.3831  0.2019  0.0675
 9064W        W24681   3.696   1.436   1.847 -0.3354 -0.3312 -0.2081
 9065W        W24682  14.514   0.494  15.032  0.0817  0.1308  0.2659
 9066W        W24683   0.526   3.085   5.587  0.2172  0.4393  0.2161
 9067W        W24684  15.843   1.287  11.548  0.1660  0.1635  0.0336
 9068W        W24685  13.838  11.046  12.332  0.1674 -0.0453  0.2070
 9069W        W24686  13.465   5.087  13.917  0.1694  0.0299  0.3453
 9070W        W24687  10.015  10.370   5.433 -0.0475 -0.3780  0.3420
 9071W        W24688   6.539   9.053   3.517  0.0891 -0.2736 -0.2870
 9072W        W24689   4.899  10.169  11.921  0.4097  0.3802 -0.1299
 9073W        W24690   1.278   0.948  13.318 -0.2665 -0.1672 -0.0974
 9074W        W24691   7.774  17.354   0.085 -0.0603 -0.0627  0.4648
 9075W        W24692  13.691  13.371  12.525  0.0055 -0.1517 -0.0393
 9076W        W24693   3.720   3.229   0.195 -0.1262  0.1149  0.1079
 9077W        W24694  10.980   5.023   4.749 -0.0778  0.0644  0.2609
 9078W        W24695   0.936   1.259   2.916 -0.2897  0.0892 -0.2520
 9079W        W24696   5.900   9.278  13.938 -0.1873  0.4706 -0.4121
 9080W        W24697   0.585  12.181  11.389  0.4136  0.0685  0.1824
 9081W        W24698  15.036  17.166  11.787 -0.0542 -0.0101 -0.1815
 9082W        W24699  13.979   1.960   4.167 -0.1517  0.2762 -0.0753
 9083W        W24700   3.188   0.118  12.801 -0.0778  0.1140  0.1854
 9084W        W24701   7.148  17.831   3.664  0.3609 -0.0089 -0.1246
 9085W        W24702   3.293  11.764  12.140  0.0531  0.0470  0.0751
 9086W        W24703  14.538   9.625  11.876 -0.1572  0.0417 -0.4535
 9087W        W24704   4.603   6.227   0.539 -0.0012  0.1106 -0.1277
 9088W        W24705  13.027  11.314  12.221  0.1525  0.0452 -0.0371
 9089W        W24706  16.227   2.869  13.376 -0.1007 -0.1054 -0.2674
 9090W        W24707  16.635  16.148  14.017  0.2982  0.0787  0.0756
 9091W        W24708   7.629   0.246   2.388 -0.0239 -0.0392 -0.2089
 9092W        W24709   0.885   7.540   4.501  0.1057  0.0889  0.0035
 9093W        W24710  17.439  12.044   3.658 -0.1504  0.0798  0.2202
 9094W        W24711  11.845   5.772  12.034  0.1100  0.0102 -0.0127
 9095W        W24712  10.710   7.771  16.476  0.0405 -0.2499  0.0015
 9096W        W24713   2.903   4.189   3.237  0.0672 -0.0853 -0.0260
 9097W        W24714  15.255   5.006  12.573  0.1393 -0.0379 -0.1229
 9098W        W24715  15.642  11.125   4.155 -0.2197 -0.2192  0.1048
 9099W        W24716  13.288   0.345  14.282  0.0309  0.2469 -0.1204
 9100W        W24717  12.682   1.352   0.395 -0.0924  0.0161  0.1811
 9101W        W24718   9.280  14.627  11.956  0.2707 -0.0167 -0.2558
 9102W        W24719   0.135   5.042  16.337 -0.2928  0.0411 -0.0154
 9103W        W24720   1.959  12.050  12.238 -0.2255 -0.4401  0.0876
 9104W        W24721  14.282  13.324   5.167  0.2317 -0.0972  0.3386
 9105W        W24722   8.384  16.717   2.308 -0.2259  0.0222  0.0005
 9106W        W24723  14.370   5.194  12.759 -0.0748 -0.0764 -0.0142
 9107W        W24724  12.896   8.261  14.072  0.0426  0.0418  0.1519
 9108W        W24725   5.355   3.020   5.787 -0.1879  0.0157 -0.2235
 9109W        W24726   2.573  16.387  16.515 -0.3167  0.1119 -0.1171
 9110W        W24727  12.902   2.501   6.044 -0.0309  0.3931  0.2367
 9111W        W24728  17.205  14.811  14.725 -0.1305 -0.1335  0.1480
 9112W        W24729   7.807   7.650   1.032  0.1582 -0.1038  0.2133
 9113W        W24730   5.074   4.483   0.228 -0.3677 -0.0652  0.0426
 9114W        W24731  16.461   4.082   5.025 -0.2838  0.0231 -0.4207
 9115W        W24732  14.160  15.223  14.299 -0.1441 -0.1603 -0.1599
 9116W        W24733   2.748   6.692   1.504 -0.2823  0.0443 -0.0275
 9117W        W24734   1.944   7.911   4.033  0.1642  0.0815  0.0235
 9118W        W24735  13.700  17.690   2.490  0.0477  0.1253  0.0072
 9119W        W24736   5.399   0.707   0.418  0.1963 -0.1258  0.2628
 9120W        W24737   4.392  12.221   0.966 -0.1918  0.2323  0.1378
 9121W        W24738   2.419   0.648   4.403 -0.0623  0.2575 -0.0452
 9122W        W24739  14.406  12.680   5.968  0.0019 -0.0501 -0.1877
 9123W        W24740  11.799   8.730  13.404 -0.2870 -0.3174  0.3113
 9124W        W24741  14.879  13.155   2.670 -0.2878 -0.2210  0.2484
 9125W        W24742  12.151   2.102   4.513 -0.1032  0.2064  0.0909
 9126W        W24743   3.850  16.225   0.661  0.0150  0.2274 -0.1258
 9127W        W24744  14.118   9.774  13.088 -0.0830 -0.1876 -0.0117
 9128W        W24745  16.087  11.804  13.501 -0.0198 -0.0142  0.1545
 9129W        W24746  14.251   1.332   2.010  0.1039  0.1839  0.4860
 9130W        W24747  10.522   0.079   1.756  0.0447  0.0625  0.1358
 9131W        W24748  15.066   6.259  15.282 -0.0338  0.2406  0.0623
 9132W        W24749  17.138  13.677   2.906  0.0421 -0.1041  0.1151
 9133W        W24750   2.371   6.387  11.976  0.2091  0.0401  0.0702
 9134W        W24751  12.497   8.418  13.854  0.0251  0.0851  0.2364
 9135W        W24752   4.793   2.539   1.461  0.2098 -0.0524 -0.0365
 9136W        W24753  15.764   0.828   0.406  0.0785 -0.2603 -0.0116
 9137W        W24754  16.933   5.683   1.465 -0.0513  0.3210 -0.0231
 9138W        W24755  11.293   4.112   0.096  0.0279 -0.0933 -0.1805
 9139W        W24756   3.159   7.924   5.201 -0.2642  0.1159 -0.4249
 9140W        W24757   2.016   5.420   1.415 -0.2061  0.2591 -0.0547
 9141W        W24758   4.677   7.875   5.896  0.2983  0.0367  0.0074
 9142W        W24759  14.009  13.283  12.985 -0.0648 -0.2721  0.2350
 9143W        W24760   3.642  12.363   3.916  0.0386  0.6048 -0.0832
 9144W        W24761   4.228  10.530   4.979  0.1157 -0.1243  0.1879
 9145W        W24762  16.450   0.480  12.996 -0.0028  0.0905  0.2313
 9146W        W24763  12.727  17.323  12.802 -0.0432  0.0475 -0.1470
 9147W        W24764   7.807   9.433   5.180 -0.3668 -0.1533  0.0644
 9148W        W24765  10.832   8.289   0.052 -0.1730 -0.1146 -0.0735
 9149W        W24766  12.132   1.965   5.465  0.0397  0.2296  0.0759
 9150W        W24767   5.782   7.759  12.476  0.2186  0.0863 -0.2659
 9151W        W24768  14.346  11.058   5.584  0.2992 -0.5161 -0.1618
 9152W        W24769  13.918   8.328   3.187  0.2881 -0.3025 -0.0618
 9153W        W24770   5.973   4.224  13.276  0.1147 -0.1934 -0.1482
 9154W        W24771  11.959  15.946   5.753  0.2250  0.0085 -0.1519
 9155W        W24772  10.224  16.866  12.712 -0.1335 -0.0842 -0.3534
 9156W        W24773  15.310  15.051   0.321 -0.0420  0.1372  0.2729
 9157W        W24774   9.458   7.102   5.912 -0.0321 -0.0215 -0.0136
 9158W        W24775   6.767   6.014  11.713  0.0412  0.1210 -0.3501
 9159W        W24776   1.440  17.424   4.994  0.0367  0.1588  0.2939
 9160W        W24777   2.209   7.213  14.301  0.1329 -0.1636 -0.1376
 9161W        W24778   4.865  13.736  15.171 -0.2259 -0.3648  0.1703
 9162W        W24779  16.685  13.901  11.711 -0.1109 -0.1243 -0.1333
 9163W        W24780  17.247  14.854  13.967  0.2412 -0.0999 -0.2205
 9164W        W24781  14.620   9.743  14.637 -0.1875  0.3287 -0.0126
 9165W        W24782   3.198   6.910   1.895 -0.2463 -0.1297 -0.0465
 9166W        W24783   7.150   7.819   0.160 -0.4382 -0.3547 -0.1290
 9167W        W24784  13.201   1.699  16.334  0.0283  0.1172 -0.1131
 9168W        W24785   5.126  15.564   0.657  0.3042 -0.4065 -0.0421
 9169W        W24786  17.693   9.315   1.191 -0.1110 -0.0138  0.1350
 9170W        W24787   7.983  17.233  11.812  0.1712  0.0874 -0.3388
 9171W        W24788   6.662  14.279   0.673 -0.1336  0.0431  0.1185
 9172W        W24789   3.917  12.796  14.663 -0.1165  0.0349 -0.1064
 9173W        W24790  14.102   2.234  13.283 -0.0502 -0.2068 -0.0978
 9174W        W24791  11.371   2.023  14.228  0.1929 -0.1241  0.1311
 9175W        W24792   6.472   9.512   5.224 -0.0518  0.0128 -0.5138
 9176W        W24793  12.124  11.095   4.317 -0.2145 -0.2968 -0.0091
 9177W        W24794  17.089   2.908   2.868 -0.1511  0.0926  0.1843
 9178W        W24795   9.743   1.864  16.405 -0.0739  0.1920  0.0098
 9179W        W24796   4.936   2.980  16.818 -0.2695 -0.1220  0.0005
 9180W        W24797  10.064   4.435   2.933  0.1450  0.0506  0.0718
 9181W        W24798   8.240   3.112  12.369 -0.3971 -0.1881 -0.2687
 9182W        W24799  10.282  17.132   2.786 -0.4102  0.1507  0.1429
 9183W        W24800  12.710   7.732   4.929 -0.1668  0.0183  0.1405
 9184W        W24801  10.259   3.866   2.455  0.2722  0.1068 -0.1437
 9185W        W24802  17.286  13.045  14.752 -0.2244 -0.1562  0.3694
 9186W        W24803   1.323   0.202   3.762  0.0073 -0.1957 -0.1688
 9187W        W24804   9.605   0.508  16.389 -0.0730  0.0089 -0.5331
 9188W        W24805   7.173   9.206  13.187  0.2617 -0.3402  0.1062
 9189W        W24806   4.113   9.370  13.537 -0.0223  0.0261 -0.2813
 9190W        W24807   8.717   2.575   4.996  0.0053  0.0602  0.0319
 9191W        W24808  12.859   6.830   6.488 -0.0807 -0.1923 -0.1311
 9192W        W24809  14.074   3.022  15.944 -0.0359 -0.0683 -0.2515
 9193W        W24810   9.468   5.331  12.076  0.0099 -0.2811  0.0195
 9194W        W24811  17.775   9.068   1.738 -0.0537 -0.1718  0.2227
 9195W        W24812   1.815   4.959   2.529  0.4985 -0.1701 -0.1922
 9196W        W24813  10.718   0.164  14.618 -0.4062 -0.0281  0.1002
 9197W        W24814   8.412   5.926   3.101  0.0624 -0.0143 -0.0101
 9198W        W24815   8.879   1.867  13.381  0.0876  0.0101  0.1326
 9199W        W24816  17.077   6.305  12.437 -0.1256  0.0035 -0.2106
 9200W        W24817   6.870  11.863   5.767 -0.1346 -0.0312  0.4469
 9201W        W24818   8.325   8.361  12.106  0.1247  0.1442  0.1082
 9202W        W24819  12.696   3.162  12.612 -0.1592  0.4446  0.2300
 9203W        W24820  13.452   4.181   3.212  0.1130 -0.0148 -0.2388
 9204W        W24821  12.301  15.309   1.064 -0.2563  0.1373  0.1819
 9205W        W24822   9.832  15.903   5.958  0.0171  0.1673 -0.1984
 9206W        W24823  14.361  16.711   2.105 -0.0047 -0.1234  0.1613
 9207W        W24824  11.820   7.728  15.443 -0.0928 -0.0894 -0.0547
 9208W        W24825  14.432  14.250   4.421  0.1758  0.3404  0.0345
 9209W        W24826   9.228   0.479   3.508 -0.0514  0.0211  0.2138
 9210W        W24827   3.552  15.227  12.839  0.1728  0.1197 -0.0715
 9211W        W24828  17.763   3.270   3.363 -0.0354  0.3896  0.0173
 9212W        W24829   5.217  16.284   4.911  0.1661  0.1444 -0.0980
 9213W        W24830   0.309  11.372  12.991 -0.2957  0.0698 -0.0831
 9214W        W24831  10.956   9.148   3.386 -0.2960  0.1406 -0.0331
 9215W        W24832  14.737   4.477  15.611 -0.0823 -0.1710 -0.2121
 9216W        W24833   9.820   8.022  14.011 -0.1128  0.0374 -0.1654
 9217W        W24834   9.215   7.594   1.056 -0.0508  0.0195  0.0339
 9218W        W24835  12.321   8.845  11.726 -0.1580  0.2675  0.1139
 9219W        W24836  10.671   1.253  15.766 -0.0359  0.1308  0.2708
 9220W        W24837  11.090  16.762  16.766 -0.0308 -0.2593  0.0414
 9221W        W24838   6.488   5.943  15.376 -0.2391 -0.1111 -0.0556
 9222W        W24839  14.426  15.241   1.799  0.0096 -0.0305 -0.0902
 9223W        W24840  16.349   0.124  14.176  0.2186  0.0397  0.0957
 9224W        W24841  10.193   3.886   3.812 -0.0466  0.1723  0.2465
 9225W        W24842   1.739   1.986  13.736  0.3754 -0.1728  0.4570
 9226W        W24843  12.386  11.072   5.503  0.0098  0.0832 -0.1775
 9227W        W24844  11.222   6.147  14.558  0.1457 -0.0052 -0.1689
 9228W        W24845  16.137   6.485  13.856 -0.0220 -0.2081 -0.1649
 9229W        W24846  17.336  15.882   1.665 -0.0018 -0.0278 -0.0349
 9230W        W24847   6.507   6.396  14.788 -0.1281 -0.1880 -0.2441
 9231W        W24848   7.718   4.795  14.443 -0.2832  0.0744  0.3494
 9232W        W24849  17.254   1.039   3.136 -0.0607  0.1464 -0.0429
 9233W        W24850   4.693   6.522  10.906 -0.0738 -0.1562 -0.1752
 9234W        W24851  12.436  13.899  15.308  0.1705  0.1782 -0.1117
 9235W        W24852   0.718  13.649  15.041 -0.0630 -0.3001  0.0589
 9236W        W24853  14.594   5.780  14.749 -0.1427 -0.0197  0.3151
 9237W        W24854   0.427  16.541   3.474  0.3193  0.1371 -0.1877
 9238W        W24855   7.941   1.288  14.815 -0.0170  0.0552 -0.1852
 9239W        W24856   9.878  13.396   4.714 -0.2281  0.0719  0.3129
 9240W        W24857   1.087   9.268  14.725 -0.0576  0.5481 -0.4226
 9241W        W24858  11.624   0.294  15.198  0.1639  0.0773 -0.1802
 9242W        W24859   4.550   0.208   1.523 -0.1064 -0.0856 -0.0808
 9243W        W24860   6.383   3.410  11.697  0.0693 -0.0707  0.1055
 9244W        W24861   3.589  14.333  16.029 -0.2606 -0.0551 -0.2282
 9245W        W24862   4.435  10.362  12.022 -0.2604 -0.0404  0.1491
 9246W        W24863  14.155  10.681  12.501 -0.4359  0.1950 -0.0677
 9247W        W24864  12.953  13.585  15.305  0.0860  0.0009 -0.0198
 9248W        W24865  15.635   5.506  15.716 -0.2580 -0.0920 -0.1187
 9249W        W24866  15.908  15.144  13.563 -0.1039 -0.3908  0.1065
 9250W        W24867  14.316   4.704  12.870  0.0765  0.1748 -0.0216
 9251W        W24868   7.743  13.447   5.089  0.1680 -0.0569 -0.1605
 9252W        W24869  11.949   4.309   4.676  0.2484 -0.1637  0.0882
 9253W        W24870   4.342   7.252   4.076  0.1070 -0.0636  0.0475
 9254W        W24871   7.389   8.625   3.759 -0.0183  0.1730  0.0006
 9255W        W24872   7.762  17.600  12.690 -0.3039  0.1800  0.0997
 9256W        W24873   3.085   4.115  11.308 -0.0885 -0.2277 -0.1459
 9257W        W24874   4.648   5.970  11.754 -0.1158 -0.1994 -0.3806
 9258W        W24875  13.370   1.340   5.157 -0.1022  0.1034 -0.1442
 9259W        W24876   6.317  15.120   4.141 -0.0234  0.0584 -0.0889
 9260W        W24877  17.061  12.676   1.559 -0.0263 -0.0327  0.0122
 9261W        W24878   3.716   3.576  16.102  0.1928 -0.1610 -0.1763
 9262W        W24879   8.028   4.391  14.072 -0.0435 -0.0806 -0.3511
 9263W        W24880   2.902  16.565   2.216  0.1848  0.2807  0.3771
 9264W        W24881   6.442   5.950   2.783 -0.0675 -0.0631 -0.2682
 9265W        W24882  15.685  13.517  16.070 -0.2030 -0.0571  0.2549
 9266W        W24883  10.169  12.278  16.617  0.0143 -0.4927  0.0587
 9267W        W24884  17.404  12.185  14.527 -0.1289  0.1404  0.0158
 9268W        W24885  16.175   4.526   3.642 -0.1196 -0.1655  0.2872
 9269W        W24886   5.052  10.049   1.747 -0.2990 -0.2806 -0.0823
 9270W        W24887  11.188   8.829   1.420  0.0981 -0.1092  0.1527
 9271W        W24888   3.659   1.011   0.339 -0.0552  0.2554  0.1477
 9272W        W24889  12.521   9.079  13.721 -0.2763  0.2335  0.0856
 9273W        W24890  15.910  11.603  16.287  0.0338  0.0358 -0.0180
 9274W        W24891  17.867  13.329  12.368 -0.0896  0.1699 -0.0248
 9275W        W24892   7.320   3.233  14.534  0.5910 -0.1152  0.2687
 9276W        W24893  10.546   4.076  16.515 -0.0719  0.1371  0.0055
 9277W        W24894   2.899   4.210  15.986 -0.0260  0.1408 -0.0556
 9278W        W24895  17.035   1.104  15.120 -0.0189 -0.0769 -0.0052
 9279W        W24896  14.808  13.490  12.674 -0.0317  0.1106  0.0417
 9280W        W24897  12.631   4.869   1.030 -0.1287  0.2561 -0.3760
 9281W        W24898   9.177  10.924  14.105  0.3032 -0.0320 -0.2602
 9282W        W24899   5.384   7.748   2.207 -0.1798  0.1382  0.0962
 9283W        W24900   0.378   7.916   2.495 -0.0184  0.2821  0.2890
 9284W        W24901  12.407  11.385  11.339  0.3138  0.0969 -0.1204
 9285W        W24902  10.528   7.574   2.792  0.0493 -0.0978 -0.3875
 9286W        W24903  11.046  17.454  13.594  0.0901  0.1765 -0.0650
 9287W        W24904  15.955   3.363  12.704  0.0015 -0.2646  0.0955
 9288W        W24905  14.897  15.649   5.498 -0.1912  0.2732 -0.1940
 9289W        W24906  17.563   8.758  13.959 -0.0100  0.1279  0.2178
 9290W        W24907  10.089   4.428  13.486 -0.1745 -0.3264  0.1306
 9291W        W24908  10.927   6.762  12.332  0.2230  0.1937  0.0483
 9292W        W24909   5.587  10.946  12.885  0.2750 -0.1753 -0.3181
 9293W        W24910  14.714   9.013   4.924 -0.3478 -0.1010  0.1784
 9294W        W24911   3.833   4.840   3.898 -0.1971 -0.0355 -0.1551
 9295W        W24912  17.713  16.404   0.245 -0.3857 -0.0918  0.2011
 9296W        W24913  17.628   4.417   5.465 -0.0213  0.1593  0.1001
 9297W        W24914   7.586   1.071  12.142  0.2290 -0.1193  0.5540
 9298W        W24915   9.452   9.070  12.806 -0.2026  0.3249  0.2232
 9299W        W24916   6.146  12.742  13.602  0.0881  0.2696 -0.1252
 9300W        W24917   2.061   6.286   0.439  0.2343  0.1738  0.0654
 9301W        W24918  10.478  14.922   5.943  0.3528 -0.1570 -0.1482
 9302W        W24919  16.466   3.995   4.554 -0.2794  0.1404 -0.0331
 9303W        W24920   2.447   4.751   1.381 -0.2091  0.1413 -0.1758
 9304W        W24921  16.417  13.046  16.108  0.1963  0.0502  0.0594
 9305W        W24922   9.040  16.511  12.993 -0.3028 -0.0730 -0.0896
 9306W        W24923   2.693   1.595  11.829  0.1059 -0.0656  0.0817
 9307W        W24924   2.204   5.150  16.766 -0.2346 -0.0289 -0.0879
 9308W        W24925   6.975  11.594   1.010 -0.1981  0.0764 -0.1056
 9309W        W24926  13.017  12.108  16.540  0.3623  0.2866  0.0946
 9310W        W24927  16.608   5.330  12.513  0.1543  0.2673  0.1804
 9311W        W24928  14.642   9.024  14.946 -0.0654  0.2529  0.0371
 9312W        W24929   5.293  10.134  14.840  0.2531 -0.1310  0.0958
 9313W        W24930  10.467   7.919   0.087  0.1460  0.2296 -0.2086
 9314W        W24931  14.498  15.659   4.007  0.3148 -0.1012 -0.2664
 9315W        W24932  15.470  17.320   0.145  0.0809 -0.2138 -0.1157
 9316W        W24933  10.864   4.456   2.142  0.1441 -0.0943  0.0696
 9317W        W24934   6.271  16.957  12.109  0.0324  0.2174 -0.2837
 9318W        W24935  13.705  10.027  14.806 -0.0024 -0.0538  0.1028
 9319W        W24936   0.123  13.040  13.664 -0.0128  0.1045  0.1419
 9320W        W24937   1.179  10.123   5.103 -0.1310  0.4795 -0.5620
 9321W        W24938  13.802   5.035   0.466 -0.0305  0.1653  0.4575
 9322W        W24939  14.516  13.098  15.568  0.1339 -0.0671 -0.0863
 9323W        W24940   9.487  16.248   0.707  0.2281 -0.0063 -0.2028
 9324W        W24941   0.665   7.788   6.068  0.2163  0.0905  0.1250
 9325W        W24942   1.630   2.754  16.355 -0.0946  0.3547  0.0856
 9326W        W24943  14.465   3.954  14.841  0.0538  0.0928  0.0577
 9327W        W24944   0.722   0.620  14.966 -0.2550 -0.0165 -0.1671
 9328W        W24945  15.648   0.055   1.437  0.1778  0.0648 -0.1053
 9329W        W24946   2.800  15.096  14.509  0.1633 -0.1162 -0.0557
 9330W        W24947  10.432   7.242   4.272  0.2550  0.1920  0.2167
 9331W        W24948  15.554   3.878  12.614  0.2622  0.1179 -0.1313
 9332W        W24949  14.670  16.094   5.397 -0.1040  0.2779 -0.0790
 9333W        W24950   5.631   6.017   3.074 -0.0340  0.3128 -0.0293
 9334W        W24951   8.795  14.460  13.243  0.1906  0.2454  0.1811
 9335W        W24952  13.676   0.349  11.568  0.0031  0.0901  0.0489
 9336W        W24953   7.104   9.088   0.613  0.0170 -0.3138  0.1033
 9337W        W24954   7.456   3.961  11.894  0.0607 -0.3579  0.0726
 9338W        W24955  16.516  17.007  15.171  0.0097 -0.1930  0.0227
 9339W        W24956   5.470  12.570  13.149  0.0348  0.4112  0.1597
 9340W        W24957  14.916  10.178  13.646 -0.0999 -0.4044  0.1238
 9341W        W24958   1.129  15.679  14.402 -0.2402 -0.0412  0.3241
 9342W        W24959  16.677  14.183   2.800  0.4496 -0.1679 -0.0853
 9343W        W24960  11.731   6.983  14.544  0.1384  0.0893  0.2138
 9344W        W24961   2.086   5.753  14.326 -0.2113  0.0992  0.1318
 9345W        W24962   4.023  10.205  14.447  0.1183  0.0303 -0.0007
 9346W        W24963   5.460  14.251  11.875 -0.1348  0.1376  0.1098
 9347W        W24964   2.957  10.517   2.894  0.2706 -0.1442  0.1415
 9348W        W24965  16.057  10.578   0.503  0.2037 -0.1015  0.2182
 9349W        W24966   0.270   7.702  11.864  0.0728  0.0945  0.0151
 9350W        W24967  10.473   9.408   3.227 -0.2445  0.3682 -0.0136
 9351W        W24968   8.655   2.963   3.902  0.3475  0.1606 -0.0614
 9352W        W24969   2.522   3.967   3.854 -0.1911  0.4009  0.2042
 9353W        W24970  16.074  16.224   1.491 -0.1308  0.1832 -0.0045
 9354W        W24971  15.476  15.703   1.639 -0.0699 -0.0303 -0.0907
 9355W        W24972  11.568   6.424  13.656 -0.0723  0.2730  0.3133
 9356W        W24973  16.485   2.425  14.823  0.0270  0.1981  0.2856
 9357W        W24974  10.035   3.475  11.488  0.2924 -0.3871  0.1395
 9358W        W24975  17.567   1.438   4.397  0.1888 -0.1460  0.1352
 9359W        W24976   7.763   4.457   5.357  0.0072 -0.3465  0.1313
 9360W        W24977  17.662   6.306   0.471 -0.0144  0.1507  0.1504
 9361W        W24978  16.633  13.574   4.331  0.3187  0.1071  0.2648
 9362W        W24979  11.554   5.982  12.355 -0.1318 -0.0363 -0.2102
 9363W        W24980  17.568   6.707   2.930 -0.1592 -0.0744 -0.2245
 9364W        W24981  17.798  16.586   0.813  0.0353  0.0864 -0.3369
 9365W        W24982   5.290  14.642   4.609  0.1020  0.0053  0.0290
 9366W        W24983  15.770  10.601   2.527  0.0109 -0.0825 -0.1257
 9367W        W24984   1.918  16.228   3.388  0.1677  0.2638  0.1431
 9368W        W24985  13.576   2.396   0.746  0.0583  0.3632  0.0170
 9369W        W24986   5.937  10.534   4.695  0.0729  0.0722  0.2609
 9370W        W24987  10.798   1.538  14.836  0.0963 -0.0142  0.3265
 9371W        W24988   5.387   0.638   3.051  0.4830  0.0422 -0.1196
 9372W        W24989  11.777  12.228  12.364  0.0006 -0.0497 -0.2043
 9373W        W24990  15.472   0.272   0.353  0.0834  0.1444 -0.0759
 9374W        W24991   5.535   8.317   1.592  0.0093  0.0348 -0.3068
 9375W        W24992  15.763   6.515  14.923 -0.0071  0.4006  0.3184
 9376W        W24993  14.034  16.336   2.305 -0.4149  0.3364  0.0783
 9377W        W24994   0.811   5.665   4.458  0.0649  0.2889  0.0482
 9378W        W24995   4.903  12.137   3.522 -0.1050  0.2297  0.0717
 9379W        W24996  12.721  13.059  13.645  0.1579  0.0082 -0.1775
 9380W        W24997  13.852  11.532  12.480 -0.3550  0.3556  0.0594
 9381W        W24998  11.367   4.297   2.185  0.0001 -0.0891 -0.1327
 9382W        W24999   0.362  16.308  16.523  0.0139 -0.0313 -0.0873
 9383W        W25000  13.905   3.777   4.380 -0.2091 -0.0174  0.0907
 9384W        W25001  10.479   9.931   3.486  0.0596  0.0073 -0.0271
 9385W        W25002  16.526   3.271  15.582 -0.0832 -0.0815  0.1028
 9386W        W25003   6.334  17.503   1.858  0.3324  0.1013  0.1242
 9387W        W25004  15.996   3.901  12.693 -0.1791 -0.0401  0.0446
 9388W        W25005   5.205   9.594   5.092  0.0189 -0.3479 -0.0938
 9389W        W25006   1.808   0.134   1.219 -0.2191  0.0215 -0.1009
 9390W        W25007  12.467   0.322  16.329  0.1174 -0.3298  0.1456
 9391W        W25008   8.159  12.882   6.016 -0.0019 -0.4086  0.3853
 9392W        W25009   0.600  16.846   6.367  0.0103 -0.0632 -0.1229
 9393W        W25010   9.941   7.590   2.141  0.0697 -0.0416  0.2531
 9394W        W25011  11.331  10.234  15.023 -0.0530  0.0465 -0.0954
 9395W        W25012  15.975  13.678  16.590  0.2115 -0.0112  0.3503
 9396W        W25013  16.977  15.132  12.193 -0.0139 -0.1716  0.0857
 9397W        W25014   9.552   3.447   3.225 -0.2105  0.3776 -0.0913
 9398W        W25015  14.525  11.599  14.030 -0.1487 -0.1756 -0.0682
 9399W        W25016   1.210  10.534   0.629  0.0216 -0.1319  0.0732
 9400W        W25017   8.625  11.375   2.017 -0.0725 -0.2484  0.0631
 9401W        W25018   1.784  11.857  12.971  0.3769  0.1551 -0.1254
 9402W        W25019  14.480  16.189  15.794 -0.2160  0.0687  0.1081
 9403W        W25020  15.161   7.951   0.841  0.1573  0.1016 -0.1497
 9404W        W25021  15.507  17.092  15.562  0.0054 -0.1561 -0.3011
 9405W        W25022   3.008   8.251   1.748 -0.1625  0.1176 -0.0350
 9406W        W25023   5.954  15.925   3.228 -0.0693  0.0470  0.0258
 9407W        W25024   5.081   4.987  16.355 -0.0691  0.1665  0.4886
 9408W        W25025   8.110   9.726  14.834  0.0405  0.0314 -0.0473
 9409W        W25026  15.904   3.480  14.427  0.1384 -0.2522 -0.0291
 9410W        W25027  11.148   3.919  12.861  0.0969 -0.0516 -0.1584
 9411W        W25028  16.824  10.116   3.036 -0.0741 -0.1238  0.0244
 9412W        W25029   6.852  16.171   4.388  0.0697  0.1888  0.1347
 9413W        W25030  10.781  15.042   4.276 -0.1944 -0.2375 -0.1643
 9414W        W25031  14.576  13.295   4.422  0.0744  0.0873 -0.1123
 9415W        W25032  10.743  14.404  16.769  0.3039 -0.2974  0.1420
 9416W        W25033  12.909  11.077  16.287 -0.0630  0.0714 -0.0118
 9417W        W25034   5.800   7.629   4.396 -0.0939  0.2234 -0.1771
 9418W        W25035   7.422   0.263   5.158  0.1513 -0.0662 -0.1251
 9419W        W25036   0.528  14.994   6.524 -0.1107  0.1571  0.0319
 9420W        W25037   2.348  13.516  14.695  0.1798 -0.2544  0.1208
 9421W        W25038   8.657   1.833  11.205 -0.0672  0.0210  0.0072
 9422W        W25039  11.569   6.679   3.109  0.0310  0.2475  0.0995
 9423W        W25040  12.697  10.277  14.087  0.0164 -0.0865  0.0193
 9424W        W25041   3.678   6.552  14.802 -0.0756 -0.4039  0.0402
 9425W        W25042   0.444   6.670  11.960 -0.1651 -0.1860 -0.0077
 9426W        W25043  11.101  15.420  13.780 -0.1960 -0.0649  0.0928
 9427W        W25044  13.498   0.965  13.361 -0.0998  0.0036  0.0975
 9428W        W25045   6.357   9.104  13.039  0.1269 -0.1439  0.0416
 9429W        W25046  11.190   2.999  15.837 -0.0556 -0.1866 -0.1232
 9430W        W25047   3.417  11.429   0.953 -0.1296 -0.0361  0.0022
 9431W        W25048  11.450   9.563   5.200 -0.2949  0.0456 -0.0909
 9432W        W25049   4.287  16.221  11.841 -0.7468  0.1985  0.1139
 9433W        W25050   2.029  13.909   5.211 -0.3061  0.0639  0.0041
 9434W        W25051  14.760  15.641  14.987 -0.0636 -0.1601 -0.1463
 9435W        W25052   0.141   1.651   2.907  0.0120 -0.1340 -0.0826
 9436W        W25053   5.227   2.755   2.822  0.1949 -0.0242 -0.0601
 9437W        W25054   6.372   6.561  12.320 -0.0612 -0.1691  0.0500
 9438W        W25055   5.569  17.187  11.761 -0.0596  0.0151  0.3403
 9439W        W25056   5.257  15.292  10.660  0.1938 -0.0379  0.1018
 9440W        W25057   5.210   5.501  14.132  0.1637  0.3059  0.0884
 9441W        W25058   3.717   3.450  12.858 -0.2109  0.2014 -0.0088
 9442W        W25059  13.541  12.701   5.528 -0.2162  0.0759  0.1835
 9443W        W25060  12.111  11.025   0.466 -0.1632  0.0876 -0.2437
 9444W        W25061   9.585   1.229   2.706 -0.0285 -0.1148 -0.0392
 9445W        W25062  10.887   9.088   2.484  0.0821  0.0876  0.0229
 9446W        W25063   1.254   7.779  12.471 -0.2433 -0.1544  0.1225
 9447W        W25064  15.669   6.407  14.071 -0.0479  0.1089  0.1347
 9448W        W25065  16.091   0.794   0.010 -0.3777  0.0856 -0.0468
 9449W        W25066  15.007   1.202   1.024 -0.0292 -0.0001 -0.0393
 9450W        W25067   4.012   7.852   2.295 -0.3660 -0.1556  0.0013
 9451W        W25068  15.668  11.631   4.130 -0.0010  0.0053 -0.0338
 9452W        W25069   6.996   0.314   4.007 -0.1146  0.2069  0.1801
 9453W        W25070   4.574   0.731  14.200 -0.3440 -0.2928  0.1945
 9454W        W25071  14.579   2.501  14.739 -0.2725  0.1931  0.0178
 9455W        W25072  11.315   6.961  14.259  0.1677  0.0574  0.0224
 9456W        W25073  14.302   0.381  12.864 -0.3721 -0.2472  0.1831
 9457W        W25074   0.478  14.278  12.750 -0.1788 -0.0576  0.3869
 9458W        W25075  13.760  14.061   3.656  0.0251 -0.3916  0.2876
 9459W        W25076  14.581   2.595   0.001 -0.0977 -0.1535 -0.0520
 9460W        W25077   5.943  12.775  11.654 -0.1311 -0.0051 -0.0053
 9461W        W25078  15.561  11.317   3.660  0.0501  0.0411 -0.4347
 9462W        W25079  15.622  17.796  11.489  0.1092  0.0927 -0.0524
 9463W        W25080  10.064   8.991   4.564 -0.4060  0.0209  0.0137
 9464W        W25081  10.653   9.500   5.530  0.3658 -0.0539 -0.2749
 9465W        W25082  15.248   4.717   1.826  0.1151 -0.1420  0.1426
 9466W        W25083  15.832   8.346   1.415 -0.0941  0.0168 -0.2889
 9467W        W25084  11.655   3.525  12.434  0.0675  0.0549  0.0553
 9468W        W25085  10.675   0.168  10.794 -0.1149  0.0383  0.0426
 9469W        W25086   7.911   1.334  15.301  0.0019 -0.2159 -0.1914
 9470W        W25087   2.225   8.338  16.689  0.0589 -0.2125 -0.3082
 9471W        W25088   8.497   8.636   5.423  0.1577 -0.1205 -0.3801
 9472W        W25089  14.466   7.500  12.845 -0.0615  0.1081 -0.2249
 9473W        W25090  16.041   8.988   4.588 -0.0642 -0.0432 -0.4590
 9474W        W25091   3.339  14.321  12.429  0.1356  0.2084 -0.0233
 9475W        W25092  10.197   2.407   1.390 -0.0805  0.1024 -0.1390
 9476W        W25093   6.321   3.605   0.906 -0.0128  0.0570 -0.1008
 9477W        W25094  14.180  16.483  13.803 -0.1066 -0.4234  0.0581
 9478W        W25095  13.576  13.260   5.762  0.0545  0.0241 -0.1766
 9479W        W25096  16.674   6.319  15.078 -0.0276 -0.2630  0.2845
 9480W        W25097   4.843  10.932  14.553  0.0644 -0.0087  0.0218
 9481W        W25098  11.990  15.542  13.322  0.3036 -0.1395  0.0241
 9482W        W25099  14.366   5.682  15.511 -0.0532 -0.0675  0.0411
 9483W        W25100   8.584  12.090  16.054 -0.1452 -0.4677 -0.2508
 9484W        W25101   5.446  15.467   4.628  0.1157  0.1420  0.1316
 9485W        W25102   3.879  13.276  14.276  0.0023 -0.1985  0.2417
 9486W        W25103   2.781  17.306  13.220 -0.1299 -0.1742 -0.3241
 9487W        W25104  10.205  14.759   4.647 -0.1484  0.3794 -0.0408
 9488W        W25105   9.681  15.190  14.830  0.0971  0.0293  0.3844
 9489W        W25106   3.059  12.733   5.393  0.0546 -0.3170  0.1427
 9490W        W25107   6.619  10.984   5.476  0.1375 -0.0231  0.2517
 9491W        W25108  12.205   5.170   4.078  0.2392 -0.1091  0.0816
 9492W        W25109   8.167   1.817   0.488  0.3937 -0.0782 -0.0979
 9493W        W25110  17.242   4.413  16.147  0.1971 -0.0508  0.3419
 9494W        W25111  10.253  10.999   2.520 -0.5414  0.3110 -0.1166
 9495W        W25112  16.317   9.208   0.789 -0.0344 -0.0386 -0.2009
 9496W        W25113   9.075  16.166   4.683  0.1457 -0.3650  0.1283
 9497W        W25114  14.338   0.895  16.800 -0.1904 -0.0019  0.1500
 9498W        W25115  12.029   5.038  13.589 -0.1625 -0.1403  0.0152
 9499W        W25116  13.639   7.935   0.695 -0.0682  0.0415 -0.0870
 9500W        W25117   5.010  15.533  10.976  0.0265 -0.0534 -0.1660
 9501W        W25118   0.802   0.298  15.347 -0.0137  0.1088 -0.1033
 9502W        W25119   7.505  13.835   5.342  0.1308  0.2621 -0.0825
 9503W        W25120   2.779  10.061   2.952  0.1111 -0.1171 -0.1275
 9504W        W25121  12.478   6.328  13.577 -0.1775  0.0083 -0.3653
 9505W        W25122   5.118   5.443   1.451  0.6036 -0.2170  0.1431
 9506W        W25123   1.124   8.410  12.232 -0.0408 -0.2044  0.1587
 9507W        W25124   7.875   4.073   6.770  0.2195  0.0420  0.0520
 9508W        W25125  15.100  12.788  12.177 -0.1782  0.1271 -0.0368
 9509W        W25126  15.529   2.331   0.180 -0.5737  0.2207  0.1960
 9510W        W25127   7.621   4.068  13.803 -0.0106 -0.3753  0.0542
 9511W        W25128   9.548  15.167  12.947  0.0068 -0.0215  0.3784
 9512W        W25129   5.089  13.683  11.412 -0.3887 -0.0495 -0.1412
 9513W        W25130  16.867  16.860   4.862 -0.0289 -0.0288 -0.1926
 9514W        W25131   2.548   6.410  13.416 -0.2521 -0.1333 -0.2958
 9515W        W25132   1.811   2.969   5.020  0.4432  0.3504 -0.1226
 9516W        W25133  14.741  15.426  12.633 -0.1585 -0.0351  0.0734
 9517W        W25134   0.435  14.118  12.279  0.1147  0.2426 -0.0130
 9518W        W25135  14.966  12.407  14.861  0.0489 -0.0238 -0.0223
 9519W        W25136  16.450   8.285  12.162  0.3206  0.1520  0.0102
 9520W        W25137  13.536   7.492  12.181  0.0674  0.0003 -0.0919
 9521W        W25138  10.452   9.126   0.198 -0.1648 -0.1683  0.2360
 9522W        W25139  13.508   6.231  12.434  0.1797  0.2449 -0.0593
 9523W        W25140  10.272   3.734  12.880 -0.1078 -0.0830  0.1782
 9524W        W25141   8.290   1.850   3.064  0.1860  0.0159 -0.0217
 9525W        W25142   7.553  17.123  14.357 -0.2803 -0.1451  0.0131
 9526W        W25143  14.121   4.839   4.127  0.0090  0.0034  0.3968
 9527W        W25144   6.845  13.461  13.148 -0.1903  0.1206  0.0419
 9528W        W25145   7.388   8.458   4.269 -0.1069  0.0146 -0.4617
 9529W        W25146  10.122   7.005   0.986  0.1337  0.2064 -0.0472
 9530W        W25147  12.556  11.151   0.705  0.3875 -0.2745 -0.0622
 9531W        W25148   4.131  14.212   4.095  0.0892  0.2630  0.2410
 9532W        W25149   5.276   3.465   3.385  0.1334 -0.0218  0.0121
 9533W        W25150   0.852  11.793   1.982  0.2176  0.3442  0.1499
 9534W        W25151  13.150   8.166  11.768 -0.1279  0.0865 -0.0792
 9535W        W25152  12.136  14.278   3.646 -0.1432 -0.0630  0.2560
 9536W        W25153   1.272  14.312   4.699  0.1430  0.2618  0.0700
 9537W        W25154  14.263  16.256   3.230  0.3764 -0.2606 -0.0694
 9538W        W25155  15.930  14.868  16.250 -0.0016 -0.0353  0.0009
 9539W        W25156   3.817   2.982   2.411  0.0448 -0.2182  0.0914
 9540W        W25157  17.218  12.069  10.470  0.0281 -0.0440  0.1098
 9541W        W25158   8.423  11.093  15.153 -0.1222  0.2931 -0.1320
 9542W        W25159  11.391  16.551   5.217 -0.1579 -0.2620 -0.0743
 9543W        W25160  16.570  15.703   5.005  0.1690 -0.0317 -0.1374
 9544W        W25161   0.419   5.994  13.174  0.1215 -0.1218 -0.0958
 9545W        W25162   0.007  17.244  16.159  0.0690  0.0188 -0.3916
 9546W        W25163  12.068  17.715  14.462  0.1591  0.1412 -0.1336
 9547W        W25164  13.485   4.933   2.854  0.0870  0.1021 -0.1653
 9548W        W25165  10.606   1.802   0.770 -0.0037 -0.0960 -0.0264
 9549W        W25166   3.559   9.983  12.822 -0.1735  0.0317 -0.2506
 9550W        W25167  14.031   5.220  15.269  0.0559 -0.0907 -0.0872
 9551W        W25168   7.527   2.851  15.409  0.1833 -0.0481 -0.0329
 9552W        W25169  14.109  11.262  13.822  0.0149  0.0064  0.0247
 9553W        W25170   0.355  13.375   4.601  0.1647 -0.2270  0.3609
 9554W        W25171  15.536   9.741  16.134  0.1639  0.0589 -0.1095
 9555W        W25172   4.416   1.563   4.287 -0.0200 -0.1455 -0.2901
 9556W        W25173   8.825  11.385  11.914 -0.0580 -0.0281 -0.2979
 9557W        W25174   8.487   1.324   0.505 -0.0319  0.0466  0.3120
 9558W        W25175   7.469   8.981   4.118  0.0434  0.1972  0.0181
 9559W        W25176  10.851  13.237  14.601  0.0921  0.1754  0.2541
 9560W        W25177  11.320  14.475  14.151  0.3053 -0.1221 -0.3395
 9561W        W25178   9.016   0.920   3.302 -0.0240 -0.1309 -0.1790
 9562W        W25179   1.371   4.493  16.802 -0.3232  0.1602  0.0301
 9563W        W25180   3.194  12.560   2.141  0.1837  0.2069 -0.2349
 9564W        W25181   1.687   7.181  11.409  0.0569  0.1266  0.1583
 9565W        W25182   5.025   6.141   5.848 -0.1434 -0.3194  0.0947
 9566W        W25183  14.374   3.581   0.921 -0.1145 -0.0296  0.0120
 9567W        W25184  15.130   0.235  11.910  0.1054  0.1813  0.0451
 9568W        W25185  10.989   7.352   0.796  0.2866  0.1904  0.2331
 9569W        W25186  10.581   0.557  11.409  0.3912  0.1545  0.2710
 9570W        W25187  16.890   7.976  16.056 -0.1569  0.3840  0.3265
 9571W        W25188  12.988   9.542   4.268  0.2034 -0.0316  0.0296
 9572W        W25189  13.066   7.536  16.211  0.0325 -0.1210  0.1866
 9573W        W25190   2.182  11.551   4.352  0.5821 -0.1025 -0.1958
 9574W        W25191  13.272   5.681  16.392 -0.1098  0.0206  0.2047
 9575W        W25192   3.235   8.848   5.105 -0.0654 -0.0495  0.0314
 9576W        W25193  10.861   2.618   5.110 -0.2604 -0.0037 -0.2958
 9577W        W25194  14.343   8.822   5.558 -0.0983 -0.1777 -0.1110
 9578W        W25195  10.101  16.596   5.512 -0.0415 -0.0790 -0.0803
 9579W        W25196  17.444   4.778   2.573 -0.0568 -0.0225  0.0335
 9580W        W25197   6.892   3.421  14.870  0.0083 -0.0957  0.2386
 9581W        W25198   0.619   0.917  11.484 -0.0669  0.1066  0.3341
 9582W        W25199  16.960  12.863   2.440  0.1983 -0.0464 -0.0575
 9583W        W25200   1.899  12.730   1.003  0.4255  0.1206 -0.1168
 9584W        W25201  11.246  11.107  16.444  0.2965  0.1105 -0.1111
 9585W        W25202  13.696  17.344  13.436  0.0951  0.2022  0.0247
 9586W        W25203   7.535  15.815  16.650 -0.2044  0.4151 -0.2813
 9587W        W25204   9.129   2.972   4.723  0.4049 -0.2117 -0.2537
 9588W        W25205   0.837   5.903   2.305 -0.0720  0.0238  0.0245
 9589W        W25206   0.444   1.798  15.395  0.0381 -0.1087 -0.0084
 9590W        W25207   8.066  11.745   1.279 -0.0618  0.2023  0.2977
 9591W        W25208   3.041   1.629  10.357  0.0569 -0.2257  0.1368
 9592W        W25209   9.456  15.913   4.844 -0.0575 -0.0597 -0.1420
 9593W        W25210   5.891   4.646   5.967  0.2737 -0.0585 -0.1975
 9594W        W25211  16.622   0.466   4.502  0.1000  0.2804  0.0731
 9595W        W25212   7.064   1.815  12.105  0.2812  0.0562  0.0325
 9596W        W25213  15.332   3.414   3.730 -0.0967 -0.1356 -0.2587
 9597W        W25214   2.857   3.667  12.135 -0.0347  0.0366  0.2187
 9598W        W25215   8.979  13.363  15.718 -0.0471 -0.1141 -0.0382
 9599W        W25216  11.627   9.891   0.201  0.0632 -0.2707 -0.0166
 9600W        W25217  15.256   9.028  13.449 -0.2431 -0.0233  0.2403
 9601W        W25218   1.568   9.211  14.530  0.0656  0.1117  0.0790
 9602W        W25219  15.193  11.294   2.406 -0.0397 -0.2718 -0.2045
 9603W        W25220  15.655   4.298  13.028  0.1617 -0.3458  0.3049
 9604W        W25221   6.281  13.225  11.831  0.3368 -0.0874  0.2777
 9605W        W25222   3.622   7.243  14.136  0.1811 -0.2579  0.0133
 9606W        W25223   5.114   0.840   1.904 -0.4893 -0.1384 -0.2967
 9607W        W25224  15.782   1.880  13.982 -0.0249 -0.0624  0.0141
 9608W        W25225  15.634   8.998  12.590  0.0087  0.1217 -0.1177
 9609W        W25226   1.608  16.329  12.611 -0.0084  0.1025  0.0253
 9610W        W25227   7.827   6.201  12.712  0.1469 -0.0290 -0.1646
 9611W        W25228  17.650   1.163   3.956  0.0540  0.4278  0.0509
 9612W        W25229  14.913  15.677  16.153 -0.1600 -0.2800  0.2174
 9613W        W25230   9.676  15.075   3.842  0.0973 -0.0077 -0.2291
 9614W        W25231  16.577  17.042  13.530  0.1402 -0.1262  0.1508
 9615W        W25232  11.734   5.133   3.939 -0.0632 -0.1224  0.0290
 9616W        W25233  13.683  12.629  12.864  0.2002  0.3488  0.0355
 9617W        W25234   4.994   9.822  13.211 -0.1204  0.0427  0.1210
 9618W        W25235  14.299   5.585   1.427  0.1060 -0.2048  0.1454
 9619W        W25236  17.392  11.173  11.807 -0.0346 -0.2759  0.0647
 9620W        W25237   1.089  15.981   0.786 -0.4440  0.1584  0.0464
 9621W        W25238   7.947  17.422   1.899 -0.2353 -0.2209  0.2632
 9622W        W25239  10.315   3.271  14.381 -0.2068 -0.1922  0.0087
 9623W        W25240   7.988   9.441   3.899  0.0245  0.2078  0.0125
 9624W        W25241  16.485  11.039  13.309  0.0493 -0.2570 -0.0266
 9625W        W25242   9.952  15.281  14.410  0.0783  0.1117  0.1708
 9626W        W25243   7.583  11.802   5.756  0.1680  0.2270 -0.1144
 9627W        W25244   8.578  12.441   3.715  0.0352  0.0629  0.0503
 9628W        W25245  13.555   9.228  14.485  0.3042  0.0428 -0.0381
 9629W        W25246   7.949  11.355  14.466  0.2252 -0.2362  0.0931
 9630W        W25247  11.905  14.395  13.414  0.0166  0.0608  0.0336
 9631W        W25248  17.863   6.752   0.769 -0.0520 -0.0196  0.0853
 9632W        W25249  12.325   3.933   0.883 -0.0187 -0.2821 -0.2178
 9633W        W25250  12.278   9.662   0.779 -0.3617 -0.0776 -0.0017
 9634W        W25251   4.481   6.913  14.185  0.0314 -0.1305 -0.1396
 9635W        W25252  13.391  16.332   4.398  0.1153  0.1883  0.1475
 9636W        W25253   2.758   2.702   0.381  0.3231  0.3294 -0.2450
 9637W        W25254  13.170   2.441  13.296  0.1794  0.1316 -0.0269
 9638W        W25255   0.302   8.253  15.371  0.0892 -0.3640 -0.0999
 9639W        W25256   4.504   2.255   3.622  0.1316  0.0623  0.2392
 9640W        W25257   3.943   1.218   2.172  0.1358  0.0259 -0.2454
 9641W        W25258   1.538   5.162  16.174 -0.1380 -0.0525 -0.4879
 9642W        W25259   2.120   8.643  13.525  0.0916 -0.0614  0.4387
 9643W        W25260   7.068   8.732   2.706  0.0146 -0.1264  0.0582
 9644W        W25261   2.822  15.097   2.705 -0.0797 -0.0950 -0.1256
 9645W        W25262  12.619  10.871  12.928  0.0616  0.0348 -0.0261
 9646W        W25263  13.170   7.697   1.621  0.0263  0.0656 -0.0242
 9647W        W25264   2.963   5.578   1.220  0.2688 -0.3158  0.0792
 9648W        W25265   9.887   8.435   0.453  0.1292 -0.2170 -0.1622
 9649W        W25266  17.856   1.019  15.225 -0.0790 -0.0815 -0.2505
 9650W        W25267  10.368   6.307   1.581  0.0205 -0.1611 -0.1536
 9651W        W25268   4.833  12.468  15.680 -0.4286  0.0723 -0.1325
 9652W        W25269  17.521  11.804   5.837 -0.2087  0.0666  0.3187
 9653W        W25270  10.283  12.355  14.395  0.1341  0.0982  0.0677
 9654W        W25271  10.593   9.659   4.204  0.1406 -0.1107 -0.1110
 9655W        W25272   0.413   0.996  13.554  0.1041  0.0309  0.2469
 9656W        W25273   0.573  12.401  16.462 -0.0181 -0.1822 -0.2322
 9657W        W25274   5.210   4.258  11.645 -0.0876 -0.0285 -0.2065
 9658W        W25275  13.471  13.802  13.506 -0.4812  0.1960 -0.0956
 9659W        W25276   7.486   6.894   3.908 -0.2157 -0.2336 -0.1890
 9660W        W25277   9.254   9.536   6.062 -0.0847 -0.0500 -0.0036
 9661W        W25278  12.730   2.077   0.404 -0.2286  0.0072  0.2256
 9662W        W25279  16.001   5.963  13.965 -0.0583 -0.2895  0.6082
 9663W        W25280   0.353  12.448   4.895  0.0191  0.1839 -0.0275
 9664W        W25281   1.568   7.403  13.677  0.1512 -0.1190  0.0724
 9665W        W25282   5.296  14.729  16.325 -0.0649  0.1447  0.2864
 9666W        W25283   9.058  15.608  14.656 -0.0087 -0.0460 -0.2888
 9667W        W25284   3.593  17.199   0.247  0.1625  0.1529 -0.0412
 9668W        W25285  11.419  11.737   4.914  0.0338 -0.0554  0.1384
 9669W        W25286  12.361   3.371   0.305  0.2048 -0.1936 -0.0878
 9670W        W25287   7.660   7.544   0.080 -0.0443 -0.1282  0.1459
 9671W        W25288   4.979  15.180  13.196 -0.1028  0.1798 -0.0154
 9672W        W25289   7.971  16.524  16.531  0.0673  0.1545  0.2490
 9673W        W25290  10.503  14.670   0.572 -0.0912  0.0359 -0.2876
 9674W        W25291  11.401   5.826  16.300  0.1657 -0.1157 -0.3171
 9675W        W25292  16.048  11.297  12.007  0.7294  0.0514 -0.2762
 9676W        W25293  17.216  13.109   1.624 -0.0795  0.0122  0.0550
 9677W        W25294   9.142   1.299  14.231  0.2013  0.2885  0.3150
 9678W        W25295   8.161  14.032  11.492 -0.2871 -0.0666 -0.2736
 9679W        W25296   5.815   6.598  12.205 -0.0903  0.0896  0.0447
 9680W        W25297  11.016   8.697  15.632  0.1574  0.2682  0.1112
 9681W        W25298  10.821  14.738  14.202  0.0737  0.0289  0.2980
 9682W        W25299   2.953   6.082   3.542 -0.0278  0.3525 -0.3020
 9683W        W25300  10.829   3.068   3.430 -0.0075  0.1069  0.3237
 9684W        W25301  14.116  17.641  12.280 -0.1635 -0.0285  0.0886
 9685W        W25302   4.013  17.716   0.795 -0.1070  0.0713 -0.0647
 9686W        W25303   1.163   1.415   4.450 -0.0758 -0.1917  0.1078
 9687W        W25304   7.885  12.385   4.423  0.0761  0.0454  0.0595
 9688W        W25305  17.348  13.469  16.816 -0.1581  0.0627  0.4620
 9689W        W25306  16.926  11.514   4.652  0.0287 -0.0511  0.0912
 9690W        W25307  17.432  11.545   2.183 -0.1459  0.1712  0.0340
 9691W        W25308  12.644  12.098   1.875 -0.0410  0.3033 -0.0198
 9692W        W25309   8.042   8.568  12.923 -0.0371  0.0254  0.1341
 9693W        W25310  15.976   6.008   0.644  0.1499  0.2039  0.2441
 9694W        W25311  11.401   3.744  15.104  0.1664 -0.1400 -0.0005
 9695W        W25312  12.856   9.079  15.960  0.0167  0.1795 -0.0611
 9696W        W25313  16.110   5.250  14.127 -0.1313 -0.2617  0.0841
 9697W        W25314  12.157  16.870   3.182  0.2782 -0.1929  0.2693
 9698W        W25315   2.045  15.865  12.878  0.2600  0.3092 -0.0085
 9699W        W25316   0.890  13.161  11.339  0.0548 -0.0832 -0.1361
 9700W        W25317  12.038  17.004  16.366 -0.0792  0.0762 -0.1148
 9701W        W25318   6.393   9.304  14.722  0.1852 -0.0598 -0.1078
 9702W        W25319  15.647   9.153   1.288 -0.1120 -0.0184  0.0787
 9703W        W25320   8.088  14.821   3.000 -0.4692  0.1757  0.1213
 9704W        W25321   5.126  10.281  16.810  0.3754  0.2312 -0.0908
 9705W        W25322  11.638  14.803  13.254 -0.0106 -0.1620 -0.0324
 9706W        W25323   7.882  12.522   0.904  0.0943 -0.2533 -0.0949
 9707W        W25324  17.573   9.127   5.990 -0.0476  0.0005 -0.1781
 9708W        W25325   8.605  10.519  12.721 -0.0479  0.0019  0.1552
 9709W        W25326  14.492   6.734   3.948  0.0200 -0.0949 -0.0366
 9710W        W25327  14.584   0.467   2.584 -0.0834 -0.0190  0.1999
 9711W        W25328   4.589   1.500   0.840 -0.1034  0.1453  0.1762
 9712W        W25329   9.114  12.751   2.126  0.1495  0.0656 -0.2005
 9713W        W25330   1.820   3.403   0.665  0.0839  0.0337  0.1138
 9714W        W25331   9.657   1.012   2.261  0.1429  0.1202 -0.2062
 9715W        W25332  12.199   1.243  16.375  0.1868  0.0913 -0.0496
 9716W        W25333   2.235   2.512   0.984 -0.0260 -0.2141 -0.1257
 9717W        W25334  15.507   0.125  16.717 -0.0694 -0.0043 -0.0390
 9718W        W25335   1.469   6.572   1.997  0.1508 -0.0213 -0.2469
 9719W        W25336   4.703   9.680   0.145  0.1820  0.0537 -0.1718
 9720W        W25337   1.178  16.394   3.932 -0.2216 -0.1525  0.0213
 9721W        W25338   7.873   5.434   3.415  0.3415  0.1952  0.0291
 9722W        W25339   7.534  10.422   1.437  0.1991 -0.0373 -0.0539
 9723W        W25340  15.797  15.245   5.364 -0.2194  0.3268  0.3004
 9724W        W25341   8.754  17.642  14.353 -0.0473 -0.0389  0.2621
 9725W        W25342   2.910  17.750   2.918  0.0691 -0.3306 -0.0345
 9726W        W25343  14.710   3.053  13.271  0.0321  0.0001  0.0169
 9727W        W25344   5.506   5.162   3.014 -0.0489  0.1401  0.0099
 9728W        W25345  13.539   0.844   0.623  0.0557 -0.1010 -0.0990
 9729W        W25346   1.215  10.012   2.306 -0.3455 -0.1269  0.1068
 9730W        W25347  11.464   5.502   4.167  0.1360 -0.1194  0.2383
 9731W        W25348  15.322   5.411   4.896 -0.0597 -0.3989  0.0436
 9732W        W25349  11.398  14.211  13.670  0.4169 -0.3016  0.2101
 9733W        W25350   1.578   8.177   6.621 -0.4877 -0.0576 -0.0915
 9734W        W25351  15.096   8.854  14.639 -0.0285  0.1820  0.1374
 9735W        W25352  14.670   2.080   2.856 -0.1225 -0.1641  0.3396
 9736W        W25353  15.431  14.282   3.065 -0.0429 -0.0323 -0.0634
 9737W        W25354  15.660  15.384  15.749  0.3511  0.0364 -0.1903
 9738W        W25355   6.132   0.485   3.542 -0.0759 -0.1268 -0.0702
 9739W        W25356   5.676   5.953  14.658 -0.1312  0.0072 -0.0400
 9740W        W25357   4.840   3.832   2.564 -0.2086  0.1880  0.0511
 9741W        W25358  13.891  15.283   0.043  0.1341 -0.2283  0.0231
 9742W        W25359   1.528  14.709  14.441 -0.0744 -0.0039  0.1330
 9743W        W25360  12.554   1.215  16.028 -0.0046  0.2072  0.3131
 9744W        W25361  17.699   2.871   5.963 -0.2434  0.2466 -0.3018
 9745W        W25362  12.093  14.072  12.997  0.0549  0.0830  0.0322
 9746W        W25363  12.637   4.349   0.325 -0.1032 -0.0775 -0.2366
 9747W        W25364   8.708   3.890  12.037  0.1112  0.0153 -0.0816
 9748W        W25365   8.443  16.690   5.060 -0.0806 -0.4186 -0.3525
 9749W        W25366  10.412  16.476   3.942 -0.2914  0.1354  0.0185
 9750W        W25367  10.626   1.872   0.284 -0.1684  0.1159 -0.4727
 9751W        W25368   7.035  13.573  14.014  0.2199  0.1645 -0.0762
 9752W        W25369   0.414  13.029  11.480  0.0735  0.1423  0.0649
 9753W        W25370   3.933  12.190  10.501 -0.2949 -0.1067  0.0483
 9754W        W25371  13.189   6.859   2.355  0.0303  0.3531 -0.4528
 9755W        W25372  13.567   9.507  14.951  0.2579 -0.0473  0.0698
 9756W        W25373   7.820  13.820  15.042 -0.2128  0.0669 -0.1551
 9757W        W25374  16.459   5.029   4.960  0.0714  0.4944 -0.0467
 9758W        W25375   0.977   1.047   1.866 -0.1984 -0.1174  0.5065
 9759W        W25376   5.795  11.154  16.539 -0.3481 -0.2049 -0.0015
 9760W        W25377  13.076  11.371   1.430  0.1514  0.2604  0.0303
 9761W        W25378  10.286   8.880  14.446  0.0335  0.2625 -0.3014
 9762W        W25379   2.489  11.482   1.074  0.1966 -0.0046 -0.3333
 9763W        W25380   8.078   8.464  13.428 -0.0132 -0.1456  0.1500
 9764W        W25381   6.093   8.304   5.820 -0.1297  0.3492  0.2006
 9765W        W25382   3.077   4.981  15.053  0.3179  0.3486  0.0603
 9766W        W25383   4.657   4.294  12.866 -0.1024  0.1007  0.2107
 9767W        W25384   8.609   8.206   4.110 -0.3262  0.0495  0.0385
 9768W        W25385   0.003  14.983   1.451  0.1124 -0.1561  0.1493
 9769W        W25386   7.336   7.101  13.627  0.2594 -0.3194 -0.1929
 9770W        W25387   4.945  16.993   2.900 -0.2307 -0.0795  0.0507
 9771W        W25388  12.789  14.476  11.871 -0.2285 -0.1083 -0.1151
 9772W        W25389   9.219   0.580  13.114  0.1946  0.3551 -0.0394
 9773W        W25390   0.808   1.455  12.771  0.0042 -0.0611  0.0498
 9774W        W25391  11.598  12.292   4.843  0.1834 -0.2362  0.2542
 9775W        W25392  16.376   9.321   4.881 -0.3009 -0.0734  0.2973
 9776W        W25393  10.590  14.845   5.036  0.6233  0.0629 -0.0058
 9777W        W25394  13.400  14.891   0.759  0.1619  0.0927 -0.1056
 9778W        W25395  10.767   1.226   3.923 -0.0288 -0.0528 -0.0632
 9779W        W25396  14.200  14.102  15.692  0.1886 -0.1205 -0.0261
 9780W        W25397  10.269   6.848  13.894  0.2123 -0.1208 -0.0290
 9781W        W25398   8.678   4.208  15.140 -0.0380 -0.0809 -0.0740
 9782W        W25399   1.144   9.448   5.779  0.0760  0.2243 -0.0641
 9783W        W25400   0.925  17.847   3.926 -0.0281  0.1803  0.3496
 9784W        W25401   2.808   9.768  14.640 -0.0668 -0.1384 -0.0514
 9785W        W25402  13.937  13.113   4.840 -0.4056  0.0611 -0.0800
 9786W        W25403   3.452  11.008   0.075  0.1411  0.0372 -0.4086
 9787W        W25404   5.902   9.551   4.020  0.0381  0.1671  0.0488
 9788W        W25405  16.153   1.177  11.976 -0.1160  0.1705 -0.2617
 9789W        W25406  13.405   3.298   6.098  0.3316 -0.0628 -0.0242
 9790W        W25407   4.223   0.464  14.951  0.1648 -0.0496 -0.3653
 9791W        W25408  12.175   5.623  12.935 -0.1504  0.0752  0.1436
 9792W        W25409   7.151  15.602   5.533 -0.2939  0.2569  0.2437
 9793W        W25410   8.696   0.068  14.742 -0.2124 -0.2305 -0.0528
 9794W        W25411   6.126   2.942  15.315 -0.0744  0.0044 -0.0012
 9795W        W25412   5.804   0.902   1.597  0.0616  0.0652  0.4725
 9796W        W25413   7.222   2.092   0.232  0.0747  0.0074 -0.1936
 9797W        W25414  16.379   1.375   3.615 -0.0048 -0.0655 -0.1022
 9798W        W25415  15.855  12.318   3.199  0.1725  0.2393 -0.0224
 9799W        W25416   6.813   3.998   0.620  0.1356 -0.0387 -0.0965
 9800W        W25417   8.007  14.314  14.398 -0.3494  0.2775 -0.3049
 9801W        W25418  10.320  17.028  13.795  0.0961 -0.1561 -0.0598
 9802W        W25419   1.650   9.535   3.368 -0.1342  0.4620 -0.1524
 9803W        W25420  17.617  14.568  13.791 -0.1105 -0.0054  0.1627
 9804W        W25421  17.816   8.209   1.203  0.1286 -0.0694  0.1250
 9805W        W25422   3.005  10.992   1.425 -0.0176  0.1568  0.3121
 9806W        W25423   7.802   9.063  15.526 -0.2009 -0.2035 -0.0869
 9807W        W25424   3.231  16.524   0.880  0.1435  0.0996  0.0667
 9808W        W25425  13.121   8.124  14.956  0.0280 -0.0716  0.2492
 9809W        W25426  14.750   4.535   4.572  0.1316  0.2008 -0.3269
 9810W        W25427   5.001   0.282   2.052  0.2750 -0.0419 -0.0797
 9811W        W25428  14.368  14.512  16.002 -0.3306 -0.0003  0.3015
 9812W        W25429   2.740  12.209   5.663  0.0163  0.0777  0.0669
 9813W        W25430   4.749  16.166   4.627 -0.1425 -0.1274  0.3123
 9814W        W25431  13.086  15.584  16.526  0.0168  0.0185  0.2518
 9815W        W25432  11.594  16.067   1.409  0.1968 -0.0871 -0.2794
 9816W        W25433  12.440  14.688  12.199  0.3093 -0.2665  0.1804
 9817W        W25434  14.211   6.313   0.001 -0.1607  0.0036  0.0879
 9818W        W25435   4.883  15.478  11.746  0.0446 -0.0125  0.1547
 9819W        W25436   5.570  12.788  13.591  0.0820 -0.0995 -0.3690
 9820W        W25437   7.384   7.723  16.058 -0.0940 -0.2101 -0.1509
 9821W        W25438  10.199   3.977   4.306 -0.0550  0.1731 -0.2642
 9822W        W25439  11.340   7.478   4.719 -0.0821 -0.1473  0.0158
 9823W        W25440   7.952  14.770   4.804 -0.0907  0.0574 -0.1372
 9824W        W25441   2.862  16.806  13.148 -0.2051  0.3901 -0.1795
 9825W        W25442  10.471   0.596  14.682  0.0737  0.0388  0.3461
 9826W        W25443  14.093   4.551  12.341  0.0333 -0.0373 -0.2000
 9827W        W25444   1.012   7.842  12.898 -0.0549 -0.5242  0.0114
 9828W        W25445   3.868  11.066   0.840 -0.0970 -0.3132 -0.1816
 9829W        W25446   4.959  17.659  13.340 -0.0423 -0.4158 -0.0005
 9830W        W25447   3.084   7.859   0.797 -0.0013 -0.2652 -0.1237
 9831W        W25448   6.008   8.694  13.028 -0.0320  0.1403  0.0531
 9832W        W25449   1.563   3.390  12.687  0.0007 -0.1443 -0.0971
 9833W        W25450  12.389  14.213   0.221  0.0301  0.1806 -0.2473
 9834W        W25451   2.942   8.283  12.560 -0.3225 -0.2486  0.0053
 9835W        W25452   3.401   4.363   3.593  0.2738 -0.0696 -0.2121
 9836W        W25453   1.050  16.933  10.196  0.1882 -0.2496 -0.0629
 9837W        W25454   1.474   6.156  16.166  0.0389  0.1902 -0.2504
 9838W        W25455   4.458  15.069   4.623  0.0859  0.3273 -0.1170
 9839W        W25456  12.788  16.525  16.341  0.0307  0.1969 -0.3587
 9840W        W25457   2.118  11.814  14.911 -0.0585 -0.2074  0.0394
 9841W        W25458   5.486   9.464  15.961  0.0250 -0.4080 -0.0811
 9842W        W25459   2.363   7.490   5.427  0.0495  0.1142  0.1421
 9843W        W25460  13.923  12.218  12.962 -0.1326  0.1940 -0.0156
 9844W        W25461  15.652  11.952   1.368 -0.0432  0.0787  0.1541
 9845W        W25462  10.456   4.990   5.513 -0.0824 -0.0184 -0.2387
 9846W        W25463  17.595   4.577  15.668  0.1911 -0.2574  0.0426
 9847W        W25464   0.839   6.375   6.449 -0.5282 -0.2737 -0.0104
 9848W        W25465   1.804   0.032  12.396 -0.1927 -0.1660 -0.1898
 9849W        W25466  16.389   8.750   0.102  0.3693 -0.3497  0.2849
 9850W        W25467  15.399   9.612  13.361 -0.2761  0.0861 -0.1657
 9851W        W25468  15.437  15.575   2.992 -0.0708 -0.0763  0.2110
 9852W        W25469  10.596  15.591  12.679 -0.3307  0.0237 -0.0770
 9853W        W25470  13.830  16.827  14.176  0.1295 -0.0743 -0.0837
 9854W        W25471  11.130   4.035   3.693  0.0918  0.2126  0.2179
 9855W        W25472   3.868   9.586   0.196  0.4569 -0.2884  0.0249
 9856W        W25473   9.331   7.871  14.935  0.0066  0.0621 -0.1767
 9857W        W25474   5.238   9.863   2.188  0.1766  0.0692 -0.0347
 9858W        W25475   9.787   3.265  14.376  0.0679 -0.1147 -0.0211
 9859W        W25476  17.612  16.397   5.589  0.3771  0.0036 -0.0837
 9860W        W25477   0.903  17.054  15.406  0.2529 -0.2644 -0.0492
 9861W        W25478   0.308  15.717   3.640  0.1165  0.2681 -0.3043
 9862W        W25479  14.912   1.737   1.104 -0.0565  0.0735  0.0009
 9863W        W25480  17.848   9.271   4.304  0.4317 -0.0998  0.0595
 9864W        W25481  12.377  11.271  13.139  0.1195  0.1919 -0.0701
 9865W        W25482  10.986   9.644  12.026 -0.0053  0.1678  0.0841
 9866W        W25483   4.319  14.584  15.291 -0.0024  0.0779  0.0827
 9867W        W25484  11.080   3.673   4.189  0.1972  0.1593  0.0756
 9868W        W25485   1.118  15.791   0.172  0.3158 -0.2036  0.2526
 9869W        W25486   6.948   3.514  14.364  0.0045 -0.0107  0.3570
 9870W        W25487  15.126   8.791  15.157  0.2454 -0.2134 -0.1544
 9871W        W25488  15.006   9.584  12.129  0.1436 -0.1009  0.1732
 9872W        W25489  13.191   1.915  11.931 -0.1643 -0.0106 -0.1866
 9873W        W25490  13.294   4.427  13.257  0.0066  0.0476  0.1961
 9874W        W25491   0.262   5.098   0.597 -0.0205 -0.0267 -0.0066
 9875W        W25492  17.107   1.913  16.193  0.3030 -0.0319 -0.4320
 9876W        W25493   9.284  14.797  16.501  0.0356  0.0291  0.0672
 9877W        W25494   1.868   9.868   0.708 -0.3148  0.0251 -0.2828
 9878W        W25495   0.744  14.866  16.491  0.1510  0.1094  0.0344
 9879W        W25496  14.391   9.800  15.063 -0.1812 -0.2911 -0.4032
 9880W        W25497   6.870  13.758   5.111 -0.2715 -0.0553  0.0053
 9881W        W25498  14.716  10.190  14.362  0.0682  0.0492 -0.1755
 9882W        W25499  13.087   1.284   5.792  0.1684  0.2000  0.5481
 9883W        W25500  16.798  12.044   2.121 -0.1211 -0.2759 -0.1162
 9884W        W25501   3.552  12.676   1.227 -0.0398 -0.1351  0.1651
 9885W        W25502   6.015   4.156  11.536 -0.0424 -0.0400  0.0226
 9886W        W25503  16.288  16.438  15.888 -0.2206  0.0628  0.1222
 9887W        W25504  15.033   4.793  11.782  0.0286 -0.2929 -0.0140
 9888W        W25505  11.059  17.682   6.213  0.0701 -0.1431  0.2624
 9889W        W25506   0.764  11.840   4.407 -0.0541  0.0320 -0.2867
 9890W        W25507  11.658   3.805  16.747  0.0910 -0.0544 -0.2116
 9891W        W25508  15.445  15.752  14.356  0.3306  0.2176 -0.1892
 9892W        W25509  17.650   0.322   3.297 -0.3277 -0.0670 -0.0393
 9893W        W25510  14.762   5.309   5.694  0.1287 -0.1648 -0.0507
 9894W        W25511   1.704   7.349   4.097  0.0264  0.0700  0.1490
 9895W        W25512   0.013  13.487  16.073 -0.0412 -0.1107  0.0272
 9896W        W25513  15.976  10.718   2.070 -0.3944 -0.0030 -0.1985
 9897W        W25514   0.454   7.254  14.174  0.3777 -0.1999  0.2419
 9898W        W25515   7.418  13.849   2.424  0.0911 -0.1552  0.3211
 9899W        W25516  14.060   4.338   1.487 -0.0870 -0.0863  0.0092
 9900W        W25517   0.250   2.766   5.171  0.1971 -0.0954 -0.2980
 9901W        W25518  16.905   9.477  14.739  0.2415 -0.0205 -0.1809
 9902W        W25519  17.605  16.510   3.720 -0.1036 -0.0779 -0.0921
 9903W        W25520   6.725   0.678   4.273 -0.1181 -0.1220  0.1144
 9904W        W25521   0.019   7.980   2.876  0.1491 -0.4920 -0.2280
 9905W        W25522   0.547  14.231   1.524  0.1902  0.2267  0.1308
 9906W        W25523  15.767  10.334  12.475 -0.3691 -0.0452 -0.2222
 9907W        W25524  10.836   2.729  14.577 -0.2655 -0.0702 -0.3811
 9908W        W25525   5.664   2.760   4.792 -0.1285 -0.0004 -0.0588
 9909W        W25526  12.244   9.657  14.363 -0.0759 -0.1797  0.0763
 9910W        W25527   5.103   0.819   3.726 -0.1605 -0.2335 -0.0381
 9911W        W25528   9.683   6.215   6.695  0.1036  0.0293 -0.2027
 9912W        W25529   3.611  16.449  12.564  0.2171 -0.0945 -0.2362
 9913W        W25530   0.982  14.826  12.183  0.1951 -0.4347 -0.1107
 9914W        W25531   9.960  13.844   0.985 -0.0593 -0.1066 -0.1424
 9915W        W25532  16.572   6.510  16.116  0.0485  0.1859  0.0282
 9916W        W25533  12.987  17.723  12.609 -0.1601  0.2248  0.0179
 9917W        W25534   4.285   7.574  12.716 -0.2429  0.1644 -0.4119
 9918W        W25535  16.131  13.698   3.480 -0.2755  0.0749 -0.1654
 9919W        W25536   1.188   9.054  12.860 -0.1624  0.2855 -0.0086
 9920W        W25537   2.388   1.628   4.095  0.4686  0.1013  0.3228
 9921W        W25538   8.416   9.711  12.158 -0.6007  0.2004  0.1277
 9922W        W25539  12.410   6.054  14.041  0.1671  0.2153  0.1933
 9923W        W25540  17.604  11.357   0.612  0.1761 -0.0847  0.0455
 9924W        W25541   1.457   3.226   0.305 -0.0808  0.0468 -0.3985
 9925W        W25542  16.367   3.573  13.531  0.2957  0.2195  0.0123
 9926W        W25543  11.784  17.663  12.490  0.0502  0.1319 -0.2570
 9927W        W25544   8.480  11.174  13.809  0.0325  0.0574 -0.1497
 9928W        W25545   0.933  11.957  16.375 -0.2346 -0.1342  0.0091
 9929W        W25546   1.295  11.301   4.115 -0.3217 -0.1567  0.2096
 9930W        W25547   7.117  12.080  15.282 -0.1298 -0.0375  0.2704
 9931W        W25548  10.632  12.741  15.776 -0.1992  0.0195  0.1414
 9932W        W25549   6.261  10.739   4.333  0.1243 -0.0163 -0.0082
 9933W        W25550   5.715   6.564   2.576 -0.3115 -0.0539 -0.2901
 9934W        W25551   1.594   2.146   0.322  0.0245  0.2305  0.1098
 9935W        W25552  15.707   3.013   1.068 -0.2029 -0.3072  0.3042
 9936W        W25553  12.608  16.599   1.365  0.1668 -0.2617  0.0671
 9937W        W25554  15.254  14.053  13.492  0.1546  0.1183 -0.0952
 9938W        W25555  17.439   8.828   3.035  0.0874  0.2621  0.3495
 9939W        W25556  17.370   6.674   0.718 -0.2197 -0.1845 -0.0295
 9940W        W25557  14.105  17.639   1.553  0.3437  0.1043 -0.2460
 9941W        W25558   9.054   6.051  14.985 -0.0851 -0.2477  0.2492
 9942W        W25559  16.748   1.184  11.862  0.1125 -0.1500 -0.2913
 9943W        W25560   3.245   2.316  14.216 -0.0152 -0.0738  0.0712
 9944W        W25561   2.631   5.900   0.007 -0.0625  0.1145 -0.2487
 9945W        W25562   9.165   0.599   5.878 -0.0106 -0.0445 -0.2378
 9946W        W25563  10.731  12.440   0.386  0.2147  0.2755 -0.2312
 9947W        W25564   9.847  12.082  13.554  0.0454  0.0073 -0.0261
 9948W        W25565   6.510   2.190   1.196  0.1521  0.0573  0.0459
 9949W        W25566   6.738   8.320   2.377  0.1323  0.0965  0.1957
 9950W        W25567  16.540   3.499   4.672  0.0530  0.0877  0.2509
 9951W        W25568  12.535  10.669   5.172  0.0435  0.0614  0.3770
 9952W        W25569  14.423  11.589   1.974 -0.0710 -0.0730  0.1472
 9953W        W25570   7.739  12.399   0.100 -0.0787  0.1472  0.2489
 9954W        W25571   6.227  10.168  14.323 -0.0322 -0.1975  0.0780
 9955W        W25572  14.917   0.437  15.255 -0.3195  0.1064 -0.1797
 9956W        W25573   6.187  13.415   0.156 -0.1242  0.0816 -0.1302
 9957W        W25574  11.674   8.602   1.475  0.2012  0.0186 -0.1304
 9958W        W25575   3.156  15.844   3.400  0.1244 -0.2381  0.1585
 9959W        W25576   2.893  12.324   3.529 -0.0612  0.0755 -0.1955
 9960W        W25577   2.882  12.110   4.991 -0.0021  0.0894 -0.1004
 9961W        W25578   0.984   9.575  15.844 -0.0546 -0.2492  0.2302
 9962W        W25579   7.330   5.512   0.409 -0.2087  0.1884 -0.0156
 9963W        W25580  17.726  15.658   1.431  0.0744  0.1523 -0.3438
 9964W        W25581  10.330  13.116   2.559  0.1638 -0.0565  0.0209
 9965W        W25582   3.233  16.909  13.986 -0.1184  0.1993  0.3881
 9966W        W25583   2.806  10.904  11.647  0.2142 -0.1887  0.2952
 9967W        W25584   1.147  12.439   1.598 -0.1486  0.0462  0.0654
 9968W        W25585  11.108   9.459   3.799  0.0680  0.0745  0.1071
 9969W        W25586  10.958   4.776  12.533 -0.0306 -0.0385 -0.0832
 9970W        W25587   7.642  17.040  16.210  0.1531 -0.0655  0.1070
 9971W        W25588   7.760   2.182   3.627 -0.4169  0.1746  0.0108
 9972W        W25589   2.137   0.114   3.306  0.0760 -0.0221  0.0881
 9973W        W25590   8.255  16.825  11.754 -0.0169  0.2970  0.0545
 9974W        W25591  13.655   8.168   5.828 -0.0675 -0.0963 -0.0955
 9975W        W25592   1.824   6.748   2.923  0.0023  0.0146  0.1710
 9976W        W25593  10.251  13.986   1.818 -0.0616 -0.0920 -0.0817
 9977W        W25594  14.549  17.704  16.184 -0.2682  0.0941 -0.1460
 9978W        W25595   2.127  11.938   0.635  0.0992 -0.2223  0.3552
 9979W        W25596   9.724   9.011  15.275 -0.0859  0.1855  0.0729
 9980W        W25597   3.752   7.373   4.635  0.4668 -0.2517  0.1382
 9981W        W25598  12.567   6.900   4.185 -0.3200 -0.2058  0.2146
 9982W        W25599   4.825   0.821   4.162 -0.0386  0.0703 -0.1807
 9983W        W25600  17.087   4.093   2.800 -0.2341  0.0709 -0.0334
 9984W        W25601   0.420  16.300  13.928  0.0528  0.1450  0.3290
 9985W        W25602  10.951   8.585   6.253 -0.3834  0.0262 -0.0413
 9986W        W25603   0.081   6.252  14.342  0.2173 -0.2545  0.0936
 9987W        W25604  15.134  11.733   2.618 -0.0952 -0.2303 -0.0361
 9988W        W25605   1.126  17.771   2.190  0.2396 -0.2372  0.1165
 9989W        W25606   1.921   4.475  16.759 -0.0954  0.1008  0.1455
 9990W        W25607   5.578  13.172   3.736  0.0120 -0.3427  0.0380
 9991W        W25608   2.374   3.476   3.728  0.0214 -0.2846  0.0949
 9992W        W25609   1.773  11.882   3.166 -0.1605 -0.0513  0.1284
 9993W        W25610   0.669  10.019  16.364 -0.2649 -0.0392 -0.1624
 9994W        W25611  16.148  12.795  12.258  0.0339 -0.0410 -0.2046
 9995W        W25612   0.850  15.029   1.876 -0.1308 -0.3286  0.3801
 9996W        W25613   3.440  14.663  16.391 -0.2849  0.2435 -0.0990
 9997W        W25614  14.196   8.590   4.406 -0.1505  0.2237  0.0017
 9998W        W25615  16.741  11.513   0.797  0.2195  0.1937  0.1936
 9999W        W25616   9.867   2.773   0.541 -0.2390  0.0407  0.1860
10000W        W25617   1.609  16.648   3.525 -0.0202 -0.0397  0.1645
10001W        W25618   4.262   3.250  13.168 -0.3040  0.0048 -0.1510
10002W        W25619   1.813  14.200  15.628  0.4342  0.0843 -0.0515
10003W        W25620  17.599  13.450  11.985  0.0367  0.2939  0.0551
10004W        W25621   3.046   6.091   1.410 -0.2394  0.0902 -0.2294
10005W        W25622  13.350  16.291   1.383 -0.1529 -0.2414  0.2698
10006W        W25623  12.454  13.466   2.079  0.0624  0.0750  0.3664
10007W        W25624  12.604   4.051  14.331 -0.2155 -0.4653 -0.2168
10008W        W25625   3.420   9.913   0.028  0.0476 -0.0294 -0.1166
10009W        W25626   3.076  15.942  16.569  0.1448  0.0992  0.3155
10010W        W25627  12.413   0.833   6.284 -0.0927 -0.0170  0.3701
10011W        W25628  14.005  10.438  16.763 -0.0262  0.0812 -0.1283
10012W        W25629   9.497   4.434  15.425 -0.1780  0.1778 -0.1492
10013W        W25630   5.684  16.545   4.383  0.0704  0.1580 -0.3418
10014W        W25631   4.664   7.741   0.527  0.0079 -0.0283 -0.2082
10015W        W25632  16.181   0.512  12.532 -0.1420  0.0348 -0.0008
10016W        W25633  12.945  10.040   0.447 -0.1826 -0.1139  0.0828
10017W        W25634   3.470   7.179   1.396  0.3228 -0.0665  0.3178
10018W        W25635  15.113  14.733  16.552 -0.0884  0.0438 -0.2282
10019W        W25636  12.808   5.320   1.160  0.0787 -0.0295  0.0189
10020W        W25637  15.397  16.581  16.086  0.0942 -0.1068  0.0058
10021W        W25638   4.886   2.059  11.620 -0.0091 -0.1544 -0.2775
10022W        W25639  10.931   7.014   3.415 -0.0561 -0.4105 -0.0356
10023W        W25640  15.954   8.434  14.960 -0.1437 -0.1151 -0.2538
10024W        W25641  14.397   7.502   1.130  0.1026  0.4300 -0.1616
10025W        W25642  15.732  13.914   3.341 -0.2444  0.1723  0.1151
10026W        W25643  16.804  14.881   3.986  0.0030  0.1503  0.0920
10027W        W25644  13.265  12.057   3.394 -0.0090  0.1537  0.0028
10028W        W25645   8.700   4.522   3.119 -0.2126  0.1027  0.0943
10029W        W25646   3.652  16.901   3.903  0.0683 -0.0449  0.4115
10030W        W25647   8.189   8.212   3.814 -0.1422 -0.0460  0.1695
10031W        W25648   7.390   0.967   1.477 -0.1312 -0.0812  0.0763
10032W        W25649   5.891  14.419   2.862 -0.0557  0.2030  0.3759
10033W        W25650   8.933   0.317   1.154  0.0297  0.1974 -0.1613
10034W        W25651   9.267  16.427   5.719  0.3400  0.3034 -0.2551
10035W        W25652  16.749   1.820   4.153 -0.1035 -0.1776 -0.2756
10036W        W25653  10.743  16.043  14.688  0.1289 -0.0735  0.1816
10037W        W25654   1.245   4.028  15.826 -0.3212  0.0268  0.3017
10038W        W25655   4.865   6.539   5.511 -0.0751  0.0191 -0.2193
10039W        W25656  14.084  14.806  16.799  0.1444 -0.0791 -0.0559
10040W        W25657   5.113  15.832   4.658 -0.1583  0.0594  0.3334
10041W        W25658  15.977  14.569   6.103 -0.0686 -0.0220 -0.0883
10042W        W25659  17.536  15.040   2.397 -0.1294  0.0280 -0.0971
10043W        W25660   8.669  16.547  15.370 -0.0938 -0.1295  0.0401
10044W        W25661  12.751  17.063  11.597 -0.1196 -0.0724  0.3790
10045W        W25662   9.326  11.505   2.956  0.1260  0.1274 -0.0802
10046W        W25663  17.028   6.517  15.888  0.0023  0.1842 -0.0360
10047W        W25664   3.137  14.940   2.402  0.1697  0.0877  0.2976
10048W        W25665   8.168   0.491  15.905  0.0236  0.0962 -0.3450
10049W        W25666  11.125  15.947   4.174 -0.2225  0.1310  0.0811
10050W        W25667   4.966   1.254   1.041  0.0231 -0.1314 -0.1369
10051W        W25668   7.556   9.404  13.429 -0.0695 -0.0937 -0.1194
10052W        W25669  15.408  13.227  13.843  0.3124 -0.0999 -0.2491
10053W        W25670  11.156  14.032  14.127 -0.2155  0.1374  0.1411
10054W        W25671  12.862   4.430   2.401 -0.1571  0.0014 -0.1133
10055W        W25672   9.164  14.958   4.058  0.0927  0.4397  0.2729
10056W        W25673  13.960   6.768   2.777 -0.1075 -0.1850  0.3384
10057W        W25674   0.259  12.069  13.561  0.1157  0.1335 -0.0629
10058W        W25675   7.801   4.329  11.926 -0.0162 -0.0445  0.0710
10059W        W25676  14.174   0.710  15.329 -0.0234 -0.0630  0.3452
10060W        W25677  14.941   5.493   0.738 -0.3951  0.0602 -0.2184
10061W        W25678  17.263  17.638  12.243 -0.0877  0.1203 -0.0487
10062W        W25679  14.925  10.188   4.350  0.0630 -0.3006  0.1284
10063W        W25680  14.744   1.738  15.480 -0.1213  0.0065  0.1891
10064W        W25681   9.102  17.450  13.386 -0.1569  0.0607 -0.2371
10065W        W25682   5.228   6.469   4.424 -0.0358  0.0560 -0.5476
10066W        W25683   5.049  16.878  11.793 -0.1339  0.2523  0.2331
10067W        W25684   9.656   3.589  13.572  0.0005 -0.3476 -0.3021
10068W        W25685   8.413  13.536  13.419  0.1891  0.2138  0.0710
10069W        W25686  10.642  17.804  11.218  0.0855  0.2735  0.0319
10070W        W25687   2.700  10.947   1.869  0.0296  0.0815 -0.0010
10071W        W25688   5.560   3.509   5.654  0.2283  0.0995 -0.1617
10072W        W25689  14.393   5.156   3.142 -0.4426 -0.0805  0.1671
10073W        W25690   9.943   8.616   1.357 -0.2959 -0.0548  0.0994
10074W        W25691  10.644   5.936   0.737 -0.0473  0.1810  0.0398
10075W        W25692   7.182  15.657  16.259  0.1998 -0.1371 -0.1652
10076W        W25693   4.490  17.312   3.756 -0.1412 -0.0854  0.0071
10077W        W25694  13.995  13.458   2.990  0.3065  0.3545  0.0402
10078W        W25695  11.628  16.136  13.666  0.1887  0.1063 -0.1547
10079W        W25696   3.362   8.872  13.548  0.0182 -0.1348  0.3044
10080W        W25697   8.804   4.725  16.314  0.0912  0.4403  0.1131
10081W        W25698  16.831   9.853   0.901  0.1320 -0.1970 -0.3172
10082W        W25699  16.070  14.359   0.679 -0.2072 -0.2087  0.3155
10083W        W25700   2.818  12.077  14.816 -0.2068 -0.1206 -0.1162
10084W        W25701   7.371  15.141   5.701  0.1018  0.0476  0.0343
10085W        W25702   1.534  10.392   5.977 -0.1164  0.0088  0.0463
10086W        W25703  11.410  11.138  12.254  0.0216  0.0053 -0.1639
10087W        W25704  11.505   7.439  14.425  0.0043 -0.1446  0.1940
10088W        W25705  14.733  17.766   4.221 -0.0237  0.1547 -0.1979
10089W        W25706   8.315   3.802  15.532  0.2758  0.2182  0.0004
10090W        W25707  15.791  12.499   3.708 -0.0454  0.1216 -0.1351
10091W        W25708  14.527  12.371   2.316  0.1352 -0.0312 -0.1026
10092W        W25709   3.612  14.648  11.286  0.0525  0.0630 -0.2316
10093W        W25710   1.241   0.593  12.907 -0.1247 -0.0959 -0.1144
10094W        W25711   4.028   2.334   5.511 -0.0132 -0.2322  0.0855
10095W        W25712   3.188   2.450  15.303  0.1013  0.2173  0.0960
10096W        W25713  15.751   0.926  14.671  0.0355  0.1263 -0.0018
10097W        W25714  15.437  11.189  12.948  0.3857 -0.0861  0.2165
10098W        W25715  14.220   9.946  16.742 -0.1327  0.0596 -0.0606
10099W        W25716   6.216   7.459   4.073  0.1414  0.1375 -0.0232
10100W        W25717   8.447   9.719  13.556  0.3015 -0.0290  0.1528
10101W        W25718   8.603   2.877  16.734  0.5106  0.0750 -0.0646
10102W        W25719  16.407  11.804   2.851  0.0361 -0.5001 -0.0193
10103W        W25720  10.843   7.263  12.383 -0.1284 -0.2402  0.0907
10104W        W25721  17.516  12.007  11.565 -0.1445 -0.1314 -0.0999
10105W        W25722  17.429   6.151  12.102  0.2266 -0.0609 -0.2169
10106W        W25723  12.531   6.873   2.765  0.2172  0.2232  0.2427
10107W        W25724   8.720   7.260  15.515 -0.0963  0.0946  0.0744
10108W        W25725  17.137   4.967  11.951 -0.1412 -0.3044  0.0007
10109W        W25726   1.485   2.024   3.220  0.1252 -0.0480  0.2240
10110W        W25727  15.817  11.419  15.291  0.2756 -0.1851  0.1699
10111W        W25728   0.497  14.902   1.461  0.0941 -0.1544 -0.0406
10112W        W25729  12.373   6.282   2.969 -0.1948  0.0548 -0.1485
10113W        W25730   6.435  16.809   0.650  0.0617  0.2147 -0.0030
10114W        W25731   2.793  11.486   4.860 -0.1008  0.0041  0.2669
10115W        W25732   4.176   7.061   2.776 -0.3662  0.1083  0.1585
10116W        W25733  10.856   4.455  14.291  0.0661 -0.1094  0.0169
10117W        W25734   6.042   6.462  12.778  0.0513 -0.0566  0.1562
10118W        W25735  10.141  12.000  16.038  0.1371  0.1660  0.0824
10119W        W25736  13.912   2.133   1.938 -0.3811  0.0446  0.1235
10120W        W25737   0.401   2.054  16.407  0.0383  0.1346 -0.1127
10121W        W25738  11.521   1.225  15.949  0.2902  0.1090  0.0501
10122W        W25739  10.640  17.793  13.657 -0.1110 -0.0919  0.0843
10123W        W25740  16.176   9.365   2.182 -0.3334 -0.0448 -0.1838
10124W        W25741   2.353  11.807  12.034 -0.0483  0.1163 -0.4212
10125W        W25742  10.951  11.813  11.887 -0.2837  0.1741 -0.2705
10126W        W25743   6.017   1.200   2.931 -0.2003  0.1860  0.0187
10127W        W25744  11.722   3.476   6.329 -0.1228  0.1833  0.2994
10128W        W25745  13.962  11.381  14.273 -0.0407  0.1691  0.0048
10129W        W25746   7.251   8.269   4.701 -0.0664  0.2418  0.0490
10130W        W25747  12.384   7.570   3.073  0.1468 -0.1736 -0.0787
10131W        W25748   1.168   3.459  13.050 -0.2872 -0.0581  0.2230
10132W        W25749   9.659  13.344  13.370 -0.0352  0.2829 -0.1126
10133W        W25750   9.198   9.267  16.606  0.0762  0.0265  0.0795
10134W        W25751  10.924   8.184  14.202 -0.1900  0.1266  0.1107
10135W        W25752   7.420  13.193  15.975  0.0192  0.1280 -0.2586
10136W        W25753  17.767  11.160   1.958  0.1620  0.0015  0.0549
10137W        W25754   4.117   2.590  14.338  0.1197 -0.0274  0.0095
10138W        W25755  15.116   9.086  16.246 -0.0575 -0.0249  0.2036
10139W        W25756   5.718   8.023   4.898  0.2739 -0.0892 -0.0904
10140W        W25757   9.979  11.751   0.768  0.2531 -0.2349  0.0443
10141W        W25758   0.276  12.141   3.396  0.3451  0.0191  0.0506
10142W        W25759  12.466   9.711   6.067 -0.2243  0.2034  0.3483
10143W        W25760  13.191   6.303   4.639 -0.0600 -0.0164 -0.1280
10144W        W25761  11.912   9.832   1.908  0.0435 -0.2852  0.0738
10145W        W25762   5.869   0.802  12.474 -0.1374  0.0087 -0.0942
10146W        W25763   3.133   1.893   2.932  0.2754  0.1426 -0.3638
10147W        W25764   3.041  13.546   4.297 -0.3250  0.1049  0.1513
10148W        W25765   1.391   5.690   2.109  0.0386  0.1236  0.2571
10149W        W25766  17.808  10.021  13.107  0.0761  0.1518  0.0579
10150W        W25767  17.357   4.179   5.113  0.2654 -0.5654 -0.2080
10151W        W25768  11.788  10.123  16.366 -0.2191 -0.1788 -0.2331
10152W        W25769   3.125  11.275   1.869  0.1921 -0.0906 -0.0724
10153W        W25770  10.146  11.226  14.847  0.1465  0.1096 -0.0558
10154W        W25771  14.783   6.207  16.785  0.3775  0.0940  0.2791
10155W        W25772   7.941   6.031   3.989  0.0427 -0.1851 -0.0273
10156W        W25773  15.501  10.774   5.030  0.1993 -0.0827  0.0023
10157W        W25774  17.683   6.593  12.168 -0.3831  0.0998 -0.0291
10158W        W25775   0.345   7.494   4.001 -0.1209  0.1327 -0.2920
10159W        W25776   0.750  17.512   3.009  0.0635  0.0042 -0.2382
10160W        W25777   4.065   2.783  13.329  0.2887  0.3647 -0.2262
10161W        W25778  12.322   7.693   1.213  0.0752 -0.0409  0.1924
10162W        W25779  10.951   6.602   0.300  0.0360  0.0604  0.1117
10163W        W25780   4.330  13.812   0.320 -0.0701  0.1545  0.0227
10164W        W25781  15.976  12.102  15.949  0.1529  0.1936 -0.1582
10165W        W25782   0.992  11.403  14.239  0.3087  0.0394 -0.2049
10166W        W25783  10.619  12.031  15.942 -0.0802  0.2217  0.1276
10167W        W25784  10.246  13.637   1.318  0.2286 -0.1161  0.0494
10168W        W25785  15.824  14.688  13.457  0.1174 -0.0573 -0.0511
10169W        W25786   2.735  11.806  16.570 -0.1036 -0.3228 -0.3463
10170W        W25787   7.835   3.196  16.476 -0.0202 -0.0938  0.1840
10171W        W25788  11.214   7.152   2.451  0.2010 -0.1780  0.0968
10172W        W25789   1.017   2.435   3.465 -0.0252 -0.0459 -0.4973
10173W        W25790  10.023   6.389   1.950  0.0251 -0.1948 -0.2750
10174W        W25791  17.262  14.073  16.089 -0.0049 -0.1570  0.0483
10175W        W25792   7.877   9.596  11.350 -0.0376 -0.1504 -0.3377
10176W        W25793   3.259  12.398  14.887 -0.0557  0.0035  0.3848
10177W        W25794  13.328   2.304  13.731 -0.0305 -0.1151 -0.0638
10178W        W25795   1.464   0.035  13.805  0.1520 -0.1136 -0.0449
10179W        W25796  13.513   3.479   2.890 -0.1188 -0.3660 -0.1142
10180W        W25797  12.932   0.861  16.819  0.2685 -0.1650 -0.0080
10181W        W25798   6.386   8.693   1.119  0.0902  0.0499 -0.3833
10182W        W25799  11.374   6.961   5.434 -0.2807 -0.2636  0.1067
10183W        W25800   2.114   8.971   4.056 -0.0348 -0.0521  0.0275
10184W        W25801   4.828  16.600   5.248  0.4811 -0.1936 -0.0782
10185W        W25802  11.002   8.178  16.359  0.1684  0.2659 -0.2486
10186W        W25803   9.313  14.760   4.495  0.0972 -0.1393 -0.1110
10187W        W25804   1.031   6.460  16.499 -0.0930  0.0589 -0.1723
10188W        W25805   8.483  13.742   4.480 -0.3198  0.2392  0.0222
10189W        W25806   1.885   0.990  11.952 -0.2077  0.1218 -0.0655
10190W        W25807  12.355   5.172  12.285  0.1854  0.1667 -0.0976
10191W        W25808   0.324  17.530   3.612  0.2433  0.0640 -0.1069
10192W        W25809  11.822  17.785   5.075  0.1313  0.2383 -0.1398
10193W        W25810   6.915  12.672  14.787  0.3842  0.2461 -0.0191
10194W        W25811   9.579  15.401   1.301  0.0805  0.0417 -0.2835
10195W        W25812   9.165  12.376   3.538  0.0420  0.2086  0.1524
10196W        W25813  10.836   3.662  13.104  0.1155  0.0197  0.4070
10197W        W25814   1.169   9.590  12.674 -0.1357  0.0186 -0.0590
10198W        W25815  12.451   3.218  14.041  0.2234  0.2672 -0.0683
10199W        W25816   4.960   9.574   3.675 -0.2071  0.0289 -0.1452
10200W        W25817   8.241  16.999   1.381  0.0340  0.0352  0.0569
10201W        W25818  17.086  12.772   3.997 -0.2357  0.0857  0.3486
10202W        W25819   3.618   7.773   5.336  0.1071  0.0170  0.1326
10203W        W25820   4.837   3.867  12.607 -0.1342 -0.0517  0.2545
10204W        W25821   4.148   1.205   3.585 -0.0727  0.1970  0.1281
10205W        W25822  11.444   6.200   3.870  0.0544  0.0988 -0.3083
10206W        W25823  11.528  14.081   2.881 -0.0831  0.0353  0.2136
10207W        W25824  13.109  12.659   4.692 -0.0087 -0.4026 -0.1081
10208W        W25825  11.074   1.201  14.652 -0.1796 -0.0819 -0.0919
10209W        W25826  11.936   9.612  12.386  0.3548  0.1781  0.3630
10210W        W25827  16.121  16.459   0.832 -0.0753 -0.0862 -0.2572
10211W        W25828   1.968   3.402   3.482 -0.3172  0.0060  0.2323
10212W        W25829  14.560   0.010  15.750  0.0790  0.0704 -0.1953
10213W        W25830   1.656   2.095   1.826  0.1833  0.2831  0.0042
10214W        W25831   6.405  14.117  14.480 -0.1872 -0.0793 -0.1061
10215W        W25832  13.741  10.002   5.213 -0.2692  0.0044  0.1196
10216W        W25833  16.654  12.756   3.688 -0.3287 -0.0510 -0.1216
10217W        W25834   3.945   4.687   4.966 -0.1807  0.1184 -0.1671
10218W        W25835  16.408   3.676   3.415  0.3412 -0.1997  0.1009
10219W        W25836  15.599  10.241   5.144 -0.1261 -0.2374  0.0507
10220W        W25837  15.605   0.483  12.035  0.0542  0.1283 -0.1880
10221W        W25838   8.107  14.023  16.442  0.1414 -0.2097 -0.0692
10222W        W25839   0.646   3.774  11.834  0.0849  0.0349 -0.0724
10223W        W25840  10.879  16.653  10.301  0.0346  0.1072  0.1580
10224W        W25841  14.569  16.462   5.762  0.3754  0.1397 -0.0232
10225W        W25842   5.837   1.471  16.688  0.0023 -0.1410 -0.0118
10226W        W25843  16.099  10.014   1.444 -0.0188  0.1572 -0.0216
10227W        W25844  14.558  16.974  16.555  0.2023  0.2109  0.2395
10228W        W25845   8.640   8.588   2.425 -0.0052  0.0069 -0.0452
10229W        W25846  11.616  11.385   5.341  0.0102 -0.2097 -0.1116
10230W        W25847  13.867  11.009  16.715 -0.0152  0.0735  0.0777
10231W        W25848   9.248   3.182   1.097 -0.0456  0.3780 -0.0253
10232W        W25849  15.185  14.015  12.921 -0.0256 -0.0460  0.0150
10233W        W25850  12.047  16.534  14.776 -0.1591 -0.1358  0.0092
10234W        W25851   0.030   8.726  15.369  0.0744 -0.1176 -0.0967
10235W        W25852  17.237   6.130   0.148  0.1352 -0.1820  0.0225
10236W        W25853   5.267  13.154  16.427  0.2589 -0.0223 -0.0601
10237W        W25854  13.627  12.205   5.535 -0.2687 -0.0602  0.2017
10238W        W25855   0.832  15.426  16.078 -0.1183 -0.1152  0.1326
10239W        W25856   4.242  12.651   0.670  0.0849 -0.1618 -0.2746
10240W        W25857  17.543   2.804   3.210  0.0974 -0.2894 -0.3687
10241W        W25858   3.776  16.487   0.159  0.2127 -0.1476  0.0262
10242W        W25859   4.157   9.167   3.276  0.3091 -0.2409 -0.2027
10243W        W25860  13.392  10.774  15.494  0.0425  0.0649 -0.0402
10244W        W25861  13.134  13.072  16.651  0.1361  0.0580  0.2737
10245W        W25862   7.195   2.114   4.139 -0.0310 -0.1802  0.0837
10246W        W25863  14.631   9.810  16.491 -0.2028  0.1608  0.0472
10247W        W25864  14.357   6.360   3.546  0.1691  0.4387  0.1603
10248W        W25865   4.050  10.084  12.187  0.1138  0.1557  0.1314
10249W        W25866   0.812   6.102  12.909  0.0239 -0.3966  0.0327
10250W        W25867  14.653  14.427   3.731 -0.0321  0.0561  0.1612
10251W        W25868   1.139  16.580   5.286 -0.0705 -0.2215  0.2238
10252W        W25869   4.189  16.104   3.531  0.1900 -0.2472  0.2406
10253W        W25870  13.718   7.463   3.776 -0.0637 -0.2682  0.0263
10254W        W25871  17.707  16.274  16.530  0.1217 -0.0711 -0.2835
10255W        W25872  17.862  15.846   4.999  0.4383 -0.3339  0.2054
10256W        W25873   1.651  16.008  16.025 -0.0116  0.0885  0.1019
10257W        W25874  12.733   2.637  14.147 -0.1691  0.3701 -0.0977
10258W        W25875  10.290  11.027   1.636 -0.0688 -0.0014 -0.1559
10259W        W25876   3.139   8.203   3.206 -0.2859  0.1754 -0.0234
10260W        W25877  17.746   5.725   5.356  0.0154 -0.0707 -0.4455
10261W        W25878  13.129  12.120   5.513 -0.1118 -0.0855 -0.0213
10262W        W25879  15.447  12.188   0.523 -0.3483 -0.0897 -0.2192
10263W        W25880   6.423   9.565   1.884  0.0306 -0.2091 -0.0261
10264W        W25881   2.537  10.688  13.525 -0.2387 -0.0273  0.0165
10265W        W25882   3.911   7.796   2.762 -0.3088  0.1861  0.0600
10266W        W25883   0.672   2.869   2.273 -0.2325  0.0501  0.2067
10267W        W25884   6.957  17.214   1.132  0.0762 -0.4329 -0.0509
10268W        W25885   8.705  10.771  13.210 -0.0589  0.1209 -0.2157
10269W        W25886   2.173  12.496   2.879  0.0228  0.0315 -0.0533
10270W        W25887   3.397   7.600   1.133  0.2558  0.0388 -0.2039
10271W        W25888   1.127   3.911  14.845 -0.0286  0.1011  0.1332
10272W        W25889   9.298  13.103  13.078  0.2659  0.2758  0.2255
10273W        W25890  10.027  14.981  16.199  0.0745 -0.0650  0.1448
10274W        W25891  16.298  14.630  12.608 -0.0493 -0.0936  0.1857
10275W        W25892   9.347  15.966  13.319  0.1009 -0.3207  0.3321
10276W        W25893  16.210   9.653   5.251  0.0061 -0.0539 -0.2626
10277W        W25894  17.346   4.395  16.770  0.2324 -0.2865 -0.4234
10278W        W25895   6.414  12.612   3.229  0.2039  0.1196  0.1348
10279W        W25896  15.193   8.094  14.479  0.2384  0.0633 -0.1652
10280W        W25897   9.084  15.396  13.968 -0.1431 -0.0034 -0.0974
10281W        W25898   5.612  12.206  16.548  0.1826 -0.1111 -0.0321
10282W        W25899   1.655  16.225   3.799  0.0448 -0.0692  0.1144
10283W        W25900  17.182   3.047  12.418  0.0683  0.1496 -0.1710
10284W        W25901  10.015  10.232   4.942  0.1826  0.1637 -0.1641
10285W        W25902   3.039   4.068   1.353 -0.2904 -0.1053  0.0800
10286W        W25903   5.010   3.250  12.471  0.1159 -0.0049  0.1688
10287W        W25904  10.885  10.704  15.868  0.2865 -0.3873  0.1412
10288W        W25905  15.851  15.110  14.146 -0.0635  0.2077  0.0467
10289W        W25906  15.054   4.074   3.025  0.0110  0.1627 -0.1332
10290W        W25907   1.863   0.652  16.705  0.1166 -0.0911 -0.0892
10291W        W25908  10.811   8.005   1.543  0.1778 -0.0973  0.0610
10292W        W25909   8.857  11.480  15.484 -0.0248  0.1382 -0.0537
10293W        W25910   6.040   8.208  15.966 -0.0581 -0.0770  0.1717
10294W        W25911   4.904   0.331   1.033 -0.0267  0.0118 -0.0562
10295W        W25912   3.590  13.327  15.114 -0.1928  0.2547 -0.0513
10296W        W25913   8.793  11.288   2.960 -0.0664  0.1074 -0.0132
10297W        W25914   3.966   6.064   5.358  0.2070 -0.1371 -0.0984
10298W        W25915   1.314  16.780   0.882 -0.2309  0.1252 -0.1269
10299W        W25916  15.546   6.236  15.907  0.0353  0.0804 -0.3103
10300W        W25917   2.973  13.682   2.574 -0.2421 -0.1436  0.0538
10301W        W25918   6.321   4.714   3.147 -0.1248 -0.3798 -0.0209
10302W        W25919   5.528  13.858   5.247 -0.0483  0.1257  0.0455
10303W        W25920   4.283  17.693   1.336 -0.1167  0.1642  0.1539
10304W        W25921  16.973   5.997  11.946  0.0737  0.1143 -0.0977
10305W        W25922   8.975  10.458  16.620 -0.1355  0.1018  0.3970
10306W        W25923  16.524  12.860   0.238  0.0032  0.1366  0.3165
10307W        W25924   4.148  16.839  11.940  0.2168 -0.0244 -0.1436
10308W        W25925   1.466  13.254  13.622  0.1599 -0.0237 -0.2602
10309W        W25926  13.061   9.885   2.683 -0.4426  0.0923 -0.3893
10310W        W25927  15.781   0.752  11.610 -0.2669 -0.0388 -0.1248
10311W        W25928  15.622   6.896  14.401 -0.1374 -0.3359 -0.1246
10312W        W25929   3.081   4.005   4.920  0.1764  0.2198 -0.1455
10313W        W25930   8.423  12.501  13.487  0.0576  0.1318 -0.0570
10314W        W25931   4.051   9.835  12.745  0.1308 -0.1826 -0.0884
10315W        W25932   3.852  14.483  15.610 -0.0323  0.1646  0.2674
10316W        W25933  12.980  14.927   6.072 -0.4598 -0.0055  0.1043
10317W        W25934   8.586   5.427  14.479 -0.1275  0.1800 -0.1509
10318W        W25935  14.028   4.435   6.182  0.1603 -0.1218  0.2440
10319W        W25936  16.649  12.143   6.318  0.1784  0.4026  0.0814
10320W        W25937  13.735   4.440   2.898 -0.0714  0.0253  0.2380
10321W        W25938   8.086  10.108   2.510  0.0693  0.0636  0.2298
10322W        W25939   5.348  10.396   2.389 -0.0688  0.0585 -0.0056
10323W        W25940  15.614   4.228   2.293 -0.0352 -0.2022 -0.1961
10324W        W25941  10.937  17.129   0.794 -0.1159  0.1040 -0.5167
10325W        W25942  10.815   2.803   2.128  0.0344 -0.1464 -0.1282
10326W        W25943   9.022   3.596  11.786 -0.2001  0.0785 -0.3850
10327W        W25944   4.371   9.578   2.021 -0.1355 -0.0499 -0.0272
10328W        W25945  17.391   7.959   3.231 -0.0166 -0.0454 -0.2125
10329W        W25946   7.954  12.176   5.000 -0.0148  0.4204  0.1934
10330W        W25947  16.371   7.033  11.680  0.0377 -0.0925 -0.0153
10331W        W25948   8.679   2.403   1.022  0.1096 -0.2536 -0.0847
10332W        W25949   0.748  10.716   0.792 -0.1031  0.0016  0.0060
10333W        W25950   8.953  12.852  16.372  0.0343  0.0522  0.1425
10334W        W25951  12.211   0.191   1.560 -0.0015  0.1670  0.0695
10335W        W25952  11.789  17.237   3.149 -0.1986 -0.1480  0.3823
10336W        W25953   3.454  10.162   4.926 -0.3084  0.4651 -0.2226
10337W        W25954   0.216   2.161   4.823  0.1432  0.2444 -0.1746
10338W        W25955  14.318  16.929   3.895  0.0867  0.1350  0.2960
10339W        W25956   9.479   9.668   5.546 -0.3386 -0.0785 -0.1912
10340W        W25957  17.250  14.546  15.800 -0.2012  0.1382 -0.2288
10341W        W25958  12.606   2.713  11.194 -0.2043  0.2231 -0.0175
10342W        W25959   2.501   8.988   3.245 -0.0967  0.1360 -0.0275
10343W        W25960   8.032   0.578  11.669  0.0544  0.0059  0.1302
10344W        W25961  16.153   3.315   4.453  0.2609 -0.3089  0.1961
10345W        W25962   3.049   2.936  12.640 -0.0099  0.1648  0.0505
10346W        W25963  12.434  11.889   6.202 -0.0683 -0.4417 -0.1375
10347W        W25964  15.750   8.830  15.107 -0.0412 -0.2338  0.1446
10348W        W25965  12.575  10.318  15.104 -0.0776  0.2538 -0.0825
10349W        W25966   1.196   0.759   2.246 -0.2310  0.5886  0.1572
10350W        W25967  10.486  12.304  13.036  0.3606 -0.1186  0.0426
10351W        W25968   8.695   4.718  11.865 -0.2072 -0.1213 -0.2681
10352W        W25969   2.056   4.663   4.122 -0.0275  0.3116 -0.0380
10353W        W25970   4.325  10.812   0.794 -0.1824  0.0082  0.1378
10354W        W25971   0.283   7.002  15.133  0.0387 -0.0794 -0.2178
10355W        W25972  16.987  11.821  14.547 -0.1918  0.2861 -0.2901
10356W        W25973   2.537   5.629  15.545  0.2736 -0.1378  0.1505
10357W        W25974  11.235  17.424  11.784  0.0934  0.2671  0.0260
10358W        W25975   0.457  15.775  13.770 -0.1462  0.0933  0.3617
10359W        W25976   4.252  13.246  11.914  0.1067 -0.1893 -0.2956
10360W        W25977   6.890  13.337  12.393 -0.0446 -0.3284 -0.3378
10361W        W25978  17.295  13.095  15.291  0.4438 -0.0405  0.2079
10362W        W25979  14.962   8.707   1.972  0.0120  0.1805 -0.0759
10363W        W25980   8.899   5.472  13.242 -0.3031 -0.0879  0.1174
10364W        W25981  11.347   5.852  13.222  0.4378  0.2078  0.1906
10365W        W25982   9.913   5.230  16.729 -0.1043 -0.0056  0.0851
10366W        W25983   7.949  14.867  12.855  0.4364  0.2487  0.1097
10367W        W25984  11.917   7.400   1.012  0.2830 -0.2155  0.4984
10368W        W25985   9.660  13.240   3.794  0.2193  0.2300 -0.3278
10369W        W25986   8.406  13.700   0.094  0.2524  0.0333  0.0325
10370W        W25987  17.254  14.913   0.458  0.3221  0.2707 -0.1580
10371W        W25988  10.569   3.641   2.047 -0.1668 -0.1322  0.0481
10372W        W25989  14.307   6.458  13.920  0.0573  0.2827 -0.0617
10373W        W25990  15.869   5.248   4.146 -0.1332  0.2109  0.2037
10374W        W25991  13.631   4.034   3.684 -0.1041 -0.0631  0.1393
10375W        W25992   6.282   5.572  15.104  0.0744  0.2575  0.0942
10376W        W25993  13.049  17.490   1.241  0.0910 -0.1813 -0.3425
10377W        W25994   4.300   2.594  15.470  0.1832 -0.0451 -0.4590
10378W        W25995  13.682   1.103  12.912 -0.1046  0.0331  0.1636
10379W        W25996   7.957  15.185  14.030 -0.0410 -0.1505 -0.1338
10380W        W25997   5.292  13.020   2.489  0.0506  0.0573  0.0383
10381W        W25998   9.347   5.747  14.104 -0.3283 -0.1255 -0.1334
10382W        W25999  17.310   5.778  13.658 -0.1927  0.1736 -0.0623
10383W        W26000  11.152  14.753  11.975 -0.1451  0.2016 -0.2688
10384W        W26001   5.826   2.788   2.270 -0.0982  0.2791  0.1594
10385W        W26002   8.303   1.518   3.473 -0.3173 -0.1296  0.2969
10386W        W26003   6.976   0.431   0.777  0.1140  0.3182 -0.1090
10387W        W26004  16.297  10.530  16.755  0.2059 -0.0440 -0.0636
10388W        W26005   9.680  15.218  13.975  0.4766  0.0371  0.1671
10389W        W26006   9.381   0.458   1.046 -0.2437 -0.0086  0.0543
10390W        W26007  11.864  14.698   1.178  0.0492 -0.2881  0.1628
10391W        W26008   5.751   5.924  11.785 -0.1130 -0.1408 -0.0887
10392W        W26009  12.600  15.801  12.100 -0.0275  0.0556  0.1880
10393W        W26010   9.529   5.734  11.285 -0.0766  0.0857 -0.0928
10394W        W26011   6.675   9.407   4.527  0.2433 -0.2487  0.0326
10395W        W26012   3.243   9.308  13.800  0.0416 -0.1411  0.0672
10396W        W26013   4.122  10.571   1.719  0.1768  0.0205  0.2062
10397W        W26014  14.256   3.980  14.354 -0.2224  0.0110  0.1904
10398W        W26015   4.406   3.871  15.561 -0.1768  0.0706 -0.2695
10399W        W26016  11.698  13.009   2.713 -0.1201 -0.0911 -0.0185
10400W        W26017   2.210  11.946  12.702  0.0783 -0.0096 -0.2910
10401W        W26018   3.411   9.627   2.946 -0.0062 -0.1075  0.0227
10402W        W26019  16.721   8.209   3.662  0.3776 -0.0923  0.1137
10403W        W26020   1.310   9.195   2.390  0.1663  0.0122 -0.0334
10404W        W26021  17.712   9.093  13.419 -0.4589  0.1961  0.1052
10405W        W26022   8.985  12.392   3.990  0.1035  0.3613  0.0361
10406W        W26023   1.292  14.498   1.300  0.0166 -0.2106 -0.0225
10407W        W26024   3.889   5.325   0.450 -0.3026 -0.0811  0.0230
10408W        W26025   6.614   5.364   0.329  0.0100  0.2859  0.0282
10409W        W26026   7.797   0.260  13.448  0.0318  0.0998 -0.0177
10410W        W26027  13.195  14.653   0.041  0.2166  0.0042  0.0631
10411W        W26028  12.810   9.251   3.752  0.1241  0.4004 -0.1778
10412W        W26029  10.202  16.768   0.083  0.0845 -0.2900 -0.0619
10413W        W26030   7.232   8.861   3.304 -0.0501 -0.0155 -0.1577
10414W        W26031  17.386   5.492   5.815 -0.1878  0.0727  0.2177
10415W        W26032  12.180  15.290  12.275 -0.1203 -0.1654  0.1561
10416W        W26033   6.521   7.568  14.740  0.0256 -0.3945 -0.0371
10417W        W26034   7.920   1.577  12.689  0.2194 -0.1766  0.0219
10418W        W26035  13.852  10.989   1.725 -0.1143  0.1515  0.2735
10419W        W26036   6.017  11.333  15.807  0.2248  0.0542 -0.2332
10420W        W26037   6.063  12.623  14.095 -0.1489  0.2041 -0.2081
10421W        W26038   5.308   4.741  11.547 -0.0643  0.0019 -0.4822
10422W        W26039   5.337   1.881   0.290  0.0719  0.1516 -0.2316
10423W        W26040   5.492   8.733   4.353 -0.1845  0.0189  0.1409
10424W        W26041  10.854   9.800   5.875  0.0603 -0.1624  0.1925
10425W        W26042  10.045   2.978  12.886 -0.2452  0.2212 -0.0240
10426W        W26043  10.479   2.153   1.728  0.0053 -0.1068 -0.1295
10427W        W26044  15.460   8.010  12.532 -0.0393 -0.3646 -0.0630
10428W        W26045  16.590   0.264   0.569 -0.1683  0.1176  0.0596
10429W        W26046  10.253   0.063  16.767  0.2053  0.0101 -0.3252
10430W        W26047   0.795  16.363  12.887 -0.4051  0.0731 -0.1673
10431W        W26048   8.111   0.095  12.511  0.4165  0.0408 -0.1144
10432W        W26049  11.462   3.654   0.393 -0.0280  0.0490  0.1537
10433W        W26050   2.352   1.179  14.853 -0.1415 -0.5085  0.1989
10434W        W26051  10.479   3.961   5.658  0.2759  0.1104 -0.0760
10435W        W26052   4.331  16.616  16.772 -0.1678 -0.0150 -0.1199
10436W        W26053  11.680   6.599   3.676 -0.1776 -0.1904 -0.0544
10437W        W26054  15.116   6.830  14.151  0.3153  0.1624  0.0013
10438W        W26055   1.720  15.819  14.335  0.2353 -0.1515  0.0197
10439W        W26056   6.029  11.043   4.672 -0.1370 -0.3135 -0.1767
10440W        W26057   7.297   2.048  16.024 -0.0179  0.0529  0.0021
10441W        W26058  15.994  14.823   3.347 -0.3033 -0.2323 -0.2907
10442W        W26059  14.348  17.110  15.675  0.0052  0.2588  0.0348
10443W        W26060  12.676  15.018   3.873  0.2104  0.2633  0.1255
10444W        W26061  14.471  14.324   3.176 -0.0513 -0.0585 -0.1761
10445W        W26062   8.374  16.346  11.463  0.2866  0.2651  0.0949
10446W        W26063   7.240   9.926   4.605  0.0416 -0.1599  0.2280
10447W        W26064  12.929   2.101  12.726  0.0915 -0.0759 -0.0815
10448W        W26065   8.175   9.923   1.779 -0.0945 -0.0373  0.1587
10449W        W26066  16.794  12.497  12.257  0.0313 -0.3337 -0.4822
10450W        W26067  11.975   5.253   1.550  0.1766 -0.1287 -0.0796
10451W        W26068  11.012   4.887   5.315 -0.0650 -0.1993 -0.0484
10452W        W26069   4.992   5.053   2.525  0.1634  0.0484 -0.0137
10453W        W26070   9.087  11.915   2.621 -0.3583  0.3151 -0.1148
10454W        W26071  15.887   2.158   3.188 -0.1146  0.0810  0.1183
10455W        W26072   3.610   8.467  11.821 -0.0855 -0.0331 -0.2012
10456W        W26073   1.253   8.317   0.808  0.1744 -0.0820  0.0772
10457W        W26074  11.171   3.256   4.446  0.2222  0.0407  0.1237
10458W        W26075   2.838   0.119  15.505 -0.1100  0.0686  0.0931
10459W        W26076  15.667   5.370   1.508  0.0865 -0.0322 -0.3324
10460W        W26077  16.161  14.294  11.686  0.2479  0.0467  0.1652
10461W        W26078  12.518  11.125  14.011  0.0122  0.2153 -0.1495
10462W        W26079  11.737   3.541  14.504 -0.1329 -0.2950  0.2469
10463W        W26080  10.940  17.108  12.080 -0.3194 -0.1813  0.1615
10464W        W26081  12.478  11.759  12.876 -0.0144 -0.3028 -0.1559
10465W        W26082  17.353   7.960  15.648  0.0882 -0.0375 -0.1475
10466W        W26083  15.296   7.020   2.436 -0.0080  0.0823  0.3006
10467W        W26084   5.591  16.688  16.182 -0.0090 -0.1315 -0.4556
10468W        W26085  16.678   5.454   0.424  0.2792 -0.0090 -0.0134
10469W        W26086   1.238   6.899  16.762  0.2467  0.0123  0.4185
10470W        W26087   4.281   3.411  15.306 -0.4654 -0.0744  0.0988
10471W        W26088   2.242  17.846   5.937 -0.0454  0.0372 -0.0273
10472W        W26089   9.052   8.333   1.789  0.1397 -0.0137 -0.0976
10473W        W26090   2.031   3.475  14.390  0.2609 -0.3410  0.1056
10474W        W26091   8.232   4.031  12.996 -0.1464 -0.1291  0.2444
10475W        W26092   2.751   4.194  14.354  0.0704  0.0071  0.0456
10476W        W26093  16.942  12.674   1.030  0.1895  0.0120 -0.0630
10477W        W26094  16.580  15.727   0.013 -0.1168 -0.1166 -0.0080
10478W        W26095  15.898   5.293  15.178 -0.1244  0.1918  0.1113
10479W        W26096   3.758   8.286  15.391 -0.1369 -0.0708  0.0401
10480W        W26097   8.546   0.884  16.067 -0.1995  0.1549  0.0805
10481W        W26098  14.132   9.037  12.159 -0.0109 -0.0345  0.1302
10482W        W26099   5.752  15.203  15.248  0.3872 -0.1619  0.1125
10483W        W26100  14.899   8.188   3.951 -0.2124  0.0233  0.2757
10484W        W26101   9.523   3.903  15.244 -0.2751  0.1030 -0.0101
10485W        W26102   7.020  15.829  14.323  0.0955  0.0251  0.2356
10486W        W26103  11.297  16.636   6.037 -0.0724  0.3313 -0.3001
10487W        W26104   5.559  16.255   3.291  0.2648 -0.1012  0.1095
10488W        W26105   5.231   0.455   4.463  0.0787  0.1311 -0.0306
10489W        W26106  15.562  10.363  16.671  0.3817  0.0421 -0.2930
10490W        W26107  12.477   2.026   3.650  0.0374  0.2673 -0.0829
10491W        W26108   2.450  17.795  12.501 -0.0853 -0.0782  0.3353
10492W        W26109  11.628  13.834  11.833  0.1153  0.2935  0.2367
10493W        W26110  14.106  11.231  15.052 -0.5039 -0.0848 -0.0410
10494W        W26111  16.317   9.094  13.795 -0.0721 -0.2401 -0.4527
10495W        W26112  11.118  12.843  15.853  0.0026 -0.1146 -0.0088
10496W        W26113  17.259   3.677   0.732  0.0575  0.2156 -0.0330
10497W        W26114   7.820  15.768   1.615  0.0931  0.0488  0.1701
10498W        W26115   6.437  10.833   3.732 -0.1096 -0.0485 -0.1284
10499W        W26116  17.623   0.844  13.480  0.1828  0.0472 -0.1472
10500W        W26117   5.571   0.565   4.822  0.1125  0.0787 -0.1138
10501W        W26118   7.939   0.849   6.403  0.2745  0.0161  0.0673
10502W        W26119  14.867  17.268  16.271 -0.1061  0.1677 -0.0717
10503W        W26120  12.793   4.875  11.858  0.2411  0.2237  0.3322
10504W        W26121  10.936   3.442   3.162 -0.3106  0.1939 -0.0101
10505W        W26122  16.507   0.343  16.129  0.5161 -0.0151  0.1015
10506W        W26123  12.493  16.610  15.633  0.1435 -0.0940  0.0461
10507W        W26124  13.628  13.585  12.996 -0.0350 -0.2053  0.3640
10508W        W26125  15.074  11.645   5.048  0.1023 -0.0051 -0.1911
10509W        W26126   7.198  11.938   5.359 -0.0494  0.2204  0.3219
10510W        W26127  16.701   1.930   2.949  0.0595  0.1234  0.1927
10511W        W26128   9.354   2.292  15.209  0.1205  0.1916 -0.0981
10512W        W26129  15.931  12.345   0.288  0.1858  0.1354  0.1965
10513W        W26130   7.444  16.462  11.499 -0.1725 -0.1122  0.0310
10514W        W26131   3.484  13.166   2.652  0.0035 -0.2399 -0.1257
10515W        W26132   9.991   7.065   6.178  0.1906  0.1810  0.0567
10516W        W26133   8.492   2.199   0.634 -0.0351 -0.3983 -0.5130
10517W        W26134   8.838   1.451  14.937 -0.1319 -0.0484 -0.1518
10518W        W26135   2.095   6.524  13.686  0.2016 -0.1473  0.3716
10519W        W26136  11.934   6.141   1.997  0.1266 -0.2281  0.0360
10520W        W26137  10.702  14.717  13.578 -0.0294 -0.0130  0.0130
10521W        W26138  12.566  17.016   1.913 -0.0083  0.1369  0.1123
10522W        W26139  15.615   8.298  16.251 -0.2582  0.1459  0.0502
10523W        W26140   5.058  15.764   1.697 -0.1697  0.0929 -0.1424
10524W        W26141   7.242  12.288   1.279 -0.4552  0.0508  0.0076
10525W        W26142  14.605   9.970   2.649 -0.0012  0.1116 -0.0899
10526W        W26143   5.235  11.529   0.178  0.1743 -0.3271 -0.0423
10527W        W26144  14.008  15.819   2.427  0.1935  0.1421 -0.1687
10528W        W26145   4.324   2.367   1.363 -0.0283 -0.1134  0.1614
10529W        W26146  11.165  10.938   3.848  0.1225 -0.0711  0.1440
10530W        W26147   2.412   5.507   4.471  0.3167 -0.1110 -0.2306
10531W        W26148   7.458   2.609  12.279 -0.1479  0.1529  0.0215
10532W        W26149   5.445   6.933   4.890  0.1022 -0.3125 -0.1759
10533W        W26150   5.622   4.405  11.404  0.1477  0.1525  0.0888
10534W        W26151   0.806  10.238   1.347  0.0372  0.1186 -0.3077
10535W        W26152  17.412   7.964   2.056 -0.1402  0.0954  0.1241
10536W        W26153  11.333  10.957   4.405  0.3030  0.2005  0.4813
10537W        W26154   7.423   5.943   4.085 -0.1386  0.3032 -0.2982
10538W        W26155   5.826   1.714   1.104 -0.0287  0.1905  0.1634
10539W        W26156   2.413  12.148  15.121 -0.4233 -0.1308  0.2858
10540W        W26157  12.371   3.383   5.660 -0.3391 -0.0816 -0.2846
10541W        W26158  14.423   9.364   2.450  0.3345  0.2458 -0.1850
10542W        W26159  15.348   4.347   2.726  0.1274 -0.4641 -0.3186
10543W        W26160  13.881   6.697   4.211 -0.0058  0.0055 -0.4276
10544W        W26161   5.620   3.393  13.758  0.1242 -0.3622 -0.0145
10545W        W26162   4.360  10.325   0.367 -0.1165 -0.3898  0.0807
10546W        W26163   0.284   3.121  13.490  0.4056 -0.0256 -0.0741
10547W        W26164   1.407  13.272   1.260 -0.0433 -0.0049 -0.1150
10548W        W26165  11.443  10.483  14.591 -0.3449  0.4165 -0.0221
10549W        W26166  12.417   4.606   1.920 -0.0210  0.0939 -0.0825
10550W        W26167   8.243  15.878  11.945  0.0997  0.1453  0.0340
10551W        W26168  17.034  11.699   6.377  0.1702 -0.0069  0.2427
10552W        W26169  13.213  14.131   5.475 -0.0038  0.0375  0.0255
10553W        W26170  14.867  12.604   1.955 -0.0397  0.1500  0.0976
10554W        W26171  10.795   5.832  16.518  0.3456  0.1946  0.0031
10555W        W26172  11.838  16.341  12.167 -0.2547 -0.0244 -0.2149
10556W        W26173   4.326   7.497   2.975  0.1732  0.1451 -0.1395
10557W        W26174  14.118  15.141   4.210 -0.1506  0.4669  0.0525
10558W        W26175   4.405   1.420   2.798 -0.1852  0.4690  0.0551
10559W        W26176   3.658   5.933  14.876  0.2943  0.0195 -0.0347
10560W        W26177  14.289  15.268   5.196 -0.2969 -0.0846 -0.0007
10561W        W26178   5.489  14.875  14.983 -0.0727 -0.2134  0.0358
10562W        W26179   9.018   2.304  13.778  0.1700  0.1218  0.0995
10563W        W26180  15.792  13.995  13.389 -0.1215 -0.1212 -0.1371
10564W        W26181  16.480   4.477  15.425 -0.0372  0.1323 -0.3590
10565W        W26182   3.438   5.836  11.778  0.0626  0.0314 -0.0545
10566W        W26183   3.660  15.837  16.500 -0.1140  0.0143 -0.0854
10567W        W26184   6.443  17.128  11.619  0.2823 -0.0701  0.0071
10568W        W26185  11.305   9.941  14.602  0.2126  0.1394  0.2295
10569W        W26186  17.353   3.159   5.217  0.3765  0.5437  0.1605
10570W        W26187   8.959  10.465   2.127  0.0212 -0.1801 -0.3121
10571W        W26188   9.834  12.565  14.399 -0.0265  0.0446  0.1183
10572W        W26189   0.848   0.662  16.314 -0.2314 -0.1918 -0.1028
10573W        W26190   5.781   9.883  12.799 -0.1749  0.1770 -0.0327
10574W        W26191  11.759  14.262  15.471  0.5033 -0.0503  0.0889
10575W        W26192   1.406  10.974   1.464 -0.1315  0.2899 -0.2570
10576W        W26193  12.385   9.113   2.248  0.2651  0.4103  0.0815
10577W        W26194   2.440   4.564   5.868 -0.1538  0.3485 -0.1534
10578W        W26195  17.018  17.667   3.849 -0.0300 -0.4080 -0.1316
10579W        W26196  16.232  10.365   4.782  0.1249  0.2328  0.4947
10580W        W26197  17.101   9.841   0.081  0.0034 -0.1004 -0.1644
10581W        W26198   2.629  17.689  12.083  0.0578  0.3071  0.1636
10582W        W26199  13.509   5.135  16.547  0.1878 -0.0083 -0.3176
10583W        W26200   2.517   6.635  16.525 -0.1452 -0.1256 -0.0310
10584W        W26201   1.076  12.604   3.506  0.2782  0.2735 -0.1246
10585W        W26202   7.827   8.516   4.043  0.1127 -0.1513 -0.2420
10586W        W26203  12.516   4.441  13.556  0.3338 -0.1826  0.0083
10587W        W26204   5.118  10.814   1.385  0.1328 -0.0954  0.1163
10588W        W26205  17.375   7.100  14.326  0.1661  0.1883 -0.0666
10589W        W26206   6.258   5.913  11.618 -0.0842  0.2290  0.1706
10590W        W26207   9.456   9.631   1.173 -0.2569  0.2885 -0.2971
10591W        W26208   2.710   0.952   5.359 -0.0969 -0.0646 -0.1056
10592W        W26209  15.362   7.463  16.603  0.0852 -0.1620 -0.3680
10593W        W26210   5.894   2.165  15.881 -0.2346  0.1219  0.0965
10594W        W26211   7.618  13.129  11.360  0.0096  0.3760  0.1482
10595W        W26212  10.780   2.583  15.789 -0.1222  0.3637 -0.1005
10596W        W26213   2.027  10.117   0.318  0.1666  0.0334 -0.2211
10597W        W26214   2.137  14.883  11.448  0.1097  0.0360  0.0093
10598W        W26215   0.776  14.859  15.789  0.0364  0.0540 -0.1460
10599W        W26216   7.975   5.025   1.812 -0.1436  0.1641 -0.3036
10600W        W26217   8.773  16.077  12.104  0.1080 -0.0159 -0.1037
10601W        W26218   8.891  11.290  14.060  0.1340  0.0113  0.0271
10602W        W26219   7.663   5.566  13.773 -0.0404 -0.0256 -0.0686
10603W        W26220   3.103  15.399  12.681  0.0274  0.0988 -0.0420
10604W        W26221  12.580  16.213  11.014  0.0646 -0.0074  0.0832
10605W        W26222   0.406   4.554   1.422  0.0694  0.2743  0.0969
10606W        W26223   7.655   4.632  16.315  0.2866  0.0249  0.1801
10607W        W26224   1.941  17.082   5.321  0.2535  0.1492 -0.0690
10608W        W26225   0.227   1.264   3.753  0.2013  0.0500  0.2640
10609W        W26226  17.835  10.747   3.730 -0.0769 -0.3593 -0.3652
10610W        W26227  17.783  17.431  13.928 -0.1965  0.0824 -0.0014
10611W        W26228   1.953  15.454   0.250  0.2453  0.2385  0.4551
10612W        W26229   6.811  15.213   1.728 -0.0632  0.0244  0.2178
10613W        W26230  12.856   8.729  12.561  0.3313 -0.2020 -0.0481
10614W        W26231   7.859  10.688   3.604  0.2091 -0.1882  0.2496
10615W        W26232   9.805  16.295  15.648 -0.3132 -0.1526 -0.3269
10616W        W26233  16.268   8.395   1.175  0.2415 -0.2312 -0.2339
10617W        W26234  10.723  15.563   0.732  0.2163 -0.1253 -0.0871
10618W        W26235  16.022   4.177  16.525  0.0550 -0.0398 -0.2224
10619W        W26236  17.796  14.934   3.371 -0.1232  0.1152  0.0839
10620W        W26237  10.443   6.183  16.389 -0.0135 -0.2891  0.1033
10621W        W26238   8.682  14.339   2.549  0.0471 -0.0141 -0.0783
10622W        W26239  14.446   2.636  14.128 -0.0954 -0.2337 -0.2135
10623W        W26240   6.626   5.915   3.484  0.3624  0.0906  0.2291
10624W        W26241  12.298   4.753  11.955  0.0876  0.0068 -0.2292
10625W        W26242   3.831  16.317  11.586  0.0953  0.2469  0.1465
10626W        W26243  14.548   7.882  12.499  0.2438 -0.0204 -0.3642
10627W        W26244   6.862  15.607  13.111  0.0322  0.0834  0.0379
10628W        W26245  14.229  16.816  11.966  0.1023 -0.0093  0.0623
10629W        W26246   3.430  13.522   2.252  0.0274 -0.0186  0.0524
10630W        W26247  12.723  14.606   3.037  0.0108  0.3192 -0.1338
10631W        W26248  16.390   0.828  11.699 -0.3187 -0.0020 -0.0872
10632W        W26249   4.582   3.019  11.480  0.1372  0.0148 -0.0991
10633W        W26250  13.624   7.636  14.701 -0.0612 -0.1156 -0.0174
10634W        W26251   9.925   5.257  13.379  0.2004 -0.0229  0.0072
10635W        W26252   8.784   3.275   2.048  0.2409  0.3048 -0.0177
10636W        W26253   6.229  16.789   0.180 -0.3086  0.0551  0.0559
10637W        W26254   0.673  16.430   4.145 -0.0178 -0.1087  0.0336
10638W        W26255   6.915   2.294   4.620  0.2042 -0.1008  0.1323
10639W        W26256  13.713  14.279  15.711  0.0545  0.0617 -0.1913
10640W        W26257   4.938   0.790  13.785 -0.2687 -0.4251  0.0556
10641W        W26258   4.050  12.531  15.142 -0.0103 -0.1280  0.7077
10642W        W26259   1.431  14.703  13.904  0.1945  0.1741  0.1841
10643W        W26260  13.727  15.438   3.898  0.1122 -0.0946 -0.2374
10644W        W26261   9.155  11.547   2.084 -0.1006  0.1081  0.3457
10645W        W26262  13.473   8.364  16.121  0.2493 -0.1742  0.1471
10646W        W26263   8.562   1.751   3.828  0.1579 -0.1062  0.0599
10647W        W26264   4.516  15.016  15.370  0.0714  0.0665 -0.3623
10648W        W26265   4.984   1.985   5.636  0.0403 -0.0407  0.0490
10649W        W26266  12.575   8.823   0.654 -0.4248 -0.0052  0.0535
10650W        W26267  11.992   1.303   4.089  0.1255  0.1966 -0.1134
10651W        W26268   6.549   0.438   3.246  0.0974 -0.0102 -0.3565
10652W        W26269  10.520   2.665   3.558 -0.0664 -0.2820 -0.1249
10653W        W26270  11.493   6.263  14.159  0.0597  0.2248 -0.3097
10654W        W26271   2.464   6.549   0.519  0.0539 -0.1145  0.0398
10655W        W26272  16.998   9.170   5.594 -0.0464  0.0250 -0.0139
10656W        W26273  10.519   6.591   0.019  0.1673  0.4539  0.3562
10657W        W26274  13.822   0.602   4.881  0.3674  0.1074 -0.1088
10658W        W26275  17.793  14.484  16.736 -0.1039 -0.0444  0.0813
10659W        W26276  16.951  15.174  16.129  0.0280 -0.1290  0.0594
10660W        W26277   2.774  12.593  14.928 -0.2731  0.4026  0.2181
10661W        W26278   2.123   5.910   4.722  0.0163 -0.2006 -0.2734
10662W        W26279   3.135   8.565  16.618 -0.3102  0.1754 -0.2303
10663W        W26280  13.182  15.821   6.314  0.4799 -0.1960  0.3556
10664W        W26281   9.869  16.609   0.686  0.1961  0.1653 -0.0860
10665W        W26282   3.664  10.036   4.196 -0.1434 -0.1332  0.0086
10666W        W26283   1.926   8.756   1.743 -0.0350  0.0910 -0.1133
10667W        W26284  10.861   0.666  16.467  0.1576 -0.2664 -0.2000
10668W        W26285  16.933  12.639  12.923  0.2849  0.1562 -0.1020
10669W        W26286   9.050   6.934  14.091 -0.2697 -0.1054  0.0786
10670W        W26287  12.748  11.597  16.210 -0.1349  0.0613 -0.2498
10671W        W26288   6.674   3.600   5.821 -0.1806 -0.0731 -0.3304
10672W        W26289  15.036   0.525   6.250 -0.0826 -0.0614 -0.2370
10673W        W26290  14.609  13.663  15.871  0.2132 -0.0634 -0.1710
10674W        W26291   4.103   8.150   3.691 -0.3556  0.2761  0.0771
10675W        W26292  11.000   5.459   3.244 -0.0624 -0.1113  0.0506
10676W        W26293   4.092  15.926  14.002 -0.0634 -0.1516 -0.2726
10677W        W26294  15.860   2.587  11.809  0.1397  0.0324  0.0040
10678W        W26295   3.501   4.289  13.744  0.0789  0.0894 -0.1330
10679W        W26296   6.277   6.161  14.454  0.0425 -0.1065  0.0441
10680W        W26297   3.383   7.002   4.584 -0.1508 -0.1078  0.1942
10681W        W26298   9.105  11.839   4.651  0.0225  0.2229 -0.0946
10682W        W26299   7.986   1.138   0.152  0.1792 -0.2220  0.3077
10683W        W26300  15.600  11.234  13.900 -0.1408  0.0528 -0.0041
10684W        W26301   3.853   2.239   2.465 -0.2344 -0.2728  0.0218
10685W        W26302   2.099   5.586   3.270  0.1693  0.1269 -0.0428
10686W        W26303  10.370   6.756   2.028  0.2083 -0.2811  0.3030
10687W        W26304  11.633   2.304  16.338 -0.0029  0.0130  0.0118
10688W        W26305   9.561   9.048   1.949  0.1176 -0.1022 -0.2439
10689W        W26306   9.308   6.361  11.503  0.3649  0.0247 -0.0924
10690W        W26307   8.936  12.928  14.067 -0.0625 -0.1563 -0.0252
10691W        W26308  13.127   9.865   1.745  0.1031  0.3842 -0.3815
10692W        W26309  14.677  17.434   2.972  0.2747 -0.0327 -0.0445
10693W        W26310   0.510   6.950   5.724 -0.2292 -0.0060  0.0248
10694W        W26311   4.042   7.118   1.429  0.3772  0.0545 -0.1907
10695W        W26312  17.545  12.917  12.031  0.0855  0.3259 -0.2495
10696W        W26313  14.089  11.752  14.888  0.3515 -0.0345  0.0932
10697W        W26314   9.620   7.339  12.670  0.1073 -0.0794  0.2766
10698W        W26315   1.345   5.698  15.346 -0.0608  0.1512  0.0184
10699W        W26316   5.668  10.081   3.233  0.0302 -0.1478  0.1067
10700W        W26317   7.275   6.340  12.458 -0.0415 -0.0094 -0.0802
10701W        W26318  14.261  12.756   0.527  0.1637 -0.0854  0.1471
10702W        W26319   4.299   6.208  11.455  0.1819 -0.0244  0.2174
10703W        W26320   3.022  16.589  15.411  0.0750 -0.1830  0.1405
10704W        W26321   7.465   1.043   0.323 -0.3315  0.0619  0.2914
10705W        W26322  14.803  16.546   6.172  0.1333 -0.1187  0.0379
10706W        W26323   4.967   3.381   1.844  0.0124 -0.2912 -0.0272
10707W        W26324   7.745  16.247   1.627 -0.1151 -0.0953 -0.0115
10708W        W26325   4.973   2.357  15.897 -0.0319  0.0162  0.0386
10709W        W26326   1.305   8.244  12.679  0.1538  0.1947  0.0068
10710W        W26327   9.320  11.560   0.552 -0.0536  0.0161  0.1544
10711W        W26328  16.679  12.992   0.747  0.2675 -0.0313 -0.1321
10712W        W26329   7.026   0.246  12.534  0.2341  0.0097  0.0225
10713W        W26330   7.286   7.921   4.039 -0.4088 -0.1334 -0.1475
10714W        W26331  16.398   0.738  14.201  0.2639 -0.1087 -0.0598
10715W        W26332   4.594   8.139  14.796  0.2237  0.1407  0.0498
10716W        W26333   5.596   3.008   5.315  0.1422 -0.2456 -0.0566
10717W        W26334  10.630  13.810  15.806 -0.1997 -0.2500 -0.1103
10718W        W26335  15.988   4.389  12.680 -0.2577 -0.0075 -0.0213
10719W        W26336   7.810   8.401  11.598  0.0515 -0.2082  0.1587
10720W        W26337   2.425   3.794  12.858 -0.1956 -0.0719 -0.0726
10721W        W26338  17.081  17.106  16.547  0.1033  0.0946  0.0067
10722W        W26339   7.970   7.134  16.213 -0.1170 -0.1529  0.2113
10723W        W26340  15.565   2.145  14.389 -0.0591  0.0880  0.1383
10724W        W26341  12.697   7.460   1.440 -0.3472 -0.0267 -0.1158
10725W        W26342  14.967   5.798  11.830 -0.1944  0.1490  0.1243
10726W        W26343  14.537  13.950   1.938 -0.1784 -0.0506  0.0920
10727W        W26344   1.174   7.067   2.720  0.0645 -0.1666 -0.2930
10728W        W26345  15.799   0.401   0.720  0.1822  0.0525 -0.1524
10729W        W26346   5.311   7.776   2.737  0.0658 -0.0011  0.0533
10730W        W26347   1.455  12.415   2.401  0.1594 -0.3020  0.0868
10731W        W26348  12.608   3.521  14.424  0.3452  0.0225 -0.1725
10732W        W26349  16.853   3.615  14.785 -0.0298 -0.3255 -0.1469
10733W        W26350   2.582   8.874  13.190 -0.1937  0.0706 -0.1454
10734W        W26351   6.687  10.744   0.663  0.0819 -0.2371  0.0567
10735W        W26352   0.980  14.531   4.041  0.0678  0.3113 -0.1765
10736W        W26353   1.544  12.613   3.724 -0.1182 -0.0409 -0.2686
10737W        W26354  10.058   9.230   3.041 -0.1010 -0.0906 -0.0200
10738W        W26355  12.108   6.684   3.367 -0.6036  0.0218  0.0259
10739W        W26356   3.271  17.531  12.510 -0.0031  0.1955 -0.1987
10740W        W26357  16.273  17.471  15.276 -0.1563 -0.2981 -0.0922
10741W        W26358   1.380  17.024   2.665  0.1610 -0.1899  0.1169
10742W        W26359  14.845   1.667   4.401  0.0682  0.1010 -0.2032
10743W        W26360   5.905  17.448   4.587  0.0064 -0.2150  0.0493
10744W        W26361   2.732   0.321   1.386 -0.1093 -0.0183 -0.0706
10745W        W26362   7.305  16.777  15.839  0.0526  0.3025  0.0827
10746W        W26363   7.813   8.554   0.471 -0.1839 -0.0192 -0.0485
10747W        W26364   6.194  17.695  15.390  0.0184  0.0110  0.0860
10748W        W26365   0.074  11.284  12.534  0.1399 -0.1954 -0.1862
10749W        W26366   4.377   4.494  13.558 -0.3043 -0.1648 -0.0186
10750W        W26367   7.243   3.052   4.594  0.1643 -0.0641 -0.0816
10751W        W26368  10.681   5.611  12.932 -0.1718  0.1267 -0.1697
10752W        W26369   3.501   7.065  16.580 -0.1453 -0.0559  0.1733
10753W        W26370  16.931   6.002  12.959 -0.3186 -0.1562  0.2352
10754W        W26371  17.824   3.928   5.652  0.0829  0.1923 -0.0278
10755W        W26372   6.384   1.703  14.625  0.0500  0.3574 -0.1999
10756W        W26373   7.383   4.658   5.829  0.2288  0.2409 -0.2916
10757W        W26374  14.739   5.846  16.333  0.1099  0.0539 -0.0986
10758W        W26375  15.811   8.180  16.794  0.1121 -0.0265 -0.0518
10759W        W26376  11.676  15.257   0.414  0.0263 -0.1527  0.0203
10760W        W26377  10.735  11.635   4.100 -0.0743 -0.0773  0.0257
10761W        W26378   7.021   0.282   3.271 -0.0571  0.0688 -0.0353
10762W        W26379  10.576   6.472  11.951 -0.0841  0.1094 -0.3185
10763W        W26380  11.725   7.064   2.214  0.1167  0.1893 -0.1758
10764W        W26381   6.308  12.019   4.962  0.2830 -0.2182  0.0721
10765W        W26382   7.480  12.135   4.374 -0.0768  0.1835 -0.4127
10766W        W26383   0.519  17.802  15.776 -0.0835 -0.1942 -0.3494
10767W        W26384   3.065   2.673  12.086 -0.2338 -0.1602  0.1203
10768W        W26385  13.418  14.534  12.051  0.0998 -0.0686 -0.3369
10769W        W26386   2.513   2.414   2.962 -0.1428  0.1141 -0.1175
10770W        W26387  12.787   4.412  12.062 -0.0728  0.0704 -0.2160
10771W        W26388  16.241   4.911   4.029  0.3819  0.0286 -0.0431
10772W        W26389  11.991  16.796  14.191 -0.0779 -0.2845  0.1453
10773W        W26390   1.704  17.451  13.560 -0.0134 -0.1662  0.1648
10774W        W26391   5.168   7.269  16.677 -0.3733 -0.2061 -0.0374
10775W        W26392   4.178   5.006  16.022  0.0010 -0.2068  0.0044
10776W        W26393   0.836   1.698   5.974 -0.0377 -0.1652 -0.0679
10777W        W26394  13.092  12.727   5.321 -0.1944 -0.1911 -0.0147
10778W        W26395  10.306   8.034   0.558 -0.0106 -0.4573  0.1215
10779W        W26396   0.175  15.225   5.056 -0.1409 -0.1965  0.0102
10780W        W26397  16.582   7.846  16.416  0.2326  0.0358 -0.4138
10781W        W26398  13.404  16.069   0.503  0.0415  0.5446  0.1041
10782W        W26399   5.288  12.311  13.580 -0.1512  0.0874 -0.0154
10783W        W26400  11.980  12.258  11.663  0.0674  0.2912  0.1916
10784W        W26401  15.575   8.732   6.224 -0.1960  0.1757 -0.0159
10785W        W26402   6.117   4.193  14.556  0.1107  0.0136  0.2343
10786W        W26403   8.431   2.304   5.383  0.0253  0.0111 -0.0302
10787W        W26404   8.147   8.858   2.421  0.1625  0.2296  0.3714
10788W        W26405  11.282   2.234  13.163 -0.2200  0.0044  0.0981
10789W        W26406   3.004  12.212  15.298  0.2587 -0.0503 -0.1889
10790W        W26407   0.682  15.203   2.332  0.2295  0.0751  0.2830
10791W        W26408  16.563  13.830  13.552 -0.1884 -0.0477 -0.1343
10792W        W26409   6.361   2.375  13.500 -0.1535 -0.3628 -0.2035
10793W        W26410  11.228  15.440   2.023  0.0377  0.1215  0.1595
10794W        W26411  15.182   5.112  13.815  0.0488  0.0620  0.3239
10795W        W26412  12.189   7.982   6.134 -0.0490  0.0381  0.1232
10796W        W26413   6.288  16.483   4.458 -0.0665 -0.2690  0.2316
10797W        W26414   9.431  13.590  12.031  0.3035  0.0885  0.3418
10798W        W26415   9.362   0.886  12.629  0.0260  0.0014  0.0929
10799W        W26416   4.718   4.230   4.046  0.1606 -0.0618  0.0831
10800W        W26417   7.196   9.629   1.343  0.0168 -0.2253 -0.0104
10801W        W26418   5.405  14.391  14.789  0.0703 -0.1669 -0.2428
10802W        W26419  10.662  13.257   1.612 -0.0759 -0.1490 -0.0028
10803W        W26420   5.296   4.537   5.227  0.2799  0.4404  0.0854
10804W        W26421  14.881  17.140  15.415  0.0010 -0.1579  0.1020
10805W        W26422  14.757   6.291   3.894  0.0765 -0.0094 -0.0883
10806W        W26423   0.429   1.913  13.819  0.3076  0.1179  0.0767
10807W        W26424  13.100  17.052   2.839  0.1376 -0.2787 -0.0563
10808W        W26425  15.915   1.601   3.832 -0.0546 -0.2707 -0.3143
10809W        W26426   4.574  13.061  11.203  0.0892  0.0949  0.1881
10810W        W26427  12.788  16.477  11.603 -0.1510 -0.0863  0.2849
10811W        W26428  15.612   3.286   0.275  0.0583 -0.0875  0.0458
10812W        W26429   6.484   1.878   0.783 -0.2601 -0.3442  0.0055
10813W        W26430   0.182  13.909   4.565  0.0047  0.2085  0.3436
10814W        W26431  13.999   8.805  13.876  0.1940 -0.0366  0.3239
10815W        W26432  12.686   1.668   2.016 -0.1359 -0.1544 -0.2226
10816W        W26433  17.862   6.187  15.889  0.1373 -0.1940 -0.4102
10817W        W26434   1.989   4.134  16.401 -0.1006 -0.1199 -0.1082
10818W        W26435   8.152  10.707  13.788 -0.2840 -0.0512 -0.1293
10819W        W26436   4.864   9.476   5.545  0.0753 -0.3326  0.0509
10820W        W26437   3.957  13.768   0.653  0.0887 -0.2928  0.0300
10821W        W26438   6.905  11.619  12.389  0.1256  0.0947  0.1595
10822W        W26439  12.527   6.419  11.716 -0.0160  0.2503  0.3293
10823W        W26440  17.612  17.493   0.413  0.1636 -0.0624 -0.0320
10824W        W26441   8.557  11.156   4.935 -0.0836 -0.2346 -0.1685
10825W        W26442   3.285   1.009  16.712 -0.0033  0.1113  0.0510
10826W        W26443   9.049  14.095   3.363  0.1793  0.0498 -0.0570
10827W        W26444  12.814   4.508  16.164  0.2044 -0.0414 -0.1665
10828W        W26445  15.409  13.962  16.325 -0.4134 -0.0075  0.2261
10829W        W26446   9.067   7.829   2.085 -0.1492 -0.0049 -0.1449
10830W        W26447   0.720   1.257   0.366  0.0818 -0.1075  0.0333
10831W        W26448   1.167   5.336   5.388  0.1403 -0.0381  0.0796
10832W        W26449   8.956   2.400   5.448  0.0175  0.2012 -0.0785
10833W        W26450  13.535  15.294  16.548  0.0332  0.0148 -0.1897
10834W        W26451   2.518   5.834  14.081  0.0017  0.0379  0.1435
10835W        W26452   6.531  13.312  15.352 -0.2364  0.2027 -0.0691
10836W        W26453   8.613   6.060  16.186 -0.1866  0.1668  0.2418
10837W        W26454  15.709   4.838  16.024  0.1288  0.2993  0.0550
10838W        W26455  16.368   1.886   0.089 -0.1165  0.0068 -0.0341
10839W        W26456  12.640  13.567   4.427 -0.0280 -0.1339 -0.2111
10840W        W26457   4.584  14.771  11.380  0.1165  0.0337  0.1228
10841W        W26458  16.373  17.738   5.243 -0.1855  0.1306 -0.0059
10842W        W26459   7.772   8.581   4.540 -0.0051 -0.0804  0.0047
10843W        W26460  15.340  14.538   4.464 -0.3332 -0.3844  0.0209
10844W        W26461  11.451   9.178  16.502 -0.1249 -0.0378  0.0641
10845W        W26462   1.227   0.355   0.502 -0.0244  0.0600  0.1217
10846W        W26463  13.434  12.248   1.415  0.0001 -0.0639  0.0361
10847W        W26464   5.373   8.225   1.080 -0.3871  0.1860  0.0504
10848W        W26465  13.883  12.327   2.978  0.0462 -0.1890  0.0800
10849W        W26466   3.494  13.960  11.400 -0.1995  0.0417 -0.1213
10850W        W26467  11.758  17.198  12.725 -0.0027 -0.1818 -0.4530
10851W        W26468  17.792  17.384  13.403  0.1986 -0.0986  0.0999
10852W        W26469   7.460   0.753   2.302  0.0565  0.0860  0.3609
10853W        W26470   7.324  16.652  16.272  0.1680  0.0800 -0.0196
10854W        W26471  13.303   9.843  13.388  0.1285  0.0194 -0.2003
10855W        W26472  12.645   2.872   4.840 -0.2583  0.2109 -0.0706
10856W        W26473  17.639  14.586   5.412  0.0658 -0.0412 -0.2350
10857W        W26474   0.847   2.401  16.268  0.4112 -0.2749  0.3574
10858W        W26475   7.806  11.399  13.335 -0.2705  0.1499  0.0668
10859W        W26476   0.107   4.615   2.713  0.0355  0.2665 -0.2066
10860W        W26477   2.154   0.616  15.713  0.0774 -0.2011  0.1401
10861W        W26478   8.963  17.783  12.447 -0.1340  0.1291  0.1471
10862W        W26479   8.511  16.892  13.411 -0.2323  0.1612  0.0044
10863W        W26480  15.912  15.179  13.048 -0.0463  0.2164 -0.1069
10864W        W26481  13.473   0.351  13.423  0.0187  0.1781  0.1311
10865W        W26482  11.040   0.168   0.346 -0.1166 -0.1253  0.1730
10866W        W26483  11.278   5.655  14.650  0.2432 -0.4328  0.0241
10867W        W26484   9.397   4.667  16.367 -0.1144 -0.0123 -0.0973
10868W        W26485   5.260  15.467  12.088  0.1348 -0.3422 -0.0163
10869W        W26486   7.138   1.182  12.132  0.3010 -0.0597  0.1233
10870W        W26487  12.945   0.610   5.601 -0.0998  0.0305 -0.1285
10871W        W26488   6.472   9.158   6.055  0.2212 -0.0697  0.0842
10872W        W26489   9.357  17.743  13.085 -0.0756 -0.2856  0.1836
10873W        W26490   4.218  11.611  13.454 -0.0023  0.2520  0.1442
10874W        W26491   8.586   6.780  15.436 -0.1234  0.0438  0.1976
10875W        W26492  16.993   4.671  16.496  0.3414  0.3776 -0.4050
10876W        W26493   9.693  12.830  13.312  0.1235 -0.0653  0.3224
10877W        W26494   1.868  15.663   5.889  0.1462 -0.0394 -0.2974
10878W        W26495  10.250   4.495   2.481 -0.0810 -0.0743 -0.0354
10879W        W26496   5.048   3.063   6.322 -0.2452 -0.1315 -0.1913
10880W        W26497  15.768  12.544   2.799 -0.1629  0.1296  0.0231
10881W        W26498  16.900   0.625  14.888 -0.2132 -0.1865  0.0215
10882W        W26499   1.798   8.843  10.888 -0.2213 -0.1378 -0.0675
10883W        W26500   0.254  13.453  14.466  0.0691 -0.1572 -0.2356
10884W        W26501   8.870  10.223  15.301  0.4598  0.0323  0.0376
10885W        W26502  13.937   6.186   4.927  0.0335 -0.0379  0.0164
10886W        W26503  17.081  15.022  15.613  0.0977  0.1756 -0.1193
10887W        W26504  17.762  16.187  12.521  0.1789 -0.4645 -0.2895
10888W        W26505   6.716   7.008   3.523 -0.1196  0.1643  0.1690
10889W        W26506   1.491  13.028   5.122  0.1027  0.1358 -0.2780
10890W        W26507  16.675   7.996  12.576 -0.2266 -0.0296  0.0634
10891W        W26508   9.753   2.580   5.877 -0.1528  0.1447  0.4661
10892W        W26509   0.023   0.169   5.046  0.0743  0.1636  0.2996
10893W        W26510   9.562   3.357   1.387  0.1529  0.1016  0.0368
10894W        W26511   5.673  12.775  15.414 -0.0302 -0.0504 -0.1640
10895W        W26512  15.614   1.395   2.561  0.2536  0.1985 -0.1812
10896W        W26513   9.970  15.521   4.020 -0.1033 -0.0096 -0.0162
10897W        W26514   3.128  10.524   5.008  0.1332  0.1327  0.0126
10898W        W26515  14.107  16.162  15.492 -0.2214 -0.0389 -0.0246
10899W        W26516  17.311   4.390  14.611 -0.0700  0.2484  0.0984
10900W        W26517  16.611   3.986  13.453  0.2281 -0.1072  0.0519
10901W        W26518  10.549   4.669  15.600  0.1032 -0.1198  0.2808
10902W        W26519   6.906   6.260  16.345  0.1348 -0.3178  0.5381
10903W        W26520  10.312   7.080  15.313 -0.0333 -0.1677 -0.0988
10904W        W26521  13.019   6.361   3.646 -0.1534 -0.2516  0.2024
10905W        W26522  13.486  17.659   4.025 -0.1142 -0.2573 -0.2012
10906W        W26523  14.140  11.680   3.646 -0.2181  0.0085  0.1185
10907W        W26524   8.559  11.421   5.903 -0.2228 -0.0497  0.1476
10908W        W26525   9.075  16.760   5.382  0.0987 -0.1366 -0.0993
10909W        W26526   3.589   2.484   2.111 -0.0296 -0.3804 -0.2059
10910W        W26527  10.567  16.861  12.340  0.0464 -0.0823  0.3816
10911W        W26528   4.709   8.927   4.498  0.0772  0.1866  0.1096
10912W        W26529   7.490   3.887   4.662 -0.0930  0.0218  0.0985
10913W        W26530   7.045   0.832   3.331  0.2783  0.0936 -0.1898
10914W        W26531  10.036   7.183  12.884 -0.1226 -0.0114 -0.2001
10915W        W26532   2.059   6.306   5.237 -0.0721 -0.1094 -0.0138
10916W        W26533   8.745   2.477   0.216 -0.0900 -0.1662 -0.0056
10917W        W26534  11.358  14.647   6.008 -0.2464 -0.1194 -0.4483
10918W        W26535   1.017   6.299   2.589 -0.3059  0.0653  0.2378
10919W        W26536  14.847   4.764   0.495 -0.0666 -0.0821 -0.0211
10920W        W26537  14.772   9.912   4.705 -0.2453 -0.0048 -0.2943
10921W        W26538   2.003  14.568   0.449 -0.2579 -0.0096  0.2570
10922W        W26539   1.962  13.947  13.812 -0.0487  0.0295  0.0179
10923W        W26540  17.481  17.198   1.898  0.0185 -0.0427  0.0391
10924W        W26541  17.215   2.030   2.752 -0.0551  0.3047 -0.2109
10925W        W26542  17.472  10.601   2.060 -0.2663  0.1884  0.0390
10926W        W26543  15.783   0.234   4.407 -0.1513 -0.2396  0.1918
10927W        W26544  14.583   3.538  13.012 -0.0793  0.2083  0.0951
10928W        W26545  17.249   8.861   4.442  0.1375 -0.3680 -0.0899
10929W        W26546  13.657  15.276   0.994  0.1127  0.3094  0.0843
10930W        W26547   2.446   3.798   0.057 -0.1635  0.1064  0.1147
10931W        W26548   8.093  13.776   4.146 -0.3145 -0.0415  0.1758
10932W        W26549   2.976   2.640  16.290  0.0141 -0.0876 -0.0867
10933W        W26550  16.773  10.777  10.522  0.2429  0.2941  0.0275
10934W        W26551  15.743  11.694   1.791 -0.2480 -0.0819 -0.1669
10935W        W26552   4.801   3.427  11.217 -0.1270 -0.0151  0.2316
10936W        W26553  15.822  10.231   2.147 -0.4589  0.1129 -0.1506
10937W        W26554  11.848  15.215  12.975 -0.1984  0.2296  0.1518
10938W        W26555  17.279   6.506   4.461  0.2915  0.0838 -0.1057
10939W        W26556   2.243  12.639  12.552  0.2877 -0.0896  0.1742
10940W        W26557  13.208  10.133  14.274 -0.0459  0.0735  0.2441
10941W        W26558   0.811   1.118   2.362 -0.0476  0.0289 -0.1161
10942W        W26559   2.635  10.553   5.135 -0.1096  0.2423  0.1471
10943W        W26560   5.903  15.894  16.418  0.2152 -0.4222  0.0542
10944W        W26561   7.963   3.494   3.377 -0.0222 -0.3515  0.1468
10945W        W26562  12.013   2.781   3.450  0.2415 -0.0869 -0.1845
10946W        W26563  17.689   1.406   4.899  0.0405  0.1402  0.2695
10947W        W26564  10.144  15.223   4.973  0.0138 -0.2567  0.1067
10948W        W26565  12.812   5.917   3.898  0.1657  0.0680  0.1625
10949W        W26566   5.534  10.909   3.014  0.2152 -0.0419 -0.0413
10950W        W26567   8.249   1.165  13.981  0.0060  0.0114 -0.2047
10951W        W26568  15.357  17.149   4.070 -0.0985  0.1316  0.0768
10952W        W26569  11.374  10.932  15.922  0.0117  0.3228 -0.1642
10953W        W26570   7.930   1.834  14.622 -0.2955 -0.2060  0.0639
10954W        W26571   7.557  15.229   2.424  0.0333 -0.0645 -0.0471
10955W        W26572   2.248   5.829  15.201  0.0487  0.1662 -0.1757
10956W        W26573   6.441  16.457  12.256  0.0406  0.0287  0.1335
10957W        W26574   6.384   2.587   0.170 -0.1162 -0.2928 -0.1781
10958W        W26575   8.645   0.136   2.249 -0.1040 -0.2183 -0.0592
10959W        W26576   9.431   4.414   3.393 -0.1062  0.1489 -0.0344
10960W        W26577  12.266  13.361   5.547  0.1808 -0.1570  0.2853
10961W        W26578  17.482   0.759  13.977  0.3127  0.1070  0.2830
10962W        W26579  13.091   6.210  14.855  0.1505  0.0436  0.3555
10963W        W26580   1.868   2.615  13.002  0.0910  0.2550 -0.0856
10964W        W26581   3.948   0.098  11.991  0.0413  0.0218 -0.1023
10965W        W26582  11.464   8.623   2.417  0.0101  0.1852 -0.5908
10966W        W26583   1.866   7.340  16.754  0.1976 -0.1693 -0.2310
10967W        W26584   7.085   9.690  13.364 -0.2891 -0.1216  0.0417
10968W        W26585   8.791   0.224   2.709 -0.1948 -0.1870  0.2274
10969W        W26586  11.025   7.322  14.420  0.0857 -0.1498 -0.0283
10970W        W26587   0.106  11.651  15.870  0.2024  0.0089  0.4053
10971W        W26588   3.409   4.541  15.122  0.1651  0.4078  0.0710
10972W        W26589  10.871  16.896   5.103 -0.1730 -0.1074 -0.0675
10973W        W26590   2.458  14.670   3.980  0.1446  0.0421  0.0238
10974W        W26591   9.518   5.431   1.131  0.1684  0.3029  0.0072
10975W        W26592  17.020   1.551  16.549 -0.0866 -0.0164 -0.1309
10976W        W26593   6.347  10.119  15.177  0.2242 -0.4620  0.0585
10977W        W26594   0.463  12.706  13.460  0.1820  0.2800 -0.1069
10978W        W26595  16.982   6.109  15.430 -0.1518 -0.0984 -0.3858
10979W        W26596   6.505   2.397   0.725 -0.0557 -0.0678  0.2388
10980W        W26597   0.080  16.884  13.166  0.2898 -0.2101  0.0349
10981W        W26598  10.870   2.511  12.988 -0.1572  0.0235  0.0961
10982W        W26599   4.186   4.935  12.515  0.2003  0.0182 -0.0854
10983W        W26600   7.809   2.132   1.602 -0.3198  0.0557  0.0313
10984W        W26601   2.528   8.607  12.520  0.2071  0.3220 -0.2837
10985W        W26602   9.402   2.584   0.521 -0.0516  0.2433  0.2007
10986W        W26603   6.932   3.386   3.541 -0.0833  0.2715 -0.0029
10987W        W26604  11.028   1.115  16.727 -0.0203 -0.0843  0.0181
10988W        W26605  14.805  12.967   4.127  0.2906  0.0707  0.0739
10989W        W26606  13.216   2.872   4.027 -0.1927  0.1016  0.2295
10990W        W26607  12.954  11.029  12.642  0.1829 -0.2967 -0.0267
10991W        W26608  12.157  12.837   1.042 -0.2788  0.2144  0.0667
10992W        W26609  17.467  15.463   5.819  0.0539 -0.0087  0.0928
10993W        W26610   8.111   4.980  12.295 -0.0347 -0.0143 -0.1682
10994W        W26611   1.390   1.700   2.140 -0.1558 -0.2963 -0.0771
10995W        W26612   1.795   2.222  13.309 -0.0500 -0.1504 -0.1959
10996W        W26613   6.905   7.022  11.979  0.2273  0.1313 -0.0531
10997W        W26614  14.733  12.715   1.412 -0.0002 -0.0898 -0.1256
10998W        W26615  15.477  10.969  16.303 -0.0047 -0.1360 -0.1494
10999W        W26616  14.163   7.624   0.007 -0.0666  0.2713 -0.1866
11000W        W26617  15.964   2.456  13.107 -0.0200  0.0902 -0.2409
11001W        W26618   1.267  10.424  14.126  0.1156  0.2926  0.1186
11002W        W26619   7.888   0.022   2.016 -0.2302 -0.0555 -0.0247
11003W        W26620   7.131   6.535   4.170 -0.1025 -0.1139 -0.2093
11004W        W26621   5.701  16.997  12.999 -0.0197  0.1653  0.0908
11005W        W26622   8.111  17.327   3.508 -0.1354 -0.2428 -0.2032
11006W        W26623  17.341  16.612   0.555  0.3152  0.0603  0.1152
11007W        W26624   9.639  12.916   4.762 -0.2650  0.2523  0.0680
11008W        W26625   2.708  17.640   3.808  0.1783  0.0296  0.2472
11009W        W26626  11.083  10.841   1.584 -0.0029 -0.0361  0.2458
11010W        W26627  16.327   8.749   4.291  0.1843 -0.1268  0.0976
11011W        W26628   3.395   8.599   0.201  0.0184  0.0782 -0.0525
11012W        W26629   0.910   5.201   3.872 -0.3389 -0.0571  0.3281
11013W        W26630  11.603   0.235   1.539  0.2565  0.0481 -0.0614
11014W        W26631   9.771  11.054   2.574  0.5533  0.1498  0.1556
11015W        W26632  16.136  12.982   0.586  0.1148 -0.0842  0.2061
11016W        W26633   1.007   4.793   3.625 -0.1886 -0.3074  0.2065
11017W        W26634  10.855  10.741  16.538 -0.3435 -0.0939 -0.0420
11018W        W26635  15.149   1.012  13.919 -0.0640  0.0250 -0.2995
11019W        W26636   8.037  14.506  11.626 -0.1427 -0.1616 -0.0892
11020W        W26637   9.618  12.620  12.189  0.1471 -0.0484 -0.1919
11021W        W26638   4.244   3.903   3.355 -0.2842  0.0958 -0.1607
11022W        W26639   3.586   1.598  11.538 -0.0709  0.1583  0.0673
11023W        W26640  13.138   1.289   3.302  0.2735 -0.2379  0.0952
11024W        W26641   6.969  15.144   1.212 -0.2898  0.2709  0.0099
11025W        W26642  16.936  16.489   0.881 -0.1337  0.3104 -0.1619
11026W        W26643   3.231   8.398   3.719  0.1116  0.0420 -0.1653
11027W        W26644   1.390  12.178   3.298  0.1353 -0.5076  0.2188
11028W        W26645   4.173   4.835   0.315  0.0225  0.3068 -0.0628
11029W        W26646  14.608   5.916  13.740 -0.1237  0.1659 -0.1946
11030W        W26647   9.775  14.967   2.771  0.1818  0.0100  0.2127
11031W        W26648   3.227  12.258   5.409  0.1118 -0.0689  0.0328
11032W        W26649   9.884   7.930  12.129 -0.0480 -0.0974 -0.1115
11033W        W26650   6.682  11.876   2.400 -0.0430  0.0810 -0.1301
11034W        W26651  17.508  17.043   3.684  0.3489  0.2704  0.3462
11035W        W26652   7.565  10.569   1.939 -0.1089 -0.2646  0.1599
11036W        W26653  17.343   7.884  12.041 -0.0608  0.1804  0.1903
11037W        W26654   0.747  11.317   2.194  0.4245 -0.0213  0.1149
11038W        W26655  10.164  16.025   4.245 -0.0592 -0.2921 -0.1896
11039W        W26656   5.970  14.942  14.892 -0.0980  0.0714 -0.0215
11040W        W26657   6.167   7.893  16.255 -0.0006  0.0820 -0.2399
11041W        W26658   6.470   8.651   4.890  0.1800  0.0434 -0.0496
11042W        W26659  17.600   2.058  14.427  0.1460  0.0316 -0.3590
11043W        W26660   2.673  14.839  16.797 -0.0154  0.0909 -0.1338
11044W        W26661   2.914   0.083   1.806 -0.0339  0.0460 -0.4630
11045W        W26662  14.181   8.623   2.458  0.2173 -0.0310  0.1774
11046W        W26663  13.632   2.648  16.316  0.1019 -0.2037  0.0566
11047W        W26664  17.221   3.061  12.992  0.2729 -0.1487  0.0103
11048W        W26665  17.639   0.179   2.295  0.0631 -0.3220 -0.0551
11049W        W26666  11.392  11.434  14.304 -0.0764  0.1678 -0.0721
11050W        W26667   5.359  14.674  12.383  0.1753 -0.0702  0.2653
11051W        W26668  12.938   0.735  14.989 -0.0563 -0.0326 -0.0713
11052W        W26669   0.443   5.565   5.539 -0.2486  0.2657  0.0930
11053W        W26670  14.549   1.162   1.177 -0.1226  0.0404 -0.0288
11054W        W26671  14.718   4.087  15.264 -0.0148 -0.2107  0.1523
11055W        W26672   1.309  15.308   1.875 -0.1745 -0.3756  0.2699
11056W        W26673   1.418  14.309   4.166 -0.0963 -0.1898  0.2571
11057W        W26674   9.640   2.208  13.344  0.0756 -0.5240  0.1259
11058W        W26675   9.129  10.034   3.990 -0.0842  0.0132  0.1008
11059W        W26676  17.540   3.734  12.061  0.0443 -0.2716 -0.0677
11060W        W26677   4.212   9.038  12.337 -0.0804 -0.3470 -0.2260
11061W        W26678   3.141  14.687   1.040  0.2278 -0.0188  0.0190
11062W        W26679  13.363   5.572   4.735 -0.2285 -0.0503 -0.0641
11063W        W26680   3.746  16.254   2.163  0.1150 -0.2918  0.0680
11064W        W26681   0.230   0.463   0.693 -0.1682 -0.2580  0.2207
11065W        W26682   6.631  10.524  15.371 -0.2609 -0.1042 -0.2099
11066W        W26683   7.193  13.335   2.149  0.2831  0.0285 -0.1779
11067W        W26684   5.969   0.101   4.390 -0.0488  0.2827 -0.0936
11068W        W26685   9.546   3.305  15.678 -0.3788  0.1829 -0.0010
11069W        W26686   0.902  15.084   0.112 -0.0955  0.4114  0.0883
11070W        W26687   6.667   3.538   3.176  0.0961 -0.0884 -0.3649
11071W        W26688  11.084   8.955   3.883  0.0130  0.0238 -0.0402
11072W        W26689  14.923   5.038  12.179  0.3632  0.1034 -0.0704
11073W        W26690   3.233   2.742  13.063 -0.1956  0.1342 -0.1560
11074W        W26691   4.386   7.294   5.692 -0.0664 -0.3185 -0.2549
11075W        W26692  16.635  15.829   2.970  0.2060 -0.2751 -0.1406
11076W        W26693  13.364  16.534   3.028 -0.0887 -0.0041  0.0668
11077W        W26694  10.239   0.476   0.358 -0.0257  0.3491  0.0339
11078W        W26695  12.868   1.178  14.676  0.1570  0.0341 -0.3077
11079W        W26696   6.750  14.255  12.230  0.1855 -0.1898  0.2682
11080W        W26697   8.410   2.233  16.171  0.0964 -0.2059 -0.1467
11081W        W26698   4.411  15.392  13.266 -0.0429 -0.1935  0.0328
11082W        W26699   3.279  15.620  16.159 -0.0700  0.0583  0.2175
11083W        W26700   4.018  15.493   3.812  0.0533 -0.0125  0.1147
11084W        W26701   6.773   4.961  13.000 -0.0314 -0.0574  0.0730
11085W        W26702  13.040   8.949   4.158  0.1040  0.1064  0.1567
11086W        W26703   2.360   5.314  14.263  0.0077  0.0393  0.0842
11087W        W26704   0.337  11.370  16.261  0.0473 -0.1414 -0.0814
11088W        W26705  16.012   8.476   4.626 -0.0045 -0.0441  0.2035
11089W        W26706   2.196  15.402   4.610  0.1519 -0.0319 -0.3223
11090W        W26707  14.240  10.155  15.389  0.2138  0.1226 -0.0239
11091W        W26708   0.582  16.940  13.310  0.1405  0.0544 -0.0749
11092W        W26709   8.800  11.028   4.071 -0.2338 -0.1504  0.1069
11093W        W26710  10.263   1.729   5.291  0.0363 -0.3017 -0.1268
11094W        W26711  11.814  12.412   2.750  0.4323  0.1944 -0.2166
11095W        W26712   8.138   5.858  12.911 -0.2436  0.3498  0.0623
11096W        W26713   8.654   2.855  15.377  0.1030  0.2256  0.1268
11097W        W26714   8.233   0.076   5.518 -0.1962 -0.1878  0.1679
11098W        W26715   9.981  15.224   5.393  0.4090 -0.4892 -0.1442
11099W        W26716   5.752   7.755   3.086  0.0965  0.0943 -0.3018
11100W        W26717   7.987   7.126   1.833  0.1745 -0.0157 -0.4164
11101W        W26718  16.621   7.468   3.530  0.1042  0.2597 -0.0771
11102W        W26719   9.795  10.000   1.363 -0.0290 -0.1693  0.0577
11103W        W26720   0.593  13.397  16.747  0.3061 -0.0844 -0.2455
11104W        W26721   6.678  13.148   0.043 -0.2445 -0.2840 -0.0318
11105W        W26722  14.715   1.522  12.773  0.2490  0.2604  0.0495
11106W        W26723   4.902   4.220  16.205 -0.1290  0.1689 -0.0455
11107W        W26724  10.460  12.608  15.276  0.0442 -0.1360 -0.1221
11108W        W26725   0.443   2.554  14.679  0.0909 -0.0330 -0.2229
11109W        W26726   1.626   6.401  12.367  0.0516  0.1561 -0.0047
11110W        W26727   7.187  14.834   2.471  0.1039  0.0809 -0.0321
11111W        W26728  10.817   5.846  14.783  0.0845 -0.0646  0.1299
11112W        W26729  13.945   8.592  12.847  0.2468  0.0684 -0.1636
11113W        W26730   5.813   3.274  14.831  0.1960  0.0987  0.0968
11114W        W26731  16.050  16.989   2.931 -0.0212 -0.1892  0.0980
11115W        W26732   0.306  12.716  15.485 -0.1275 -0.1386 -0.1540
11116W        W26733   3.307   4.802   3.798  0.0713 -0.1334  0.0218
11117W        W26734   6.327   0.338  11.839 -0.1574 -0.1064 -0.0624
11118W        W26735  11.296  14.401  15.548  0.1389  0.1337  0.2636
11119W        W26736   0.364  14.279   5.880  0.0450 -0.3644 -0.1669
11120W        W26737   9.698  16.890   4.383 -0.1915  0.1983 -0.0927
11121W        W26738  12.584  17.391  14.075 -0.1268 -0.1394 -0.1808
11122W        W26739   7.376  16.359  12.569 -0.1220 -0.1833 -0.2552
11123W        W26740   2.367  15.977   3.164  0.0555  0.4501  0.2943
11124W        W26741   5.895   8.275  12.272 -0.0603 -0.0139 -0.3339
11125W        W26742   5.113  16.453   0.466  0.1041  0.1198  0.3427
11126W        W26743   2.571   8.160  12.240  0.2516  0.0456 -0.0316
11127W        W26744   9.115  15.562  13.090  0.2570  0.2375 -0.1035
11128W        W26745   2.295   4.297   2.929 -0.1051 -0.0336  0.0902
11129W        W26746   9.766   0.392   1.688  0.2668  0.1327  0.0212
11130W        W26747   8.736   6.004  15.599  0.1892  0.3335  0.3560
11131W        W26748  10.972   1.775  11.752 -0.0240  0.1266 -0.1050
11132W        W26749  10.044  10.124  13.827  0.1162  0.1069  0.2205
11133W        W26750   8.227   5.473   3.116  0.1817 -0.1484 -0.1474
11134W        W26751   9.291   8.286  11.855 -0.0394  0.0880 -0.1211
11135W        W26752  13.117   7.777   0.692  0.2540 -0.0017  0.2231
11136W        W26753   7.484  14.886  15.928 -0.0766 -0.0792  0.1209
11137W        W26754  14.649  15.484  11.735 -0.1143  0.0371  0.2696
11138W        W26755   6.535  14.972  12.398  0.3077  0.0779 -0.1153
11139W        W26756   2.377   5.571  16.047  0.1899  0.3152 -0.1527
11140W        W26757   5.589   7.084  13.344  0.0631 -0.1605  0.1751
11141W        W26758  17.458  10.443   1.324  0.1310 -0.1245  0.2499
11142W        W26759   3.124  15.310   3.039  0.0802  0.0995  0.0943
11143W        W26760   4.294  14.309  15.831 -0.3317  0.0178 -0.2479
11144W        W26761  14.162   7.500  13.799  0.0260 -0.0213  0.3787
11145W        W26762   2.842  12.268  16.750  0.1913  0.0589  0.0105
11146W        W26763  10.132   9.195  15.062  0.1769 -0.2595 -0.2636
11147W        W26764  12.796   9.502   1.958  0.0556  0.2048 -0.0904
11148W        W26765  15.628  14.739  12.842  0.1881 -0.0753  0.1975
11149W        W26766   8.785  14.621  16.476 -0.3922 -0.0038  0.3336
11150W        W26767  16.315   1.872  13.882  0.2122 -0.0659  0.1121
11151W        W26768  12.958  16.931  16.011  0.3902  0.2437  0.0568
11152W        W26769   8.316   5.747   0.132  0.0134 -0.0879 -0.1713
11153W        W26770   6.137   6.610   3.593 -0.1228  0.0578  0.2888
11154W        W26771   7.424   3.824   1.894 -0.1373 -0.1383 -0.0934
11155W        W26772  11.397  11.215  13.437 -0.1197 -0.1031 -0.0233
11156W        W26773   8.192  15.591   1.320  0.3471  0.1568  0.3780
11157W        W26774   9.488   2.861   1.479  0.2396  0.2793 -0.1641
11158W        W26775  11.077   6.569   3.639 -0.3633  0.1139  0.0866
11159W        W26776  15.243  10.063  15.830  0.1202  0.7359  0.2622
11160W        W26777   6.784  15.858  16.517 -0.2124  0.2279  0.0644
11161W        W26778  14.564  10.469   3.369 -0.2045  0.0108  0.2074
11162W        W26779   1.866   7.496  12.523 -0.1150 -0.0476 -0.3426
11163W        W26780  15.418   7.460  12.495  0.0016  0.0683 -0.0245
11164W        W26781   1.028   7.238  14.894  0.2365 -0.3857 -0.0308
11165W        W26782  12.446   5.211  11.781 -0.1218  0.1165  0.0556
11166W        W26783   2.913   8.393   0.413 -0.1277 -0.0417  0.1247
11167W        W26784  14.087   3.202  15.078 -0.0969 -0.1111 -0.0439
11168W        W26785  16.307   8.043   0.650  0.0876  0.3111 -0.0032
11169W        W26786   2.278  13.788   3.781  0.0953  0.0489 -0.0153
11170W        W26787   8.933  12.583  15.381 -0.0222  0.1556 -0.1223
11171W        W26788  12.929   0.837  12.617  0.0730 -0.0425  0.0596
11172W        W26789  12.356   8.785  13.367  0.2589 -0.1197  0.0217
11173W        W26790  12.102  17.307  15.890 -0.2480 -0.1911 -0.0455
11174W        W26791  10.798   6.934  16.661 -0.2607 -0.0867 -0.0091
11175W        W26792   3.616   7.828  15.584  0.0534  0.0942  0.2385
11176W        W26793  15.000  11.869   0.705  0.0685 -0.1709 -0.1086
11177W        W26794   1.637   3.572  13.201 -0.2023 -0.2808 -0.1274
11178W        W26795   0.305   1.335   2.152  0.0449  0.0406 -0.0418
11179W        W26796  11.590  11.374   2.851 -0.2332  0.0557 -0.3101
11180W        W26797   9.369   5.660  15.010  0.4647 -0.2510  0.2301
11181W        W26798   7.757   6.033   1.298  0.2610  0.1396 -0.0421
11182W        W26799   9.016  15.816   5.156 -0.1449  0.3556  0.1045
11183W        W26800   6.933   3.219   5.592 -0.2110 -0.2942  0.2728
11184W        W26801   3.234   9.130  15.388 -0.4094  0.0237  0.1574
11185W        W26802  16.783   6.985   2.778  0.1249  0.1230  0.0069
11186W        W26803  17.818   1.099  11.768 -0.0044 -0.1594 -0.1053
11187W        W26804   1.016  15.213   2.767 -0.0037  0.3851  0.0303
11188W        W26805   5.865  14.743  14.052  0.0192 -0.2756  0.0466
11189W        W26806  12.176   7.336   1.542  0.2713  0.1829 -0.0573
11190W        W26807   2.121  12.614  16.206 -0.0863 -0.0286  0.0605
11191W        W26808   4.186   8.445   1.375 -0.0433 -0.0755 -0.0991
11192W        W26809   8.207  12.434  16.637  0.0664  0.0974  0.2697
11193W        W26810   5.336   1.095   1.580  0.2291  0.0627  0.2833
11194W        W26811   9.060  12.059  14.637 -0.1798 -0.1876  0.1408
11195W        W26812  11.641   4.452  13.926  0.3351 -0.2643  0.0092
11196W        W26813  10.519   6.988  12.759  0.0262  0.0862 -0.2025
11197W        W26814  14.549  11.613  12.632  0.2762 -0.0767  0.1208
11198W        W26815   4.820  15.136  16.306  0.1265  0.1416 -0.2132
11199W        W26816   3.540  17.356  10.836 -0.2394  0.2253 -0.2389
11200W        W26817   3.855   6.202  13.183 -0.2774 -0.1032 -0.4303
11201W        W26818  13.165   1.725  15.351 -0.1561  0.2102 -0.0424
11202W        W26819   3.457   9.589   6.227 -0.2049  0.0837 -0.0707
11203W        W26820   6.821   0.934   1.569  0.1731  0.1642 -0.2190
11204W        W26821   4.854   4.676   4.823 -0.0266 -0.1624 -0.2319
11205W        W26822   1.555   8.108   0.447 -0.2412 -0.0786 -0.1215
11206W        W26823  12.373   0.488  14.261 -0.0780 -0.2024  0.3635
11207W        W26824   5.546  13.320   0.767  0.4605 -0.1217 -0.0495
11208W        W26825  15.429  14.318   1.534  0.0021 -0.0925  0.3395
11209W        W26826  14.233   2.241   2.614 -0.1058  0.0353  0.0522
11210W        W26827   3.660   0.808  11.732 -0.2070  0.0824 -0.4191
11211W        W26828  17.807   0.279  16.510  0.0386 -0.1241  0.1144
11212W        W26829  10.378  10.839   4.174  0.0364  0.0692  0.1906
11213W        W26830   6.031   6.621  15.004 -0.1917 -0.1715 -0.0674
11214W        W26831  10.977   0.579   5.475 -0.3290  0.2641  0.1423
11215W        W26832   6.356   7.035  14.076  0.1043  0.2441 -0.0733
11216W        W26833   9.157  13.533  11.208 -0.3657 -0.1823 -0.0297
11217W        W26834   4.655   5.591   1.717  0.0191  0.1211  0.0514
11218W        W26835   7.866  13.361   0.610  0.2483 -0.0330 -0.2707
11219W        W26836   0.616   9.507   4.887  0.2612  0.1078 -0.0581
11220W        W26837  11.898  13.891  12.361  0.1264  0.0368  0.0621
11221W        W26838  16.169   9.288   1.643  0.0090 -0.0787  0.2992
11222W        W26839  15.522  15.800  15.268 -0.0656  0.1718  0.0300
11223W        W26840   1.175  16.239  12.316  0.1994 -0.1293  0.0368
11224W        W26841   4.747   7.087   0.042  0.0138  0.1020  0.2575
11225W        W26842  16.106  14.839   1.799 -0.1434  0.2785 -0.1129
11226W        W26843   3.147   2.628  16.807 -0.0075  0.2426 -0.1918
11227W        W26844   1.633   0.690  15.326 -0.0971 -0.2477  0.2839
11228W        W26845   2.442  10.364  16.748 -0.2091  0.2734  0.0992
11229W        W26846  14.805  11.445   3.350 -0.0062  0.0690 -0.0235
11230W        W26847   4.488   1.473  16.138  0.0502  0.1403  0.2454
11231W        W26848   3.603   0.459  12.081 -0.0968  0.1257  0.0811
11232W        W26849   9.868  14.666   2.331  0.0334 -0.0750  0.0943
11233W        W26850  15.990  17.462   2.710  0.3020 -0.0445 -0.2570
11234W        W26851   5.343  15.165  14.518 -0.3177  0.0408 -0.0013
11235W        W26852   1.507  11.597   3.653  0.0501 -0.2278  0.1174
11236W        W26853  12.447  13.931  16.037 -0.2341 -0.0387 -0.1940
11237W        W26854  13.452   6.494   1.062 -0.1156 -0.0011  0.0746
11238W        W26855   4.734   6.180   2.162  0.0445  0.2573  0.1811
11239W        W26856  15.025   9.346   1.011 -0.3046  0.0574 -0.0854
11240W        W26857   9.431  11.048   5.061 -0.0404  0.1504 -0.4350
11241W        W26858   5.093   2.799  14.459  0.4218  0.0828  0.1757
11242W        W26859   9.049   1.958   4.619 -0.2601  0.0454 -0.1159
11243W        W26860   0.030  16.333  11.916 -0.0294 -0.0025  0.0466
11244W        W26861   3.850   8.882  14.700  0.0675  0.0651 -0.1364
11245W        W26862   5.301  15.507   2.577  0.0911  0.0393  0.1418
11246W        W26863   2.590   2.240   4.773  0.0402  0.3381  0.4124
11247W        W26864  10.150   2.941  15.221  0.1636  0.0987  0.0436
11248W        W26865   5.207   2.165  13.130  0.0037  0.0020  0.0652
11249W        W26866   1.593  12.137   4.521  0.3215 -0.3922  0.0451
11250W        W26867  14.501  17.837   2.430  0.0887  0.0589 -0.2035
11251W        W26868  10.750   5.517   6.073 -0.2450 -0.2175  0.0294
11252W        W26869   3.232  10.366  12.061 -0.1080  0.0197  0.1405
11253W        W26870  15.507  14.272  15.544 -0.0053  0.1708  0.2372
11254W        W26871   8.009   6.149  11.037  0.1073 -0.1704  0.2156
11255W        W26872   6.395   8.755   5.693 -0.1249  0.1604 -0.0274
11256W        W26873   9.955   5.741  12.699  0.2452  0.1095 -0.0204
11257W        W26874  12.525  12.147  15.894  0.1254  0.0332  0.1167
11258W        W26875   1.646   5.928  11.461  0.2301 -0.3207 -0.0177
11259W        W26876   9.965  16.037   2.086  0.0177 -0.0508  0.2807
11260W        W26877  17.142  14.541  10.901 -0.1532  0.2263  0.1811
11261W        W26878  15.955   0.150  15.513 -0.0617 -0.0991  0.0040
11262W        W26879  11.008   3.144   2.643  0.0353  0.1449  0.0483
11263W        W26880  10.359  17.570   1.347 -0.0393 -0.0573  0.1416
11264W        W26881   3.708   2.475  12.996  0.1527 -0.4126 -0.1971
11265W        W26882   0.380   2.522   0.777  0.3054  0.0844 -0.1698
11266W        W26883   2.968   7.798   0.293 -0.0472  0.1531  0.0660
11267W        W26884   3.734  15.894   5.058 -0.0329  0.0420 -0.2096
11268W        W26885   6.140   3.640   5.770 -0.0572  0.1265  0.1890
11269W        W26886  12.780  11.120   3.547 -0.0996  0.0362  0.0157
11270W        W26887   5.858   8.227  16.746  0.1492  0.0891 -0.1043
11271W        W26888   0.090  13.784   4.070  0.0498 -0.0154 -0.0780
11272W        W26889  12.025  11.284   3.775  0.1490  0.0925 -0.0902
11273W        W26890   5.284  11.169   1.016 -0.2863  0.0919  0.1678
11274W        W26891  15.578  17.290  13.500 -0.2374 -0.2144 -0.1718
11275W        W26892   2.260  16.944   2.793  0.3748  0.1901 -0.1080
11276W        W26893   3.700  11.814  10.769  0.0292 -0.1078  0.3640
11277W        W26894  10.809  11.391   6.036 -0.0840  0.0630 -0.1835
11278W        W26895  14.698   5.967  15.197  0.0303 -0.3060  0.1629
11279W        W26896  13.370   1.998  12.993 -0.1487 -0.1677 -0.0088
11280W        W26897   1.821  11.597   5.137  0.1698  0.1065  0.0894
11281W        W26898   6.543  12.731  14.043  0.1015  0.3898  0.3434
11282W        W26899  17.220   8.634  15.309 -0.0452  0.4694 -0.0143
11283W        W26900  13.339   5.826  12.725  0.1094  0.2974 -0.0017
11284W        W26901   9.300   6.552  14.986 -0.1640  0.4753 -0.3044
11285W        W26902  12.340   4.893  16.330 -0.0198 -0.1222 -0.2056
11286W        W26903  15.331  11.621  12.587  0.1550 -0.3710  0.0578
11287W        W26904  11.994  17.463   0.040  0.0399  0.2291  0.0633
11288W        W26905   0.252   1.621   0.330 -0.2619 -0.0419 -0.1215
11289W        W26906   0.413   5.296   3.684 -0.2373  0.2776  0.2122
11290W        W26907   7.305   7.248   2.439  0.0845 -0.1166  0.2321
11291W        W26908  12.702   3.853  14.810 -0.0711 -0.0128  0.0671
11292W        W26909   8.926   4.429   3.583  0.1845  0.0430  0.2094
11293W        W26910   3.331   1.867   4.587  0.0469 -0.1959 -0.3381
11294W        W26911   2.126   6.513  14.669 -0.0786 -0.1707  0.1116
11295W        W26912  13.055   1.315  14.102 -0.0989  0.3940  0.0141
11296W        W26913  15.213   3.453  16.815  0.1347  0.1640 -0.2672
11297W        W26914  15.505   9.626   4.863 -0.1030  0.1981 -0.0227
11298W        W26915  11.904   8.552   1.010  0.1887 -0.1698 -0.3229
11299W        W26916  13.334  11.297   2.636  0.3237 -0.0990  0.1966
11300W        W26917   4.027  17.531   2.695 -0.1901 -0.0163 -0.1457
11301W        W26918   7.230   3.700  13.909  0.0844 -0.2218  0.0536
11302W        W26919  10.534  17.027  10.144  0.1214  0.1099  0.3327
11303W        W26920  13.325   2.276  15.549 -0.1163  0.2282 -0.0327
11304W        W26921   5.884   1.759  11.455  0.0279  0.0056  0.3924
11305W        W26922   2.813   0.818  12.076  0.0992  0.2239  0.3128
11306W        W26923   0.028  15.172   5.602 -0.2342 -0.1325  0.2675
11307W        W26924   5.616  17.789  14.139 -0.0538 -0.0383  0.0224
11308W        W26925   3.357   5.271   3.988  0.0314 -0.1637  0.0804
11309W        W26926   3.084  15.708   1.163  0.3646 -0.0494  0.0204
11310W        W26927  11.194   8.542  15.094 -0.0024 -0.3071  0.1031
11311W        W26928   2.906   6.937  15.802 -0.1205  0.1407 -0.0314
11312W        W26929   2.590  14.125  13.066  0.0681  0.2533  0.1816
11313W        W26930  13.652   3.388   0.768  0.2412 -0.4252 -0.0714
11314W        W26931  12.426   5.205   2.891 -0.0436 -0.0737 -0.0612
11315W        W26932   2.177   3.450   4.684  0.2344 -0.1298  0.3741
11316W        W26933  13.562  11.182  11.062  0.0374 -0.0283  0.0200
11317W        W26934   5.299   9.022   3.095  0.1224  0.0691 -0.0506
11318W        W26935   4.452   8.845   3.023  0.1966  0.1008 -0.1610
11319W        W26936   5.385  13.969   0.251 -0.2624  0.0579 -0.0172
11320W        W26937   6.677   5.241  15.072  0.0395  0.0053 -0.1119
11321W        W26938   2.084  14.892  15.086  0.4017  0.3978  0.2776
11322W        W26939   3.681   8.364  16.625  0.0118  0.0779 -0.0794
11323W        W26940   1.882   8.554  12.577 -0.0028 -0.2164 -0.0358
11324W        W26941   6.503  15.604   4.028 -0.5090  0.4141  0.0586
11325W        W26942  15.087   0.784   5.315 -0.2480  0.2317  0.1185
11326W        W26943  11.177   4.252   3.246  0.0323 -0.1943 -0.0512
11327W        W26944   5.975   9.371  10.998 -0.1207  0.3161  0.3537
11328W        W26945   4.328   8.387   5.458 -0.0697 -0.0668  0.0665
11329W        W26946   5.102  13.928  16.626 -0.3504 -0.1552  0.0133
11330W        W26947   5.767  11.327  11.409 -0.1024 -0.1557 -0.0399
11331W        W26948   2.092  11.435   6.024 -0.1875 -0.0426 -0.5346
11332W        W26949  10.009   8.159  12.682 -0.0179 -0.0497  0.1272
11333W        W26950   8.337  14.482  14.724  0.1312  0.1576  0.1115
11334W        W26951  12.312  13.222  16.736  0.3009 -0.0610 -0.0242
11335W        W26952   6.354  17.497   4.319 -0.2449  0.0544  0.1415
11336W        W26953   0.980  12.547  15.146  0.0795 -0.0327 -0.1320
11337W        W26954   2.886   5.467   2.578 -0.0514  0.0077 -0.1484
11338W        W26955   5.736   4.274  14.828  0.2662  0.0002  0.0667
11339W        W26956   0.086   6.527   3.826  0.2391 -0.2727  0.1026
11340W        W26957   9.795   4.978  16.313  0.1741 -0.1325  0.0914
11341W        W26958  16.135   9.767  13.037 -0.3121  0.2808  0.2536
11342W        W26959   8.798   4.906  14.489  0.4751 -0.0729  0.1081
11343W        W26960   9.209   4.489  14.394 -0.1095 -0.1556 -0.2803
11344W        W26961  12.909  15.505   0.239  0.2656  0.0059  0.1132
11345W        W26962   0.312  16.817   4.198  0.2100  0.0201  0.2447
11346W        W26963   1.045   7.554  15.494  0.0240 -0.0904 -0.0030
11347W        W26964   2.171   4.492   0.943 -0.0070  0.2005  0.0719
11348W        W26965   5.880   5.734  15.359 -0.2362 -0.1408  0.0196
11349W        W26966  17.785   2.107  12.879  0.0537 -0.1469  0.0814
11350W        W26967   4.824  10.309  15.033  0.1925  0.1217 -0.2743
11351W        W26968   1.194   4.354   3.937  0.2029  0.2051 -0.0442
11352W        W26969   6.141  12.570  15.430  0.2660 -0.0934  0.0230
11353W        W26970  15.777   5.566   3.432  0.1646  0.0677  0.0001
11354W        W26971   8.805  17.820  15.695  0.1436 -0.3887  0.1936
11355W        W26972   8.602   3.102   5.898  0.1301 -0.1671 -0.2794
11356W        W26973  13.657   1.852  15.539 -0.1470 -0.0394 -0.0410
11357W        W26974   4.547  14.373   2.662  0.2901 -0.3922 -0.0493
11358W        W26975   8.410   5.234   1.630 -0.0903  0.0575  0.0374
11359W        W26976  15.989   3.402  13.203 -0.0889 -0.0772  0.0908
11360W        W26977  12.900   0.204   4.640  0.0386 -0.2025  0.1569
11361W        W26978  12.427   7.257  15.980 -0.2541  0.2908  0.0435
11362W        W26979   3.155  14.569   3.815 -0.3331 -0.0366 -0.1291
11363W        W26980  14.250   2.810   1.949 -0.0512  0.1287  0.1721
11364W        W26981   6.202  17.066  13.112  0.0749  0.2598  0.1510
11365W        W26982   6.664  10.668  13.540  0.1377 -0.0404  0.0531
11366W        W26983   0.213  11.407   0.655 -0.0770  0.0942  0.1026
11367W        W26984   9.225   3.296   2.258 -0.0090  0.0097 -0.1552
11368W        W26985   1.851   5.339  15.811  0.2364 -0.1381  0.1756
11369W        W26986   2.257  14.904   5.467  0.1232  0.2616 -0.0933
11370W        W26987   5.998   1.308   3.890  0.0177  0.1926  0.0398
11371W        W26988   7.948  16.583   2.079 -0.2771  0.0934  0.2496
11372W        W26989   5.161  15.781  12.458 -0.0174  0.0540 -0.2196
11373W        W26990   1.936  17.007   3.595 -0.1158 -0.2630  0.0473
11374W        W26991   6.843   7.195   6.443 -0.0514  0.2582  0.1755
11375W        W26992   4.531   0.510   0.550 -0.1733  0.1524  0.1166
11376W        W26993  11.897  17.184  14.549 -0.2046  0.1354  0.3864
11377W        W26994  16.415   7.339   4.976 -0.0889  0.2319 -0.2524
11378W        W26995  11.695  14.254   1.096  0.3124  0.1007 -0.4009
11379W        W26996   1.223  16.944   3.734 -0.0874  0.2339 -0.0501
11380W        W26997  15.221   3.050  14.983 -0.1990  0.3548  0.0045
11381W        W26998  12.083  12.059  15.653  0.0117 -0.0936 -0.0038
11382W        W26999  13.772   1.490  12.567  0.0113 -0.1238 -0.4010
11383W        W27000   7.911  13.483   3.066  0.1661  0.0985 -0.0511
11384W        W27001  13.186  13.948  14.653 -0.1389  0.2672  0.1237
11385W        W27002  15.703  17.554  16.180  0.1264  0.1596 -0.2382
11386W        W27003   4.246   8.379  16.750 -0.1182  0.0447 -0.0119
11387W        W27004   5.404  15.907  13.345  0.1358 -0.0828 -0.0126
11388W        W27005  13.650  17.858  12.402  0.0084  0.2011 -0.1061
11389W        W27006   0.486   0.957   1.888 -0.0278  0.0871 -0.2088
11390W        W27007   8.301  16.341  12.048 -0.2191 -0.3987  0.1056
11391W        W27008   1.206   2.025  16.223  0.5288  0.2586 -0.1687
11392W        W27009  17.342  13.143  14.295  0.1547  0.1734  0.0827
11393W        W27010  17.861   0.693  14.342 -0.0625 -0.0849 -0.0650
11394W        W27011   8.316   8.165   5.432  0.1095  0.1883  0.1343
11395W        W27012   6.180   5.545   3.701  0.1351  0.2159 -0.1962
11396W        W27013   4.051  17.392   4.136  0.3759 -0.0719 -0.0358
11397W        W27014   5.290   3.479  15.135 -0.4088 -0.0619  0.3561
11398W        W27015   9.171   9.446  15.801  0.1377 -0.1408  0.3019
11399W        W27016  10.781   2.122   6.395  0.0525 -0.2581  0.0694
11400W        W27017   1.846   1.893   5.836  0.0311 -0.1367 -0.0434
11401W        W27018  13.410   1.577  12.174 -0.2424 -0.0003  0.3043
11402W        W27019   4.310   8.930  14.511 -0.1386  0.1601  0.0299
11403W        W27020  15.137   3.090   0.912 -0.1821  0.0516 -0.1666
11404W        W27021   7.122  17.449   2.805 -0.4348 -0.0698  0.0180
11405W        W27022  11.992   9.906   1.365 -0.2130  0.2273  0.0440
11406W        W27023   7.298   5.230   5.178 -0.0145 -0.1208 -0.1644
11407W        W27024  14.883   6.167  12.843 -0.2531  0.3554 -0.1438
11408W        W27025   2.064   5.796   2.789  0.1285  0.0406 -0.0871
11409W        W27026   7.024   8.668  16.000 -0.1654  0.0927  0.0746
11410W        W27027  11.151   9.448   1.445  0.1465 -0.1424  0.0528
11411W        W27028  12.743   3.053   5.492  0.3038  0.0044 -0.1075
11412W        W27029  15.775   5.761   4.855  0.2154  0.0597  0.1472
11413W        W27030  10.869   6.882   2.185 -0.1506 -0.0351 -0.0125
11414W        W27031  17.393  13.620  15.397 -0.2084  0.2616 -0.0106
11415W        W27032   8.206  10.388  16.278 -0.3069 -0.3160  0.1734
11416W        W27033  10.816   9.244   5.922 -0.1963  0.0695  0.0182
11417W        W27034   1.017  17.532  14.590 -0.0175  0.0991  0.1448
11418W        W27035   4.167   1.133  16.427 -0.3204 -0.0946 -0.1872
11419W        W27036  17.172  14.784  12.944  0.2518  0.3716  0.1513
11420W        W27037  11.038  12.791   3.543  0.0404  0.0224  0.0201
11421W        W27038   3.218   7.669  16.527  0.0953  0.3112 -0.3212
11422W        W27039   8.034  13.096  11.110 -0.1723  0.1863  0.0078
11423W        W27040  15.428   3.863   3.502  0.0463 -0.0557 -0.0191
11424W        W27041   2.608  14.682  11.520  0.1959 -0.2401 -0.3924
11425W        W27042   2.018  17.062  12.593  0.1982  0.1707 -0.0642
11426W        W27043  11.815   5.218   0.332 -0.0148  0.0088 -0.2636
11427W        W27044   7.173  10.775   4.266  0.0022  0.1356 -0.3177
11428W        W27045   0.093   6.298   2.212  0.1344  0.1897 -0.0381
11429W        W27046   7.303  12.555   4.165  0.0356 -0.2535  0.4112
11430W        W27047  17.641  14.465   1.488 -0.0127  0.2148 -0.1690
11431W        W27048   1.676   9.191   2.738  0.0795 -0.2025  0.3066
11432W        W27049  13.821   7.860   0.239  0.1479 -0.0691 -0.2122
11433W        W27050   0.185   9.837  16.470 -0.1222  0.2460  0.0767
11434W        W27051   3.022   9.006   0.019 -0.1847 -0.2806 -0.1312
11435W        W27052  12.333   2.565   2.504  0.0852 -0.0824 -0.1541
11436W        W27053  15.798  11.792   3.286  0.1760 -0.1070  0.0301
11437W        W27054  14.521  15.554  13.043 -0.1611 -0.0267 -0.0455
11438W        W27055   4.939  17.753  12.144 -0.3588  0.2501  0.1637
11439W        W27056  14.306  16.753   3.331  0.0139 -0.0727  0.0403
11440W        W27057  10.047  17.704   4.428  0.0840 -0.0923 -0.3098
11441W        W27058   4.691   0.808  15.221  0.0469 -0.1405  0.0462
11442W        W27059  12.087  16.912  15.617  0.2354 -0.1930  0.1022
11443W        W27060  17.270   5.605  14.692 -0.0815  0.0826  0.0805
11444W        W27061  15.730   0.405  13.579  0.1730 -0.0743  0.0318
11445W        W27062   5.216  13.515  12.790  0.1935  0.1141 -0.0656
11446W        W27063  17.347   9.752  13.183  0.2866  0.0126  0.1129
11447W        W27064   9.128   4.092   1.730 -0.1272 -0.0028 -0.1446
11448W        W27065  10.775   1.383   0.528  0.1647 -0.2598  0.1133
11449W        W27066   4.779  11.672   2.666 -0.2979 -0.1136  0.0880
11450W        W27067  17.856  15.006  15.189  0.2507 -0.0054  0.0047
11451W        W27068  13.604   4.625   1.512  0.0379 -0.1354 -0.1867
11452W        W27069  14.180  17.679   2.057 -0.0954 -0.0475  0.2906
11453W        W27070  16.928   1.037   1.569 -0.0612 -0.3918  0.1608
11454W        W27071   9.586   5.150   0.743 -0.2123  0.1621  0.1439
11455W        W27072   6.569  11.354   2.512 -0.0541 -0.1512 -0.1576
11456W        W27073   8.544  12.158   1.618 -0.0321 -0.1218 -0.0931
11457W        W27074  11.725   2.812   1.915 -0.1082 -0.1024 -0.2288
11458W        W27075  16.753   6.863  11.291 -0.1869 -0.2976 -0.2589
11459W        W27076  16.250   7.172   1.627 -0.0564 -0.2754  0.1028
11460W        W27077  13.902   4.086   4.930 -0.1930  0.0688  0.0351
11461W        W27078   8.537  11.697   2.623 -0.1204  0.1569 -0.0969
11462W        W27079  13.403  10.867   4.162 -0.0613 -0.0523  0.1027
11463W        W27080  12.558   7.642  13.105  0.2002  0.2982 -0.0734
11464W        W27081   6.313  16.911   3.003 -0.1763  0.1702 -0.0429
11465W        W27082  10.211   9.398   0.938  0.0291 -0.1375 -0.0502
11466W        W27083  11.490   7.843   3.531  0.1069 -0.1026  0.0012
11467W        W27084  15.684  17.180   0.558  0.0116  0.2125 -0.2103
11468W        W27085   4.243  12.778   2.325 -0.0922 -0.2126 -0.1379
11469W        W27086   5.935  13.816   3.097  0.0837  0.1119  0.1409
11470W        W27087   2.347   2.432  15.538 -0.2144  0.0758  0.1240
11471W        W27088   2.086   1.748   4.553  0.2419  0.3580 -0.0752
11472W        W27089  14.998  16.642  16.357  0.1090  0.0716  0.0671
11473W        W27090   0.625   7.026  12.276  0.0899  0.2267 -0.0593
11474W        W27091   1.643  16.624  15.429  0.0409 -0.0944  0.3827
11475W        W27092   7.216  16.848   3.957  0.1788 -0.0895  0.2567
11476W        W27093  14.345   1.199  10.967  0.0756 -0.1122 -0.3267
11477W        W27094   7.842  15.033  12.376 -0.1297 -0.2204 -0.1398
11478W        W27095   3.892   4.264   3.166 -0.0826 -0.0183  0.0238
11479W        W27096  10.534   3.529   0.489 -0.1168  0.1705 -0.0446
11480W        W27097   3.157   1.378   3.615 -0.1167 -0.0412 -0.2415
11481W        W27098  12.306   6.993  12.869 -0.0489 -0.0850 -0.2564
11482W        W27099  15.909   9.951   4.835 -0.1869 -0.0182  0.0042
11483W        W27100  17.463   5.379   3.194  0.0349  0.2183  0.4690
11484W        W27101  12.133   1.164   5.091  0.2521  0.0877 -0.2526
11485W        W27102   6.078  15.342   0.397  0.3969  0.0685  0.1317
11486W        W27103  15.730   5.008   3.674  0.0031  0.0119  0.0579
11487W        W27104   0.023  10.037   4.305  0.2592 -0.0572  0.0920
11488W        W27105   4.792  14.632  15.609 -0.0354  0.1590  0.2062
11489W        W27106   2.153   0.207  12.960  0.0366 -0.0545 -0.1228
11490W        W27107   2.144  11.521  13.598  0.0510 -0.3473 -0.0626
11491W        W27108   8.563   2.525   4.044  0.0005  0.2173  0.1073
11492W        W27109   3.816  17.799  15.321  0.0790 -0.1493 -0.2391
11493W        W27110   5.375   9.494   1.786  0.1278  0.0229  0.1306
11494W        W27111   9.264   8.628  15.890  0.0446 -0.2216 -0.0235
11495W        W27112   2.419  14.178  13.671  0.1410 -0.2961 -0.0976
11496W        W27113  16.550   6.761   0.320 -0.0173  0.0375 -0.0163
11497W        W27114   9.444   6.651  15.889  0.1579  0.1305 -0.2429
11498W        W27115   4.670   1.813   1.889  0.2370  0.0788  0.0363
11499W        W27116   6.033   7.163   1.977 -0.0441  0.0872  0.1656
11500W        W27117  17.747  11.465   1.086  0.1835 -0.0231 -0.0598
11501W        W27118  13.820  15.997   0.140 -0.1739 -0.1590 -0.2541
11502W        W27119   0.717  17.380  12.817  0.1352  0.0813  0.0259
11503W        W27120   0.996   4.334  13.612 -0.1000  0.0088  0.1154
11504W        W27121  17.429   9.766   2.189  0.1074 -0.0267 -0.1159
11505W        W27122  11.224  16.046  13.223 -0.0535  0.1958  0.3170
11506W        W27123  12.855  13.699   2.267 -0.2303  0.1276  0.3060
11507W        W27124  10.270   4.862  16.718  0.0095  0.0770 -0.2685
11508W        W27125   8.731  11.479  10.628 -0.3703 -0.2684 -0.3564
11509W        W27126  15.432  17.411  12.552  0.0213  0.2546  0.0018
11510W        W27127  15.586  11.979   2.870  0.0201  0.2238  0.2118
11511W        W27128  14.295  10.194  14.735  0.0523  0.0179 -0.0359
11512W        W27129   9.298   3.213  10.734 -0.1267 -0.0679 -0.0942
11513W        W27130   2.111  14.524   2.481 -0.0226  0.0352  0.2310
11514W        W27131  11.429  15.490   0.029  0.1953 -0.2289  0.1543
11515W        W27132  15.680  15.549   3.884  0.2752 -0.1292 -0.0687
11516W        W27133   3.238  11.710  14.938 -0.1859 -0.3756  0.0539
11517W        W27134   3.318  17.465  14.460 -0.2893  0.1360 -0.0999
11518W        W27135   6.680   9.643  14.447 -0.0298 -0.0772  0.2358
11519W        W27136   0.035  15.595   4.033  0.1892  0.4660 -0.2008
11520W        W27137   6.385   3.837   2.097 -0.1503 -0.0901  0.1936
11521W        W27138   0.527  10.694  12.817 -0.0827  0.0039 -0.0247
11522W        W27139   1.385   7.260   4.538  0.1297 -0.0240 -0.0126
11523W        W27140   8.785  14.579  12.652  0.1215 -0.1399 -0.2115
11524W        W27141   3.484   6.280   1.831  0.1528 -0.2701 -0.2128
11525W        W27142  14.282   7.633  13.297  0.0778  0.2398  0.0707
11526W        W27143  15.620  11.395   5.151  0.0852 -0.1511  0.2095
11527W        W27144   6.041   8.631   0.806  0.2439 -0.1965  0.0347
11528W        W27145  13.958   5.817   2.512 -0.2323 -0.1351 -0.3123
11529W        W27146  17.541   1.623  12.934 -0.0825  0.2451  0.0362
11530W        W27147  12.718   2.602  15.822  0.0249 -0.1717 -0.0084
11531W        W27148   7.079  12.491   4.701 -0.1037  0.0898  0.1140
11532W        W27149  14.118   9.219  13.075  0.0240 -0.0850  0.0330
11533W        W27150  10.057  15.593  13.963 -0.1190 -0.1560  0.1186
11534W        W27151   3.314  12.647  11.074  0.0594  0.2549 -0.0844
11535W        W27152  10.461  11.121   2.075 -0.0296 -0.1073  0.0462
11536W        W27153   3.854   9.234   2.661 -0.2557 -0.0819 -0.0723
11537W        W27154   2.932   1.013   1.847  0.0997  0.2467 -0.0696
11538W        W27155   5.434  17.463  14.529 -0.0972 -0.1849 -0.1117
11539W        W27156   8.188   9.463  13.129 -0.0304  0.2056  0.3002
11540W        W27157  16.013  11.731   1.055  0.0583 -0.2063 -0.1185
11541W        W27158  17.444   7.019  11.972 -0.1143 -0.1802 -0.0790
11542W        W27159  11.038  14.600   4.240  0.0231  0.0869 -0.1241
11543W        W27160   8.840  13.828  14.089 -0.3353 -0.0401 -0.0907
11544W        W27161  17.308   3.946  16.477 -0.0268 -0.1068 -0.0908
11545W        W27162   8.684  15.694  16.485 -0.2049 -0.0342  0.1165
11546W        W27163   4.929   7.895   2.379  0.0521 -0.0045  0.0849
11547W        W27164   5.728   5.407  15.927  0.4217 -0.0331 -0.1565
11548W        W27165   9.490   8.242   2.093 -0.0589  0.1797 -0.0423
11549W        W27166  16.829   4.197  16.382 -0.2199 -0.1091 -0.2121
11550W        W27167  14.764   7.140   1.076 -0.0380  0.3885 -0.3572
11551W        W27168  11.761   4.594   5.664 -0.4063 -0.3504 -0.0575
11552W        W27169  16.534   0.576  15.230 -0.0289  0.0480  0.0588
11553W        W27170  10.590   2.615   5.518  0.0117  0.1441 -0.0339
11554W        W27171   2.094  10.448   2.751 -0.0761 -0.1979 -0.0253
11555W        W27172  10.879  12.627   3.964  0.1542  0.1554 -0.1446
11556W        W27173  10.629  10.764  11.787  0.1591 -0.2158  0.3058
11557W        W27174   0.670  16.080   1.037  0.1393  0.1543  0.0188
11558W        W27175  11.230  11.077   2.459  0.1298  0.0626 -0.0976
11559W        W27176   3.106  13.507  14.165  0.1636 -0.0102  0.1607
11560W        W27177   9.588   8.571   1.753  0.2340  0.3256  0.0496
11561W        W27178  16.564   0.616   1.353  0.2958 -0.0576  0.2571
11562W        W27179  14.648  17.429   0.341 -0.1970  0.0189 -0.2972
11563W        W27180  16.429  17.649   2.565 -0.1009 -0.1170 -0.0848
11564W        W27181   9.801   6.878  16.175  0.2162 -0.0798  0.1520
11565W        W27182  14.920   0.088  16.548  0.1058  0.1538  0.1972
11566W        W27183   2.169  16.915  15.270 -0.0212 -0.0232  0.3572
11567W        W27184  11.371  12.803   3.928  0.3359  0.1214  0.0923
11568W        W27185   0.389   7.137  16.574  0.1912  0.2379  0.4154
11569W        W27186   2.856  17.164  15.994 -0.1252  0.0636 -0.1523
11570W        W27187   7.181   8.512  16.689  0.1449 -0.0119 -0.2918
11571W        W27188   8.490   4.952   4.924  0.1609 -0.2709 -0.3596
11572W        W27189   4.844   6.783  15.052  0.0865 -0.2402 -0.0382
11573W        W27190   4.499  17.213   4.291  0.0622 -0.0452 -0.3663
11574W        W27191   6.770   7.819   1.766  0.2194  0.2185  0.1030
11575W        W27192  14.061   3.506  11.144 -0.0638  0.1330 -0.2161
11576W        W27193   1.747   7.119  16.249  0.3221  0.1311 -0.1867
11577W        W27194  15.418  13.714  13.190 -0.1890  0.0501  0.0803
11578W        W27195   3.408  11.520  13.450  0.4044  0.0572  0.0991
11579W        W27196  17.804  17.563   2.689  0.2474  0.0394 -0.1853
11580W        W27197   7.264   0.546   3.639 -0.0030  0.4130 -0.0398
11581W        W27198  15.977   7.664   2.660 -0.0987  0.2165  0.1023
11582W        W27199   2.916   6.436  12.101  0.0498 -0.1943  0.1594
11583W        W27200  17.267  11.279   2.624 -0.1337 -0.2053 -0.1559
11584W        W27201  11.102   1.861  12.923  0.2027  0.1334  0.0957
11585W        W27202  15.205   6.799   1.033  0.2771  0.0484  0.4441
11586W        W27203   3.257   0.991  13.238  0.1850 -0.1549  0.0284
11587W        W27204   8.494   4.204  14.256 -0.1422  0.5095  0.1479
11588W        W27205  12.044   5.965   0.823  0.0500  0.0611 -0.0596
11589W        W27206   4.685   3.101  12.004 -0.0305 -0.0852  0.0309
11590W        W27207   0.824   9.243  16.211  0.3314  0.1364 -0.2018
11591W        W27208   4.996   1.481  16.767 -0.0665  0.2940 -0.0055
11592W        W27209   0.520  12.211  14.683 -0.1648  0.1062 -0.3162
11593W        W27210   6.270  11.487  13.014  0.2174  0.1041  0.0066
11594W        W27211  16.104  12.216   0.932  0.0482  0.0312  0.1914
11595W        W27212   1.993   5.285   2.856  0.0710  0.3255  0.0567
11596W        W27213  16.804   9.680  11.444 -0.1933 -0.0395 -0.1379
11597W        W27214   2.108   5.922   0.066 -0.2244 -0.0269 -0.2033
11598W        W27215  11.508  14.391   4.199 -0.1761 -0.1273  0.1786
11599W        W27216  14.508  13.936   5.005  0.1602  0.1775 -0.2204
11600W        W27217   9.641   5.713  16.652 -0.4451 -0.0608  0.1358
11601W        W27218  12.673   2.788  12.262  0.2557  0.0115  0.1506
11602W        W27219  14.020   1.116  12.388 -0.2519  0.0962 -0.1067
11603W        W27220  13.609  14.483  11.491  0.3876 -0.1588  0.0049
11604W        W27221   8.463  17.729  12.771  0.1382 -0.0298  0.0598
11605W        W27222   5.825  14.860   5.951 -0.1912 -0.0607  0.2123
11606W        W27223  12.567  15.794  13.405  0.0225  0.0424 -0.0958
11607W        W27224   5.384  15.326   2.115 -0.3455  0.1705  0.0503
11608W        W27225  15.593  10.118  15.103 -0.1396  0.0665  0.3364
11609W        W27226   1.615   3.359   3.071 -0.1557 -0.0617  0.0421
11610W        W27227  10.990  13.258  16.276  0.1846 -0.0547 -0.0079
11611W        W27228   2.393  16.738   5.234 -0.2744  0.0552 -0.2464
11612W        W27229  11.652  11.271   0.572  0.0275  0.3476  0.0710
11613W        W27230  16.383  10.361   3.256 -0.2393 -0.0345  0.0023
11614W        W27231   4.345   3.841   2.376 -0.2920 -0.0419 -0.1160
11615W        W27232   2.499   4.870  13.867 -0.5191  0.1240  0.2866
11616W        W27233   4.872   1.327   2.563 -0.2226 -0.0867  0.4417
11617W        W27234   3.828  17.749  11.019 -0.0929  0.0395  0.0237
11618W        W27235   2.839   4.671  14.773 -0.1027  0.1316 -0.1282
11619W        W27236  15.893  15.216  15.341  0.0700 -0.0467  0.1550
11620W        W27237  10.475  15.097   5.438  0.0721  0.2439 -0.1385
11621W        W27238  11.086  13.384   0.447  0.1304 -0.0651 -0.2291
11622W        W27239   3.300  12.731   2.675 -0.0702  0.1559 -0.0657
11623W        W27240  14.903   2.225   0.252  0.2183  0.2212  0.1353
11624W        W27241   2.990  12.145   0.757  0.0329  0.0893 -0.1009
11625W        W27242   8.447   0.568   2.538  0.3187 -0.0945  0.0168
11626W        W27243   3.318  11.595  11.553 -0.0119  0.1235 -0.0048
11627W        W27244   2.251   9.797   1.123 -0.1487 -0.0570 -0.0381
11628W        W27245   9.894   9.973   5.728  0.1230  0.1509 -0.4197
11629W        W27246   1.470   4.200   3.043  0.0564  0.3140  0.0053
11630W        W27247  16.693  13.126   4.057  0.0279 -0.1844  0.3260
11631W        W27248   3.228   3.052   3.963  0.2299  0.0104  0.0056
11632W        W27249  17.450  11.252  15.107  0.2403  0.2177  0.0495
11633W        W27250   2.994  14.484   4.719 -0.3769  0.2692  0.1438
11634W        W27251  13.310  13.813   3.700 -0.2915 -0.0339 -0.0863
11635W        W27252   9.685   6.718  11.658 -0.2339  0.0984 -0.0108
11636W        W27253   9.749   0.261   0.720 -0.0700  0.0343  0.0313
11637W        W27254   7.720   8.534  16.800  0.2159 -0.0510  0.5207
11638W        W27255   3.017   0.008   3.457 -0.0142  0.0104  0.0673
11639W        W27256   3.207  16.958   2.003  0.0032 -0.2199 -0.2328
11640W        W27257   6.469   6.884  14.976 -0.0798  0.1636  0.0024
11641W        W27258   9.786   8.265   3.526  0.3161 -0.0601  0.1594
11642W        W27259  13.056  16.027  13.459  0.2149  0.1273 -0.0885
11643W        W27260   5.836  10.445   5.546 -0.0578 -0.1522  0.0700
11644W        W27261  15.447  14.977  13.741 -0.1230  0.0666 -0.4585
11645W        W27262  12.478   6.039  15.530 -0.1142 -0.2156  0.0668
11646W        W27263  14.279  13.281  16.783  0.1552  0.2924 -0.0269
11647W        W27264   5.363  12.684   4.643 -0.1013 -0.1718 -0.3012
11648W        W27265  16.624   4.507   3.050 -0.1000  0.0921 -0.1035
11649W        W27266  15.362  14.993   4.681  0.1261 -0.1884  0.4040
11650W        W27267   4.473   5.016   1.967  0.1358  0.1029  0.3637
11651W        W27268  11.476   3.270  13.966 -0.0555 -0.3658 -0.0780
11652W        W27269   3.584   2.665  13.453 -0.1629  0.0396 -0.0934
11653W        W27270  14.964   5.230  13.164 -0.2380 -0.0908 -0.3300
11654W        W27271  12.557  15.616  13.936 -0.0723 -0.0057 -0.0314
11655W        W27272   5.788  10.558  12.544 -0.1431  0.2634  0.0340
11656W        W27273   5.784   3.147  13.378 -0.4659 -0.2386 -0.1067
11657W        W27274  10.680  11.573   1.353 -0.0214  0.2492 -0.1965
11658W        W27275   0.213  12.697   3.475 -0.3160 -0.1475  0.3006
11659W        W27276  13.412  14.361   2.362  0.0385 -0.3675 -0.0753
11660W        W27277   3.095   2.674   6.145 -0.3243 -0.2294  0.2804
11661W        W27278  10.656   5.191   2.325  0.2035  0.4065  0.0535
11662W        W27279  10.759  15.359   5.052 -0.0369  0.0324  0.1023
11663W        W27280   5.366   6.625  14.075 -0.1557 -0.1542 -0.2353
11664W        W27281   5.055   3.878   5.595  0.0344 -0.0932  0.1931
11665W        W27282  10.289   5.845   4.987  0.0430 -0.3479  0.2103
11666W        W27283   8.969   7.841  11.654 -0.0684  0.0163 -0.1272
11667W        W27284  12.730  10.049  13.556 -0.3574 -0.0154 -0.1278
11668W        W27285  14.029   1.524  14.009  0.0371 -0.1811 -0.1121
11669W        W27286  17.802  10.030  14.693  0.2116  0.1324  0.2526
11670W        W27287  13.405   5.594   5.257 -0.0636 -0.1884  0.3125
11671W        W27288   7.447   2.101  12.315  0.2190  0.3425  0.1118
11672W        W27289   4.149  16.050  16.656  0.2476  0.1070 -0.1744
11673W        W27290  16.566   0.943  13.792  0.0927  0.0206 -0.0733
11674W        W27291   2.308  14.233  12.128 -0.0335  0.1743  0.1407
11675W        W27292   4.765   7.594   3.362 -0.0144 -0.1054 -0.1313
11676W        W27293   7.306  17.123  13.908  0.1266  0.2369  0.1531
11677W        W27294  14.231   2.237   0.027 -0.0376 -0.0579  0.1033
11678W        W27295   9.886  15.704  14.963  0.1977  0.0832  0.2556
11679W        W27296  17.635   0.518   1.537  0.0356 -0.2852  0.2241
11680W        W27297   1.383   8.651   5.477  0.2125 -0.0159 -0.0235
11681W        W27298  15.259   0.915  16.026  0.0994 -0.0496 -0.0256
11682W        W27299  16.829   3.345  12.640 -0.0707 -0.3114  0.2441
11683W        W27300  11.166   9.272  12.361  0.1878  0.0034 -0.2050
11684W        W27301   7.258  10.232   6.300 -0.1065  0.1751  0.0747
11685W        W27302  11.874  16.646   4.417  0.0129 -0.0036 -0.1324
11686W        W27303   0.174   4.369   3.958 -0.0091  0.0737  0.0915
11687W        W27304   2.421  17.612  15.890  0.1686 -0.0205  0.1535
11688W        W27305   5.629   6.752   5.883 -0.0431  0.1688  0.0464
11689W        W27306   0.891   2.679  16.716 -0.2018 -0.0663 -0.2401
11690W        W27307  16.802  14.223  15.680 -0.1304 -0.2223 -0.1138
11691W        W27308   9.546   5.545  12.974  0.0468  0.0706  0.1554
11692W        W27309  16.898   4.593   0.215 -0.0424 -0.0791  0.1475
11693W        W27310   6.522  12.767  16.477  0.1087  0.2614  0.2657
11694W        W27311  13.774  13.480   2.075 -0.0140  0.2413 -0.0846
11695W        W27312  13.335   2.881  12.428 -0.1390  0.0487 -0.1444
11696W        W27313   9.184   9.739  12.008 -0.2291  0.0651  0.1687
11697W        W27314  12.733   1.496  15.537 -0.2373 -0.0189 -0.1607
11698W        W27315   8.965  13.615   1.612 -0.1840 -0.0638 -0.3650
11699W        W27316   5.024   5.361   0.707 -0.1076  0.0795 -0.0892
11700W        W27317  16.483   4.582   4.562  0.0777  0.2420 -0.1194
11701W        W27318  17.856  10.524  14.844 -0.1035  0.2412  0.0848
11702W        W27319  10.379   5.145   6.058  0.1678 -0.0309  0.1152
11703W        W27320   2.449  10.967   0.245  0.0506 -0.1062 -0.1512
11704W        W27321  16.197  14.505   2.261 -0.2694 -0.0008 -0.1069
11705W        W27322  12.822   5.032  12.348  0.1870 -0.1568 -0.0228
11706W        W27323  17.260  12.342  15.915 -0.2823 -0.1515  0.1920
11707W        W27324  12.876  16.183   1.448  0.1177  0.3623  0.2050
11708W        W27325   6.355  10.860   4.988 -0.0881  0.0216 -0.1444
11709W        W27326  11.685   6.853   5.814 -0.0169  0.1156  0.0989
11710W        W27327  12.922   7.025   5.698  0.0360  0.1702 -0.0736
11711W        W27328   1.415   5.178   2.171  0.2038 -0.2788 -0.0008
11712W        W27329   4.310   1.634  15.721  0.0071 -0.0775 -0.1321
11713W        W27330  16.717   0.413  10.600 -0.4086 -0.0339 -0.0037
11714W        W27331   8.849  12.243   4.850  0.0666 -0.3400  0.0989
11715W        W27332   3.938   3.674   6.133  0.1469 -0.0852 -0.1999
11716W        W27333   1.913   4.621  12.086  0.1882 -0.1917 -0.3220
11717W        W27334  10.689  13.414  12.448  0.0276  0.0505 -0.0849
11718W        W27335  16.810   6.393  14.600 -0.0330 -0.0631 -0.0439
11719W        W27336  15.571  12.234   4.125 -0.1085  0.0469 -0.2359
11720W        W27337   4.768  14.989   5.029  0.1870  0.1401  0.0081
11721W        W27338   2.886   8.550  12.121 -0.2274 -0.0847  0.0549
11722W        W27339  16.500   9.848   5.808  0.2452  0.1905  0.2562
11723W        W27340   7.793   8.728   1.074 -0.1680 -0.1314  0.1792
11724W        W27341  13.652   9.492   0.505 -0.3834 -0.1110  0.0115
11725W        W27342  13.191   7.743   5.130 -0.1424  0.0366  0.0690
11726W        W27343   2.529   8.104   4.750  0.0328  0.1002  0.0013
11727W        W27344   0.657   8.086  14.837 -0.3422  0.0132 -0.4387
11728W        W27345  14.302  11.030   0.144  0.0452  0.2868  0.1800
11729W        W27346   2.822   4.905   5.876 -0.2170  0.0675 -0.1945
11730W        W27347  13.612   4.612  15.730 -0.2221  0.0463 -0.1006
11731W        W27348  14.279  11.466   1.037 -0.0208 -0.0205 -0.0914
11732W        W27349   5.770   2.729  12.349 -0.0234 -0.2490  0.2462
11733W        W27350   9.411   5.311  16.514 -0.0840 -0.1113  0.2029
11734W        W27351   3.891   8.993  11.853 -0.4568  0.0499 -0.0448
11735W        W27352   8.489   9.463   1.243  0.0132  0.1009  0.0349
11736W        W27353  15.353  12.622   1.916 -0.1568  0.1726 -0.4698
11737W        W27354   7.578   8.628   2.699  0.2015 -0.0414  0.1785
11738W        W27355   4.233   2.646  11.759 -0.0976  0.1762  0.0273
11739W        W27356   6.590  15.555   0.818 -0.3817  0.0866 -0.2778
11740W        W27357   3.543   5.017  14.965  0.0825 -0.0869 -0.2034
11741W        W27358  13.148   7.773  13.491  0.1139 -0.0287 -0.1453
11742W        W27359  10.468  14.441  14.460  0.0003 -0.0397 -0.0903
11743W        W27360  13.398   7.675  14.232  0.0737 -0.4071  0.1346
11744W        W27361   9.961   2.352  11.657 -0.3369  0.0205 -0.0182
11745W        W27362  13.632  12.506  15.470  0.1104  0.2837 -0.1153
11746W        W27363  15.164  14.743   1.396  0.0219  0.2241 -0.0580
11747W        W27364  14.420   2.162   4.235  0.1009  0.2455  0.3975
11748W        W27365   7.918   1.939  16.000  0.4767  0.0185 -0.0364
11749W        W27366   0.702   1.957   3.475 -0.0146  0.1990 -0.2180
11750W        W27367   2.020  12.098  11.750  0.2077 -0.0999  0.2328
11751W        W27368   4.842  10.487  12.356 -0.1834 -0.1020  0.1165
11752W        W27369  16.229   3.530  15.892  0.1618  0.1550  0.1398
11753W        W27370   7.852  16.284  12.279  0.1128  0.1686 -0.2319
11754W        W27371   9.727   3.469   5.510 -0.0444  0.0025 -0.1029
11755W        W27372   7.032  15.415  10.107  0.1640  0.0150  0.0541
11756W        W27373  10.662  17.669   0.089  0.1873  0.1737 -0.0580
11757W        W27374   7.377   6.087  12.887  0.1309  0.1916  0.0257
11758W        W27375   0.790  17.633  15.395  0.1068  0.1102 -0.0505
11759W        W27376  17.395   4.486  15.147 -0.2693 -0.1623  0.0783
11760W        W27377   4.133   3.924   2.831  0.0339  0.1017 -0.0808
11761W        W27378   1.434   7.362   3.554  0.4102  0.0130 -0.2679
11762W        W27379  17.720   0.699  11.341 -0.2175 -0.0954  0.3432
11763W        W27380  17.588  11.786   6.353 -0.3108 -0.0266  0.0468
11764W        W27381   4.377  15.684  11.737  0.1016  0.3729  0.1284
11765W        W27382   5.192   5.044   1.079  0.2423  0.3193 -0.0011
11766W        W27383  12.179  10.311   5.306  0.2120 -0.0068  0.1797
11767W        W27384  10.301  14.226  16.606  0.3076  0.0556 -0.0051
11768W        W27385   7.954  16.413  14.423 -0.0823  0.1677 -0.0677
11769W        W27386  13.999  12.081   4.569 -0.0026  0.2259  0.2460
11770W        W27387   3.393  13.101   1.030 -0.0484 -0.1911  0.1299
11771W        W27388  15.101  16.036   1.642  0.1459  0.0046 -0.0062
11772W        W27389   0.717   4.762   0.702  0.4291  0.0489 -0.0668
11773W        W27390   4.836  17.167  15.637  0.0060  0.2180 -0.0620
11774W        W27391   2.555  11.662  14.630  0.0001  0.2336  0.1142
11775W        W27392   6.301  16.293  15.679  0.1487 -0.0965  0.3834
11776W        W27393  12.766  17.197   5.468  0.1532 -0.1891 -0.2211
11777W        W27394   7.856   7.505   5.117 -0.1633 -0.3056 -0.0609
11778W        W27395   2.052   4.745   2.981 -0.2560 -0.1557  0.2983
11779W        W27396   1.457  10.299   0.967  0.1227  0.1554 -0.0808
11780W        W27397  13.961   3.496  16.616 -0.1087 -0.2277  0.0409
11781W        W27398  11.185   2.996   3.097 -0.1147  0.3617  0.3103
11782W        W27399  10.679   4.678   1.576 -0.0980 -0.2301 -0.1399
11783W        W27400  17.220   0.090  15.527 -0.0573 -0.0816  0.0960
11784W        W27401  17.395   2.508   2.774 -0.0847  0.3588 -0.0181
11785W        W27402   5.769  12.501   3.050  0.2066 -0.0253 -0.1612
11786W        W27403   5.454   8.138  12.511 -0.0440  0.1981  0.0697
11787W        W27404   6.346   4.543  14.239  0.0998 -0.4121  0.0478
11788W        W27405  14.883   5.436   1.247 -0.2067 -0.0384 -0.0588
11789W        W27406   4.030   1.735   0.532 -0.0969  0.0000  0.1693
11790W        W27407  12.424   9.750  12.078 -0.2097  0.2583  0.1922
11791W        W27408   8.038   2.028  15.259 -0.4614 -0.0800  0.0292
11792W        W27409   0.322  14.145   0.830 -0.0845  0.0380  0.0390
11793W        W27410  10.012   1.860  11.432  0.1970 -0.1400  0.0563
11794W        W27411  12.276   0.845   4.005  0.1560  0.1150  0.2130
11795W        W27412   1.840   1.996  11.539  0.2381 -0.0805  0.2209
11796W        W27413   5.372  16.707   4.742  0.1961  0.2804 -0.1221
11797W        W27414   5.587  17.172   0.773 -0.0348  0.2017  0.0269
11798W        W27415   2.374  11.183   3.185 -0.2384 -0.0869  0.3475
11799W        W27416   8.046   0.560  14.522 -0.0983 -0.2035 -0.1111
11800W        W27417   5.045   4.980  14.051 -0.3485 -0.1268  0.0432
11801W        W27418   0.181   6.003  16.764 -0.4046 -0.1029 -0.1964
11802W        W27419  16.379  14.406  15.308  0.1635  0.2150 -0.1433
11803W        W27420   8.215   5.082   0.937 -0.1437 -0.0144  0.2019
11804W        W27421   7.787  14.043  14.056 -0.2633  0.2591 -0.1759
11805W        W27422  15.023  10.890   2.060  0.1255  0.0567 -0.3191
11806W        W27423  12.177   1.354   3.192 -0.0631 -0.0821 -0.2045
11807W        W27424   9.132   3.844  12.287 -0.2051 -0.1908 -0.1090
11808W        W27425   3.204  10.683  13.124  0.0160 -0.0078 -0.3330
11809W        W27426  12.089  14.911  12.686 -0.1142 -0.0620 -0.0308
11810W        W27427  12.316  11.330   3.360  0.0911  0.2684 -0.1332
11811W        W27428  17.662   0.912   2.885  0.0471 -0.0197 -0.1050
11812W        W27429  13.224   9.945   4.442  0.1490 -0.0042 -0.0322
11813W        W27430   3.481  14.260  14.186  0.0047  0.1052  0.0408
11814W        W27431  16.036   4.207  15.408  0.0011 -0.1105  0.1115
11815W        W27432   9.373   5.047  16.033 -0.2323  0.0461  0.0686
11816W        W27433  13.204   2.357  11.803 -0.0825 -0.1660  0.1616
11817W        W27434  11.907   1.801   1.311 -0.2216  0.0983  0.0786
11818W        W27435   7.033  14.486  15.206  0.1907  0.1024 -0.0110
11819W        W27436   4.168   5.596   4.095 -0.2594  0.0720  0.0820
11820W        W27437   3.454   4.776  13.690 -0.5594 -0.1246 -0.3963
11821W        W27438  17.748   7.652   4.214 -0.2468  0.1337  0.2431
11822W        W27439   3.664   0.673  13.120  0.1672 -0.0049  0.0126
11823W        W27440  11.598  16.191  15.875  0.0679 -0.0565  0.0254
11824W        W27441   6.856   2.651  12.734  0.2970  0.0242  0.1093
11825W        W27442   7.463  10.346   4.452 -0.0966 -0.0967  0.2173
11826W        W27443   7.969  15.531  12.229  0.2619  0.0502 -0.0152
11827W        W27444   8.409  11.266  14.284  0.1785 -0.0239  0.0215
11828W        W27445  16.725   8.937  13.163  0.0091 -0.1564 -0.1567
11829W        W27446   7.112  13.729   4.452  0.3086  0.4005 -0.2980
11830W        W27447  14.759   2.320   3.802  0.0448  0.0422 -0.1211
11831W        W27448  16.828   5.709  13.768 -0.2448  0.3396 -0.1305
11832W        W27449  13.470  12.549   2.190 -0.2393  0.0454 -0.1660
11833W        W27450   0.353   3.207   1.363  0.0310  0.1184  0.3016
11834W        W27451  15.070   6.194  15.791  0.2140 -0.1665  0.1490
11835W        W27452   2.294  17.377  13.566  0.0793  0.0482 -0.0302
11836W        W27453   2.328  15.100   0.283 -0.2529 -0.1124  0.2071
11837W        W27454   0.967   4.525   2.898 -0.2827  0.0289  0.1747
11838W        W27455  12.767  13.751   5.342  0.0251 -0.0578 -0.1772
11839W        W27456   1.302   1.812  13.826  0.0511  0.2016  0.2012
11840W        W27457   3.039   2.403   2.136  0.0230 -0.2516 -0.0090
11841W        W27458   0.065  14.249   2.923 -0.2703 -0.0226  0.1168
11842W        W27459   3.275   3.259  13.014  0.0636  0.2250  0.2708
11843W        W27460  11.291   7.128  16.317 -0.2970  0.1550 -0.0088
11844W        W27461  13.467   4.506  14.123 -0.0951  0.1131  0.1531
11845W        W27462   1.564   6.126   3.838  0.3549  0.2004 -0.0655
11846W        W27463   1.547  13.337  14.144 -0.0814  0.0291 -0.1073
11847W        W27464  11.768  10.039  15.904  0.0929  0.3011  0.1815
11848W        W27465   6.151  12.895   1.952 -0.5011 -0.0120  0.0348
11849W        W27466  17.079   2.683   2.411 -0.1719  0.1595  0.2002
11850W        W27467   2.737  15.298   4.401  0.4918  0.0641 -0.3781
11851W        W27468  12.822   4.984   5.145  0.4876 -0.0023 -0.1229
11852W        W27469  10.745   4.849  13.995 -0.2082 -0.0408  0.1429
11853W        W27470  17.490   2.995  14.194 -0.0916 -0.1941  0.0044
11854W        W27471   0.243  10.686   0.717 -0.1605  0.2844 -0.0597
11855W        W27472  14.128   5.596  12.348  0.3086 -0.1901 -0.0875
11856W        W27473  13.494   1.510   3.022  0.2943  0.0969  0.1949
11857W        W27474   3.569   0.421  11.093  0.0902  0.0368 -0.1002
11858W        W27475   9.463  15.439  14.392 -0.0041  0.1851  0.1364
11859W        W27476   6.837   5.618   0.972 -0.1421 -0.1551 -0.2284
11860W        W27477  13.159   6.763   0.679 -0.1812  0.1085  0.1998
11861W        W27478  13.015   8.085  15.522 -0.1443  0.0315  0.2974
11862W        W27479   0.684   3.056  14.754 -0.2676  0.0353 -0.0956
11863W        W27480  15.977   9.250  15.364 -0.2919  0.0404 -0.1629
11864W        W27481  16.116  10.850   4.568 -0.0045 -0.0172  0.2764
11865W        W27482  16.653  10.926   2.808 -0.2321  0.1768 -0.0716
11866W        W27483   9.968  13.756  14.215 -0.1233 -0.1399 -0.0805
11867W        W27484  10.811  13.382   5.909  0.2520  0.0932  0.1894
11868W        W27485  13.176  15.351   0.620 -0.0300  0.0151 -0.2920
11869W        W27486   7.785  17.113  11.339  0.0610 -0.1894  0.0142
11870W        W27487   3.901  16.882   1.188 -0.0807  0.1706 -0.1594
11871W        W27488   2.389  10.241   5.430  0.2043  0.1797  0.2993
11872W        W27489   8.406   8.586  15.639 -0.0745  0.1162 -0.1529
11873W        W27490   2.479  11.176  13.847 -0.1510 -0.1656  0.1333
11874W        W27491   8.094  12.162  14.786 -0.2361 -0.1277 -0.2369
11875W        W27492   2.155  11.033   0.932  0.1011 -0.0487 -0.0667
11876W        W27493   1.273   6.394   4.750 -0.1684 -0.1752  0.2148
11877W        W27494   4.745  12.986  12.673  0.1247  0.0317 -0.0243
11878W        W27495   3.266   3.028  13.508  0.1379 -0.1835 -0.3826
11879W        W27496  17.083   8.554  13.831  0.1456 -0.0611 -0.2150
11880W        W27497   6.485   5.357  16.601  0.1551  0.0712 -0.3557
11881W        W27498   6.607   2.008  15.004 -0.2585 -0.0610  0.2201
11882W        W27499  10.494   8.309  13.354 -0.2539 -0.1338  0.0850
11883W        W27500   7.810  11.683  14.119 -0.1352  0.0755  0.0671
11884W        W27501   6.567   9.012  16.722 -0.0474 -0.0782 -0.1943
11885W        W27502   8.528   4.723  15.914 -0.0754 -0.0763 -0.0233
11886W        W27503  13.207   6.659   1.441  0.2100  0.2321 -0.1218
11887W        W27504   6.262   7.396  16.658 -0.1240 -0.1158 -0.3626
11888W        W27505   8.451   1.103   2.719  0.0352  0.1282  0.2147
11889W        W27506  12.429   7.455   2.568  0.1506 -0.1168 -0.0157
11890W        W27507   8.518   8.701  16.541  0.0854 -0.1800  0.0844
11891W        W27508  11.311  17.164   6.189  0.1193 -0.0031  0.1745
11892W        W27509   3.177   5.654   3.721 -0.2597 -0.0916  0.1219
11893W        W27510  10.176  11.362   0.008  0.0377 -0.1075 -0.1569
11894W        W27511   6.315   7.282  12.816 -0.0319  0.1155 -0.4138
11895W        W27512   9.246   8.879   3.211  0.1443 -0.1250  0.0855
11896W        W27513   2.068   1.685   3.621  0.0598  0.1639  0.1182
11897W        W27514  17.845  11.330  15.424  0.3774 -0.1274 -0.1730
11898W        W27515   1.313  15.476   1.400 -0.1116  0.3218  0.1073
11899W        W27516   1.919   7.958  16.799  0.0158 -0.0255  0.4320
11900W        W27517   4.814   7.784  14.338  0.1199  0.0756 -0.2840
11901W        W27518   6.920  12.892   0.461  0.0440 -0.1628  0.0730
11902W        W27519   7.732  16.702  11.009  0.0088  0.4247  0.1501
11903W        W27520  13.125  12.094  12.671  0.2237  0.1228 -0.2447
11904W        W27521  15.383   9.687   6.052  0.0720 -0.0665 -0.1683
11905W        W27522   2.882  14.257  14.121  0.1830  0.0376 -0.2050
11906W        W27523  10.481  15.215  16.212  0.0802  0.4060 -0.0190
11907W        W27524  14.139   5.664   6.262 -0.2302 -0.4797 -0.4609
11908W        W27525  17.596   3.835   2.945 -0.0248  0.1451 -0.0794
11909W        W27526   8.946   1.949   0.025 -0.0111  0.0560 -0.1933
11910W        W27527   3.814   5.477  12.046  0.3400  0.1489 -0.0201
11911W        W27528  12.041  17.836  15.546  0.0843 -0.3769 -0.1223
11912W        W27529   1.365   9.169   1.012 -0.1934 -0.0934  0.3403
11913W        W27530  13.695   8.022  13.507 -0.2162  0.2099  0.3302
11914W        W27531   6.618   4.144   2.415  0.1475 -0.0173  0.1851
11915W        W27532  12.686  11.025   1.283 -0.2763 -0.0814 -0.2791
11916W        W27533   8.965   9.891   4.778  0.1726 -0.1305 -0.0327
11917W        W27534  12.468   0.805   4.457  0.1831 -0.0940 -0.1178
11918W        W27535   9.085  13.021   6.135 -0.0933 -0.1689 -0.1731
11919W        W27536   2.244   9.156   2.458 -0.5908 -0.0272 -0.3793
11920W        W27537   9.525   7.075  12.209 -0.3458 -0.0702  0.0230
11921W        W27538   5.428   7.374  16.210 -0.2076 -0.2287  0.0021
11922W        W27539   9.506  14.390   4.784 -0.1127 -0.4106 -0.0330
11923W        W27540   2.957   9.453  11.822  0.0008 -0.0242  0.1065
11924W        W27541   4.900  13.416  16.611  0.1255  0.0931  0.1783
11925W        W27542   8.981  12.337  12.754 -0.0644  0.3190  0.1096
11926W        W27543   5.314  13.707  15.820  0.4111  0.2391 -0.4625
11927W        W27544  14.140  11.223   2.117 -0.1285  0.0775 -0.0603
11928W        W27545   0.706   2.324   3.078  0.0547  0.0255  0.0548
11929W        W27546  10.723   0.560   1.663  0.0794 -0.1595 -0.3378
11930W        W27547   6.567   3.085  15.165 -0.2399  0.0980  0.0179
11931W        W27548  10.297  11.642   0.419 -0.0163  0.1903 -0.3359
11932W        W27549  14.283   2.454  12.568 -0.1220 -0.0774 -0.0731
11933W        W27550   4.527  16.780   3.053  0.1637 -0.0329  0.1491
11934W        W27551  12.566  16.226  13.782 -0.0748  0.1906  0.0903
11935W        W27552  13.358   0.297   4.886 -0.4158 -0.2028 -0.0892
11936W        W27553  12.813   9.602  12.319 -0.4265  0.1927  0.0072
11937W        W27554  12.555   1.011  14.329  0.1263  0.2311 -0.2480
11938W        W27555  10.551   5.057  11.263  0.2793 -0.1717  0.0132
11939W        W27556   3.390  16.004   3.969  0.0161 -0.0520  0.4645
11940W        W27557  12.634   9.213   4.390 -0.0443  0.2916 -0.0474
11941W        W27558  10.088   0.620  16.106 -0.2871  0.1704  0.0998
11942W        W27559  11.073  11.909  15.635  0.0111  0.1121  0.0355
11943W        W27560  12.613  15.200  15.849  0.0402 -0.1619  0.0515
11944W        W27561   8.032   9.621   2.523 -0.0333 -0.0010 -0.2591
11945W        W27562   9.679  16.086   1.623  0.3860  0.2077  0.0668
11946W        W27563   3.616  17.548  12.001 -0.1738 -0.1621  0.1826
11947W        W27564   2.569  10.237   4.482  0.0713  0.3070  0.0508
11948W        W27565   0.211   7.616  15.502  0.0893  0.0227  0.3867
11949W        W27566   5.494   4.010   2.300 -0.4408  0.1651  0.0664
11950W        W27567  16.621   9.564  15.670 -0.0082 -0.1011  0.0811
11951W        W27568  10.890   9.893   0.505 -0.0300 -0.1839 -0.0208
11952W        W27569  14.769  13.173   0.846  0.0678  0.0616 -0.1059
11953W        W27570  10.183  11.013   4.552  0.0419  0.2916  0.1504
11954W        W27571  15.127   8.292  12.106 -0.0526  0.6050 -0.3256
11955W        W27572   9.449  13.068  12.004  0.2743 -0.0340 -0.1825
11956W        W27573  13.349   2.646   0.071 -0.0444  0.3004 -0.0475
11957W        W27574   4.359   8.310   5.944 -0.0637 -0.2226 -0.0010
11958W        W27575   4.233  16.259   1.768 -0.1245 -0.0242  0.1163
11959W        W27576  10.421  11.924  14.214 -0.0323  0.1908 -0.0456
11960W        W27577   4.822  13.119  15.098 -0.1205 -0.0676  0.1552
11961W        W27578  14.951   7.922  14.079  0.2186 -0.0830 -0.1376
11962W        W27579  12.064   1.625  16.663 -0.0051 -0.2522 -0.0049
11963W        W27580  16.506   2.705   0.576  0.2601  0.0472 -0.0793
11964W        W27581   3.119  12.726  15.253  0.1985  0.1643  0.1662
11965W        W27582  15.329   3.171  11.799  0.3325 -0.1638 -0.2316
11966W        W27583   9.836   3.096   0.177 -0.0676 -0.0085 -0.0295
11967W        W27584  12.975   5.885   5.324 -0.1883 -0.0090  0.1504
11968W        W27585  11.022  15.174   1.102  0.1257 -0.0660  0.1013
11969W        W27586  11.412  13.028  12.563  0.0286  0.0312 -0.1089
11970W        W27587  15.810  12.770  13.205  0.1489  0.3291 -0.0936
11971W        W27588  15.155  12.480   1.469 -0.0263  0.2066  0.1427
11972W        W27589  17.450  12.171  15.304  0.0069  0.1165  0.3571
11973W        W27590   9.221  16.353  12.428  0.3820  0.0997  0.0940
11974W        W27591  15.558   7.177   0.630  0.2028 -0.0387  0.2375
11975W        W27592  12.508   1.193   4.753  0.1311 -0.2619 -0.2052
11976W        W27593  13.938   7.551  14.275 -0.1874 -0.0850 -0.2724
11977W        W27594   0.658  14.236  13.654  0.1701  0.0053  0.1286
11978W        W27595   2.809   2.037  12.735 -0.0915 -0.1242 -0.1397
11979W        W27596   7.324  12.694  16.204 -0.1408  0.1036 -0.0550
11980W        W27597  11.568   3.369   5.063 -0.3368 -0.4648 -0.1294
11981W        W27598   4.780   8.655   0.146  0.0905 -0.1313  0.1140
11982W        W27599   2.527   2.735   4.371 -0.4040 -0.0309  0.3166
11983W        W27600  13.921   1.058   4.620  0.0097  0.0090  0.1923
11984W        W27601   8.333  12.705   2.371 -0.0701 -0.0760  0.1038
11985W        W27602  11.999   4.756  11.534  0.0823 -0.3048 -0.4574
11986W        W27603  12.665  17.407  15.921  0.1780 -0.2656 -0.1259
11987W        W27604   2.355   4.426  11.713 -0.2467 -0.2527  0.1297
11988W        W27605   9.602  15.186  16.342  0.2055 -0.1293 -0.0969
11989W        W27606   3.244   5.299   1.994  0.4394 -0.0327  0.2113
11990W        W27607  12.537   5.718  14.738 -0.0540  0.2151 -0.0304
11991W        W27608   1.242  17.491  12.976  0.0066 -0.0183  0.3477
11992W        W27609   9.195   1.644  12.031  0.0993 -0.1477 -0.0499
11993W        W27610   3.444  16.508  14.970 -0.1536 -0.0354 -0.0402
11994W        W27611   1.624   0.181   0.767 -0.0219  0.1052  0.3221
11995W        W27612  17.302   2.814   4.868  0.1628  0.0672  0.0420
11996W        W27613  17.161   7.210   4.933  0.3310 -0.0829 -0.1032
11997W        W27614  17.610   6.678  14.313 -0.4776 -0.1768  0.0075
11998W        W27615  17.665  14.525   3.935 -0.0598  0.1755  0.2189
11999W        W27616   6.308  14.465  12.394 -0.3004  0.1174 -0.2474
12000W        W27617   1.595   8.369   1.975 -0.1582  0.2248 -0.1107
12001W        W27618   9.996   2.843  11.792  0.0825  0.0224 -0.5290
12002W        W27619   8.607   6.654  16.783  0.0886  0.1994 -0.5451
12003W        W27620   7.753  10.397  13.669  0.0435 -0.0140  0.2266
12004W        W27621  10.725  17.383  15.591 -0.0772  0.2017 -0.1167
12005W        W27622   8.043  13.313  16.534 -0.4338 -0.3383  0.1858
12006W        W27623  12.005   8.471   3.113  0.1893 -0.1575  0.1389
12007W        W27624   8.164  14.222   3.138  0.0805 -0.1981 -0.3527
12008W        W27625   4.462  15.268   2.656  0.0900  0.2401 -0.0959
12009W        W27626   3.262   1.020   4.761  0.2432  0.0000 -0.2642
12010W        W27627   0.500  16.412  14.742  0.2761  0.2626 -0.4940
12011W        W27628   2.074   1.921   5.024  0.1074 -0.0143  0.0064
12012W        W27629  14.182   4.086   0.989  0.0845  0.2230  0.1035
12013W        W27630  17.636  14.471   3.426  0.0363  0.6033 -0.1082
12014W        W27631   0.075   9.220  12.017 -0.0015  0.1219  0.1093
12015W        W27632  10.979   9.790  13.015  0.0758 -0.1700  0.0697
12016W        W27633   1.787  12.914   4.154 -0.2402  0.0235 -0.0115
12017W        W27634   4.453  13.242   5.454  0.3201  0.0403 -0.0321
12018W        W27635   5.534  13.816   1.643  0.3128 -0.1138 -0.1619
12019W        W27636   0.752  15.235  11.389 -0.2656  0.1314 -0.1512
12020W        W27637  10.757   6.039  14.258 -0.0011  0.0096  0.2846
12021W        W27638   9.033   8.136   0.349  0.1173  0.1169 -0.3527
12022W        W27639   1.239  17.456   3.958 -0.1527  0.0875 -0.3335
12023W        W27640   4.286  13.757  12.324  0.0247 -0.3763 -0.1812
12024W        W27641   8.854   4.253  14.656  0.1827  0.1322  0.2108
12025W        W27642   1.527  17.578   1.952  0.2655 -0.0170  0.2209
12026W        W27643  17.625   0.119  12.577 -0.0461  0.0048 -0.0801
12027W        W27644   3.287   9.568  12.896 -0.0106  0.1448 -0.2282
12028W        W27645   2.906  10.677   0.409 -0.1166 -0.1259 -0.3190
12029W        W27646   7.056   2.172  15.204 -0.1832  0.0068  0.0770
12030W        W27647  13.200  15.538   5.474 -0.0166 -0.0077  0.2142
12031W        W27648  11.607   7.152  15.864 -0.0710 -0.1181  0.3471
12032W        W27649  17.797  15.858   2.314  0.1872  0.0331 -0.1736
12033W        W27650   2.364   3.131   3.314 -0.1647 -0.1635 -0.1389
12034W        W27651   5.277  11.271  16.581  0.1758  0.0166 -0.1984
12035W        W27652   6.027  14.527   3.381  0.1232 -0.1422 -0.0785
12036W        W27653  15.909   0.652   5.646  0.0393 -0.1185  0.0787
12037W        W27654  12.724   7.117  13.166 -0.0316 -0.0705 -0.1923
12038W        W27655  10.046  10.077  11.887  0.0691 -0.0210  0.1656
12039W        W27656   9.326   0.354   2.959  0.2174 -0.0891 -0.2792
12040W        W27657   7.155   5.493   1.612  0.1385  0.2643 -0.2439
12041W        W27658  11.527  17.528   3.610  0.1140  0.4308 -0.1019
12042W        W27659  17.329   5.236   2.722  0.1714 -0.1044  0.0208
12043W        W27660   6.844   1.167  11.620  0.1106 -0.2440 -0.1967
12044W        W27661   2.609   2.756  12.513  0.0848  0.0120  0.0954
12045W        W27662   4.330   9.994   3.652  0.1566  0.0887 -0.2611
12046W        W27663  17.307   7.176   0.105  0.2217 -0.1503 -0.0115
12047W        W27664  14.509   6.257  14.688  0.1084 -0.2077 -0.2142
12048W        W27665   7.210  13.321   5.310  0.0290 -0.0644  0.1993
12049W        W27666  17.816   6.695   3.385  0.0481 -0.0250  0.0977
12050W        W27667   8.798   5.962   6.054  0.0569  0.0925 -0.0610
12051W        W27668   0.111  10.664   2.063 -0.0321 -0.0685  0.1478
12052W        W27669  14.748   7.170   0.186  0.0072 -0.0938 -0.0216
12053W        W27670   9.062  13.795  16.727 -0.1958  0.2025  0.3027
12054W        W27671   1.936   8.064  14.250  0.2164 -0.0338  0.0027
12055W        W27672  10.883   6.581   1.778 -0.4181 -0.0898  0.0862
12056W        W27673  15.832   6.914   3.328  0.1497 -0.3113  0.4321
12057W        W27674   1.972  17.463  11.308 -0.2806  0.2206 -0.0486
12058W        W27675   4.955  12.153   5.234  0.1986 -0.1900 -0.1054
12059W        W27676   2.878  10.759   2.353 -0.1247 -0.3833 -0.1948
12060W        W27677  17.814   9.943   0.102  0.1875  0.1761 -0.0063
12061W        W27678  12.213  12.413  12.099 -0.0539  0.2948  0.2355
12062W        W27679   9.206  10.034  16.485  0.0261  0.0503  0.2971
12063W        W27680  17.250  11.894  16.243  0.0570 -0.0434 -0.3529
12064W        W27681   6.803  14.705  15.995  0.0384 -0.2103  0.1521
12065W        W27682   1.092  14.868   2.343  0.0872 -0.2285 -0.1918
12066W        W27683   0.429   7.107   2.621 -0.0923  0.0432  0.1167
12067W        W27684  15.119  13.416   1.402  0.0428  0.2632 -0.1313
12068W        W27685   0.796   5.473  14.320 -0.2643  0.0505  0.2724
12069W        W27686  16.999  17.087   1.732 -0.2612  0.0087  0.1546
12070W        W27687   9.705   4.309   5.166  0.0086 -0.0027 -0.0162
12071W        W27688  11.443  15.200  11.953 -0.1146  0.1875  0.0105
12072W        W27689   4.229   2.213  14.062 -0.0040  0.2220 -0.1298
12073W        W27690   6.915   8.446   3.969  0.2879  0.0888 -0.0851
12074W        W27691  15.416  14.928   5.272 -0.1364  0.1045 -0.1643
12075W        W27692   0.870   4.698  13.240  0.1360  0.2472 -0.0398
12076W        W27693  13.317   2.326   2.583 -0.1527  0.0571  0.0250
12077W        W27694   1.951   5.118  13.970 -0.3233 -0.0665  0.3877
12078W        W27695   4.808  13.581   3.119 -0.0646 -0.0241 -0.2219
12079W        W27696  14.437   8.303  12.791 -0.1024  0.2605 -0.0276
12080W        W27697  10.200   9.887   5.323 -0.1157 -0.2378  0.0383
12081W        W27698  16.371  13.334   5.981 -0.1102  0.1600 -0.1066
12082W        W27699  12.875   5.499   4.357  0.3903  0.2729  0.1542
12083W        W27700   2.863   6.650  13.695 -0.4684  0.1311 -0.1141
12084W        W27701   0.134  17.169   1.763  0.0043 -0.1835 -0.1859
12085W        W27702   7.948  14.318   5.646  0.1433  0.0678 -0.0267
12086W        W27703  15.978   4.997  12.031 -0.0692  0.0739  0.2077
12087W        W27704   8.196  10.246   5.568 -0.3180 -0.0324 -0.4671
12088W        W27705  13.816   6.453  16.444  0.0624  0.1101  0.0048
12089W        W27706  11.463   1.840  11.939  0.0242  0.0512  0.3555
12090W        W27707  13.372   1.318   2.557  0.0972  0.0757 -0.1776
12091W        W27708   7.169   5.219  15.120  0.2305  0.0524 -0.2538
12092W        W27709   0.417   0.434   2.665  0.4431 -0.3181 -0.0665
12093W        W27710   1.439   5.013   3.644  0.0107 -0.3027 -0.0400
12094W        W27711  15.916  11.789  12.435  0.1899 -0.1900 -0.1713
12095W        W27712   8.859   0.656   2.274  0.0034  0.2465  0.2686
12096W        W27713   0.716   0.659  13.196 -0.0916 -0.1596 -0.0342
12097W        W27714  13.268   0.073  15.590 -0.1017 -0.2514  0.3640
12098W        W27715   2.047  17.270  13.138 -0.1479 -0.0607  0.2292
12099W        W27716   5.007   0.352   0.514  0.1989  0.2121  0.0721
12100W        W27717   8.310  12.608  14.759 -0.1705  0.0147 -0.0629
12101W        W27718   5.077   9.386  12.059  0.0017  0.0585 -0.4502
12102W        W27719   4.656   7.251   0.562 -0.2178 -0.3180  0.3120
12103W        W27720  11.060   4.998  13.182 -0.0733 -0.1145 -0.1526
12104W        W27721   0.909  16.005  14.105  0.0300  0.0186  0.4307
12105W        W27722   9.405  10.090   2.848 -0.0121 -0.0893 -0.3321
12106W        W27723   7.709   6.599   0.011  0.0298  0.1488  0.0493
12107W        W27724  16.747   0.443  11.125 -0.0162  0.3591  0.0616
12108W        W27725   3.302  13.684  14.890 -0.2097 -0.1324  0.1514
12109W        W27726   0.676   3.044  15.591 -0.1963  0.0252  0.0297
12110W        W27727   7.010   1.232  12.865  0.2809  0.1318 -0.2998
12111W        W27728  12.177   3.333  14.516  0.0732 -0.1045 -0.1404
12112W        W27729  16.507  13.888   5.084 -0.2399 -0.1892  0.3228
12113W        W27730   2.239   3.734  15.455  0.3503  0.1096  0.0460
12114W        W27731   3.695  16.474   9.793  0.1951  0.1816  0.4281
12115W        W27732   4.606   6.624   2.769  0.2259  0.0869 -0.3611
12116W        W27733   3.214  12.890  11.500  0.1128  0.1493 -0.0940
12117W        W27734  14.617   2.438   4.664  0.3581  0.2203 -0.1901
12118W        W27735   1.779   6.011   1.330 -0.2193 -0.3790  0.0407
12119W        W27736   1.170   1.941   3.668 -0.0951 -0.2636 -0.1079
12120W        W27737   3.177   1.751  14.044  0.1333 -0.4010  0.0102
12121W        W27738  10.169   0.048   0.942 -0.2457 -0.1809 -0.1044
12122W        W27739  13.252   1.951   6.231 -0.1321 -0.2242  0.1037
12123W        W27740   0.892   6.168   3.906 -0.0906  0.1975 -0.1892
12124W        W27741  10.795   6.970  15.468  0.2255 -0.1374  0.0395
12125W        W27742  16.137   1.716   5.108 -0.0212  0.1512  0.3861
12126W        W27743   3.505  15.362   2.115  0.0555 -0.0484 -0.0554
12127W        W27744   6.522  15.993  14.218 -0.0036 -0.2244  0.1678
12128W        W27745   6.646  15.404   2.226  0.0120  0.0773 -0.2986
12129W        W27746  16.274   6.800   5.126  0.1542 -0.0298 -0.0203
12130W        W27747  11.343   8.653   3.404  0.3610 -0.0226  0.2175
12131W        W27748  14.665  11.625   1.570 -0.0247  0.0820  0.0034
12132W        W27749  14.854   9.444   2.758  0.1793  0.0178  0.0105
12133W        W27750   5.194  14.071  15.544 -0.0189 -0.0789  0.0263
12134W        W27751  12.783  10.626  12.349  0.0287 -0.3092 -0.1292
12135W        W27752   4.654  13.290   3.486  0.3060  0.2394 -0.1636
12136W        W27753   2.424   5.094  15.792 -0.1102  0.3178  0.1125
12137W        W27754  14.402  16.283  13.376  0.1560  0.0647  0.1409
12138W        W27755   4.458  11.033   1.890  0.1776 -0.3020  0.0030
12139W        W27756  12.473  14.772  11.355 -0.0939 -0.3677 -0.0214
12140W        W27757   2.110  14.497   5.169 -0.1611  0.0374 -0.3314
12141W        W27758  10.016   5.699  12.171  0.1996 -0.0566  0.3996
12142W        W27759  13.620   4.122   4.160  0.3094  0.3801 -0.0726
12143W        W27760  14.595  11.688   2.871  0.0419  0.1993  0.2014
12144W        W27761  13.269  14.453   0.489  0.0535  0.0876  0.1571
12145W        W27762  12.775  15.757   2.856 -0.1126  0.0137  0.4356
12146W        W27763  12.657   0.897  16.417  0.1281  0.1581  0.0928
12147W        W27764   0.811   9.694   4.379 -0.3747 -0.2028 -0.2796
12148W        W27765  17.125  12.227   0.676  0.1133  0.0401  0.0991
12149W        W27766   8.501  14.278   0.520 -0.2256  0.4322 -0.2960
12150W        W27767  17.650  15.722   3.624  0.0603  0.1768  0.1389
12151W        W27768  16.339   3.686   2.740 -0.1006 -0.0760 -0.0241
12152W        W27769  10.114   8.475  15.291 -0.0397 -0.0508 -0.0958
12153W        W27770   0.843  15.041   4.310  0.0820  0.0253  0.3512
12154W        W27771  17.328  13.699  12.348 -0.0290 -0.0629 -0.4005
12155W        W27772   1.410  16.265  14.238 -0.1443 -0.3283 -0.2034
12156W        W27773  13.144   2.558   1.125 -0.1988  0.2933  0.1976
12157W        W27774   8.955  17.294  15.962 -0.1050 -0.2231  0.0746
12158W        W27775   7.119   2.993  13.114  0.1176  0.0903  0.0033
12159W        W27776  13.667  15.456   4.431  0.2503  0.0426 -0.0630
12160W        W27777  13.444  10.623  11.827 -0.1035 -0.1370 -0.1160
12161W        W27778  17.256   6.163   0.923 -0.0730 -0.2126 -0.1500
12162W        W27779  13.190   3.066   1.401  0.1120 -0.3481  0.1343
12163W        W27780   7.240  13.505   3.575 -0.1193  0.1815  0.3071
12164W        W27781   9.690  11.278  12.528  0.2788  0.3296  0.0130
12165W        W27782   0.222   1.652   4.727  0.0936  0.1098  0.0105
12166W        W27783  13.245   2.690   0.588  0.2175  0.1270  0.2058
12167W        W27784  15.566   0.286   3.067  0.1739 -0.0433 -0.0538
12168W        W27785   6.506   6.686   3.952 -0.2272  0.0298 -0.1189
12169W        W27786   6.453  15.650   1.794 -0.0101  0.0442  0.1025
12170W        W27787  14.779   6.673   4.986 -0.3373 -0.0687 -0.0230
12171W        W27788   9.876  15.688   4.884 -0.2022  0.0254  0.3131
12172W        W27789   9.947  16.993  15.794  0.0973  0.4138 -0.1451
12173W        W27790  10.891   5.782  15.806 -0.1104  0.1727 -0.0214
12174W        W27791   1.106   8.112   2.457  0.3273 -0.2455  0.0449
12175W        W27792  17.515   3.719   4.268  0.0773 -0.0211  0.0797
12176W        W27793  14.986   9.436  14.147 -0.1523  0.0749 -0.0364
12177W        W27794   7.260  14.986  11.618 -0.1130  0.1568 -0.1155
12178W        W27795  13.529  13.641   6.121  0.2130 -0.1755  0.1170
12179W        W27796  17.557  10.011   0.528  0.1644  0.2355  0.0806
12180W        W27797   0.081  15.103   6.052 -0.0725  0.1448 -0.0327
12181W        W27798  15.452   9.348  14.372 -0.2658  0.1369 -0.0584
12182W        W27799   0.844   7.175   2.349 -0.1384 -0.2506 -0.4044
12183W        W27800   3.172  14.197  15.018  0.0420 -0.2444  0.0976
12184W        W27801  15.220   0.395   1.157  0.2653  0.0701 -0.1434
12185W        W27802   6.183   4.658   0.054  0.0530 -0.0822 -0.1388
12186W        W27803  11.026  10.183  12.111  0.0813 -0.0981  0.2139
12187W        W27804   8.374  11.210  11.454 -0.1988  0.1458  0.2879
12188W        W27805  10.677   5.773   2.931 -0.2275 -0.0609 -0.3241
12189W        W27806   0.947  17.380   0.290 -0.0142  0.0378  0.4350
12190W        W27807  10.537   9.298   2.137  0.0037 -0.0003  0.1592
12191W        W27808   8.987  11.851  11.595  0.5966  0.0302  0.1180
12192W        W27809   7.737  12.194   1.324  0.0080 -0.0793 -0.1016
12193W        W27810  14.060  15.705   4.210  0.3465  0.4410  0.1369
12194W        W27811   4.422   2.744  12.868 -0.1385  0.2662 -0.2307
12195W        W27812   8.897  14.907  11.357  0.0368 -0.1308  0.0294
12196W        W27813  13.491   6.883   1.880  0.1078 -0.0345  0.2334
12197W        W27814   5.635   3.152  15.894  0.1592 -0.2030  0.1932
12198W        W27815  10.331   6.010  14.924 -0.2682 -0.0265 -0.3059
12199W        W27816   3.166   7.590  15.457  0.0290 -0.0743  0.1515
12200W        W27817   6.285  12.200   5.441  0.3630  0.1161  0.0125
12201W        W27818  17.460   7.706   6.308 -0.0944 -0.0032  0.0049
12202W        W27819   8.698   0.522   4.411 -0.3658  0.1720  0.0733
12203W        W27820  10.669   6.974   5.293 -0.0414  0.0488  0.1882
12204W        W27821  12.266   2.784  11.750  0.2056  0.1788 -0.0828
12205W        W27822   4.723   0.157   4.748  0.0868  0.1218  0.1168
12206W        W27823   8.497  11.613   0.136  0.0253 -0.1376  0.0467
12207W        W27824   4.901   1.657   0.484 -0.0828 -0.2792 -0.1110
12208W        W27825  14.487   2.975  14.535 -0.1942  0.2082 -0.0866
12209W        W27826   6.878  13.673   2.260  0.1343  0.3446 -0.0770
12210W        W27827  11.249   0.745   4.436  0.0654 -0.0325 -0.2955
12211W        W27828  11.647   0.167   2.597 -0.0240 -0.0678 -0.2001
12212W        W27829   0.504  13.089  13.043  0.0535 -0.0696 -0.0845
12213W        W27830   0.670  16.332   6.496 -0.4423  0.3480 -0.0327
12214W        W27831   2.069   4.960  11.416 -0.0047  0.3865 -0.5629
12215W        W27832  15.406  13.790  13.933  0.1469  0.1028  0.0878
12216W        W27833  12.073  12.192  16.661  0.2185  0.0691  0.0210
12217W        W27834   8.783  14.861   2.368  0.0459 -0.0303 -0.3745
12218W        W27835   0.591  14.360   2.737  0.3555 -0.1491 -0.1214
12219W        W27836   9.000   5.315   2.414 -0.1323  0.0395  0.3299
12220W        W27837   0.519   8.672  15.679  0.2365  0.0805 -0.0252
12221W        W27838   2.815   4.401   5.534  0.0331 -0.1938 -0.1313
12222W        W27839   0.006   8.849  15.873  0.1141 -0.0842 -0.0418
12223W        W27840  11.680   5.516  16.688  0.1113 -0.1704 -0.0466
12224W        W27841   2.099  15.897  15.644  0.1134  0.3285  0.3993
12225W        W27842   2.666   7.588  12.116 -0.2096  0.2095  0.3738
12226W        W27843  15.230   4.039   0.829  0.1039  0.1815  0.1576
12227W        W27844   3.946   3.523   4.807  0.3395  0.2598 -0.0804
12228W        W27845   8.006   8.912   5.170  0.2824  0.1887  0.0725
12229W        W27846  17.068  17.070  16.025 -0.0175 -0.0682 -0.0486
12230W        W27847   6.293   8.786  12.631 -0.0093  0.2237 -0.0863
12231W        W27848  15.847  14.563   5.579 -0.1358  0.0134 -0.0535
12232W        W27849   3.128   7.373  14.128 -0.1220 -0.0477  0.1385
12233W        W27850   9.623   0.875   3.506  0.2485  0.2048 -0.0666
12234W        W27851  11.343   9.991   3.457  0.1796 -0.0749  0.0263
12235W        W27852   0.680   9.379  12.847  0.0248  0.0083 -0.3477
12236W        W27853  11.109  17.551   1.078  0.1055 -0.1764  0.2302
12237W        W27854   9.072  12.890  15.898  0.2122  0.0067  0.1661
12238W        W27855   8.655   0.335   0.579  0.2343  0.4579  0.3104
12239W        W27856  16.305  15.799   1.770 -0.0295  0.2989 -0.0955
12240W        W27857  16.594  12.638  14.300  0.3365 -0.3047 -0.1261
12241W        W27858   5.338   8.250   2.555  0.3362 -0.1960 -0.1627
12242W        W27859  16.974   0.477  12.866  0.0148  0.2782  0.0224
12243W        W27860   6.139  10.572  13.454  0.0058 -0.1969  0.0573
12244W        W27861   8.891   2.902   2.351  0.0718  0.1959  0.2140
12245W        W27862   7.555   9.373   0.181 -0.2909 -0.0524 -0.2626
12246W        W27863   9.781   2.643  12.593  0.2387  0.0552  0.1027
12247W        W27864  11.388   0.557   5.839  0.1939  0.3675 -0.0684
12248W        W27865  16.250   0.211   4.229 -0.0727  0.0303  0.3317
12249W        W27866  15.523   1.760  14.813  0.0117 -0.1641  0.0096
12250W        W27867   9.430   9.028   1.464  0.1498  0.0024 -0.1957
12251W        W27868  10.749  15.150   2.478  0.0221 -0.1549 -0.4964
12252W        W27869   6.876   3.588   3.965  0.0598  0.1479 -0.3018
12253W        W27870  10.077  14.447   1.654 -0.3290  0.0831  0.3680
12254W        W27871   2.707   7.079  11.476 -0.1381  0.0457 -0.0236
12255W        W27872   6.354   3.706   3.993  0.0007  0.2532 -0.0443
12256W        W27873   7.568   1.557  13.050  0.0362  0.1527 -0.2128
12257W        W27874  14.571   5.803  12.680  0.0170  0.0228 -0.1982
12258W        W27875  17.707   7.453   1.336  0.0595  0.0285  0.4296
12259W        W27876  17.036   7.103  12.828 -0.1351  0.0163  0.0662
12260W        W27877  10.982   9.738   6.592  0.0975 -0.0199  0.1158
12261W        W27878   9.695  17.691   1.651 -0.0918 -0.0016  0.1808
12262W        W27879   7.150   9.732   0.400  0.1105 -0.1509  0.0697
12263W        W27880   0.861  16.560   1.240 -0.0580  0.2504  0.0359
12264W        W27881   7.317   2.965  12.666 -0.0326  0.0222  0.0520
12265W        W27882   7.931   1.645   1.803  0.0872 -0.3282 -0.0830
12266W        W27883   5.533   9.360  15.461  0.1675 -0.3067  0.2067
12267W        W27884   3.496   8.664  16.256  0.1316 -0.1234 -0.2859
12268W        W27885   7.956   8.247   5.826 -0.0800  0.1087  0.4553
12269W        W27886  12.538   6.337  14.861  0.1584 -0.1069 -0.5571
12270W        W27887  10.918  14.529   5.351  0.0655 -0.2222 -0.1396
12271W        W27888   3.996  10.659  16.325 -0.0243  0.0877 -0.1717
12272W        W27889   8.039  10.256   1.316  0.2735  0.2168 -0.2597
12273W        W27890  12.501   3.134  15.864 -0.0858 -0.2923  0.0156
12274W        W27891   5.763   7.893   1.434 -0.0985  0.1870  0.0563
12275W        W27892   3.650   5.323   1.039 -0.0145  0.1052 -0.0949
12276W        W27893  11.104   6.208  13.828  0.1515  0.0518  0.1629
12277W        W27894  17.787  11.621  16.387  0.2106  0.2864  0.2212
12278W        W27895   8.254   5.785   6.126 -0.1462 -0.1888 -0.4754
12279W        W27896   5.126   1.127  14.610 -0.0386  0.1408  0.0131
12280W        W27897  17.474  15.815  14.244 -0.1103  0.0909  0.0852
12281W        W27898   3.357   1.991   1.236  0.0558 -0.1660 -0.0495
12282W        W27899   1.078   6.927  12.491 -0.0812 -0.0867  0.0215
12283W        W27900   1.395  12.101  13.780 -0.3432 -0.6793 -0.3018
12284W        W27901   7.497   0.978  16.145  0.1448  0.1121  0.0859
12285W        W27902   0.141   5.342   5.183  0.0235  0.0340 -0.0307
12286W        W27903  16.069   2.609   5.083  0.0979  0.1536  0.0158
12287W        W27904   4.468  17.791  13.252  0.2433 -0.0160  0.1045
12288W        W27905  16.262  12.839   4.315 -0.1048  0.0182  0.1107
12289W        W27906   6.365   3.324   3.563 -0.3031  0.4097  0.1132
12290W        W27907  10.466  15.155   4.605 -0.0561 -0.0191 -0.1031
12291W        W27908  15.555   7.923   6.687  0.1858 -0.0439 -0.0655
12292W        W27909  10.223  15.187   2.501 -0.0313  0.0337 -0.2651
12293W        W27910   5.511   0.814  13.935  0.1897 -0.0552  0.1670
12294W        W27911   6.491   6.062  16.051  0.0090 -0.2884 -0.0418
12295W        W27912   0.961  13.055  16.786 -0.3141  0.3328 -0.0402
12296W        W27913  12.650  12.690  12.925 -0.0428  0.1476  0.3278
12297W        W27914  10.675  11.052  15.132 -0.0042 -0.6916 -0.2420
12298W        W27915   7.176  11.502   5.810 -0.2496 -0.2028 -0.0823
12299W        W27916   5.302  12.099  14.075 -0.0660 -0.0926 -0.0523
12300W        W27917   7.619   0.319   1.285 -0.1974  0.1750  0.1076
12301W        W27918  15.465  10.700  14.823 -0.3819 -0.0176 -0.0679
12302W        W27919  11.973   9.342   4.259  0.1731 -0.2009  0.3005
12303W        W27920  13.841   7.079   0.632  0.2154 -0.0643 -0.0204
12304W        W27921   0.529   4.331  12.987 -0.2163  0.1679  0.1447
12305W        W27922   6.463  17.815  11.485  0.0361  0.0113 -0.1109
12306W        W27923   8.249   6.816   3.333 -0.1702 -0.0838  0.0718
12307W        W27924  11.626   1.681   1.715  0.2390 -0.1694  0.0927
12308W        W27925  17.658  12.635  15.502 -0.0490  0.0264  0.0532
12309W        W27926  14.929  13.960  16.282  0.3007 -0.0344  0.0097
12310W        W27927  16.601   9.931   5.346 -0.0477 -0.1729 -0.1025
12311W        W27928   0.514   1.404   2.631 -0.0111  0.0671 -0.1022
12312W        W27929  17.059  17.104  15.050  0.2336 -0.1942 -0.1456
12313W        W27930   1.427   1.621  14.942 -0.1716  0.0962 -0.3027
12314W        W27931   2.798  13.997  16.508  0.0418 -0.1889 -0.0806
12315W        W27932  16.556  11.005   4.360  0.2674  0.2133 -0.0866
12316W        W27933   2.507  14.603   0.405  0.0663  0.1095  0.1574
12317W        W27934  10.927   4.255   5.348  0.1738  0.0399  0.0374
12318W        W27935  10.334   1.177  14.018  0.2904 -0.0123  0.0620
12319W        W27936  13.776  16.207   3.320 -0.0710  0.0621  0.1182
12320W        W27937   8.005  17.075  15.860 -0.3785 -0.1939 -0.1076
12321W        W27938   9.437  16.034   0.188 -0.2030 -0.0204  0.0046
12322W        W27939  15.182  12.739   2.449 -0.0699  0.0413  0.0239
12323W        W27940   3.519   1.916   0.589 -0.0331 -0.1760 -0.1009
12324W        W27941   7.064   7.643   4.417 -0.1512  0.0732 -0.1059
12325W        W27942  17.443   7.325  14.786 -0.2782 -0.1657  0.1140
12326W        W27943   4.235  11.341   0.600  0.1262 -0.0477  0.2622
12327W        W27944   0.440   8.945   0.671 -0.1719  0.3706  0.0730
12328W        W27945   0.885   4.849   5.510 -0.1797 -0.2172 -0.0970
12329W        W27946   3.607   1.290  12.490 -0.2334 -0.0710  0.0147
12330W        W27947   8.023  12.273  11.426 -0.2427  0.0453 -0.2110
12331W        W27948  12.454   8.333   0.320 -0.0683 -0.0802 -0.1582
12332W        W27949   0.823  13.177  11.922  0.1149  0.0698  0.1565
12333W        W27950   5.467   6.132  15.548  0.3740  0.1541 -0.2582
12334W        W27951  15.722  17.201  16.556 -0.0998  0.2397 -0.5515
12335W        W27952  15.397  12.633   0.224 -0.1128  0.3961 -0.0818
12336W        W27953  16.478   1.890  13.375  0.1827  0.0313  0.1173
12337W        W27954   7.589  14.671   4.424 -0.0682 -0.0406 -0.0626
12338W        W27955   6.514   5.491  11.690 -0.1079 -0.1038  0.0576
12339W        W27956   3.901  17.066   1.919  0.0144  0.1497  0.2425
12340W        W27957  14.582   4.135   3.318  0.2379  0.1886 -0.0018
12341W        W27958  15.029  13.834   5.235  0.3113  0.4040  0.0717
12342W        W27959  14.054  11.160  11.118 -0.2282 -0.0580  0.1065
12343W        W27960  12.098   9.346  12.009  0.1245  0.3467 -0.0085
12344W        W27961  16.097   4.311   4.750 -0.1271 -0.1970 -0.1640
12345W        W27962  15.986   5.801  12.614 -0.3498  0.1950  0.4767
12346W        W27963   6.438  13.198   4.034 -0.0322 -0.1162  0.1470
12347W        W27964   2.044   5.049   4.451  0.1047 -0.0854  0.0577
12348W        W27965  11.135   4.979  13.663 -0.0561 -0.0852 -0.1155
12349W        W27966   2.151   8.079  15.485 -0.4023 -0.0416  0.0737
12350W        W27967   0.104  13.354   3.126  0.0211  0.1471  0.1149
12351W        W27968   3.380   6.467  12.349  0.0899 -0.0305  0.1420
12352W        W27969   9.654  13.858   5.650 -0.0390  0.3952 -0.1143
12353W        W27970  12.723  10.817   2.239  0.0806 -0.1013 -0.0281
12354W        W27971  15.744   7.317   0.194 -0.0383 -0.1973  0.0653
12355W        W27972   1.654   9.903   3.031 -0.0306 -0.1331 -0.3245
12356W        W27973  16.451  16.953  10.833  0.0421  0.1545  0.3102
12357W        W27974   6.474   4.529  12.960  0.2319  0.0369 -0.1345
12358W        W27975   8.157   0.047   3.775  0.0350 -0.0812 -0.0215
12359W        W27976  14.660   0.038  15.141  0.1264  0.1309 -0.1144
12360W        W27977   9.996  12.840   4.038  0.2474 -0.0783 -0.2238
12361W        W27978  10.749   8.976  13.177 -0.3032  0.2568  0.2178
12362W        W27979   7.259   2.539  14.980  0.1259  0.0465  0.0123
12363W        W27980   3.745  10.851   2.646 -0.2071  0.1843 -0.0996
12364W        W27981   6.853  12.143   0.036 -0.3544 -0.2716  0.1752
12365W        W27982   4.471   3.793   4.290  0.0884 -0.0068 -0.0842
12366W        W27983  14.565  14.102   6.113 -0.2117  0.1602 -0.0455
12367W        W27984   6.041   5.156  12.395 -0.1774  0.3749 -0.0034
12368W        W27985   7.614  13.806   4.350 -0.1657  0.2487 -0.0660
12369W        W27986   2.124  12.218   0.177 -0.2712 -0.1763  0.3099
12370W        W27987  13.801  16.090   5.114  0.1011  0.1438  0.2518
12371W        W27988  13.171  15.655   4.381 -0.0835 -0.0384 -0.0351
12372W        W27989  17.793   4.062   1.618  0.2469 -0.1885  0.1323
12373W        W27990   1.387  15.621   5.600 -0.1743  0.0520 -0.1509
12374W        W27991   1.926   1.368   4.949  0.0883 -0.2646  0.0075
12375W        W27992   1.691   5.558   1.075 -0.2054  0.0928 -0.1322
12376W        W27993  14.803  17.703  14.640  0.2145 -0.1686 -0.0788
12377W        W27994   9.729  10.336   0.441 -0.0272 -0.0247  0.0485
12378W        W27995   6.895   5.777   4.706  0.2953  0.2914  0.1020
12379W        W27996   0.798   8.503   0.729  0.0451 -0.0935 -0.2435
12380W        W27997   5.190   8.787  14.227  0.1917 -0.2992 -0.1055
12381W        W27998   2.362   3.632   5.509 -0.2605  0.0496 -0.3154
12382W        W27999  12.618  10.355  12.735 -0.4352  0.1551  0.4521
12383W        W28000   1.612   1.590   4.480 -0.0603  0.1255  0.0446
12384W        W28001   2.883  11.915   3.262 -0.1683  0.0785 -0.1402
12385W        W28002  12.915   3.115  13.763 -0.3752 -0.1384  0.2697
12386W        W28003   4.534   7.651   4.270 -0.1774  0.0511 -0.0581
12387W        W28004   3.869   5.264  13.918 -0.0462 -0.1321  0.2989
12388W        W28005  17.517   2.772   0.983  0.0500 -0.2062 -0.0482
12389W        W28006   1.654   2.312  16.168 -0.1370 -0.0899 -0.1384
12390W        W28007  15.550   0.884  12.918  0.0441 -0.0794 -0.0393
12391W        W28008  15.626   1.959  11.535  0.0222 -0.2711  0.2025
12392W        W28009  13.634   9.105   1.330  0.1360 -0.0458 -0.0478
12393W        W28010   5.267   6.772  16.457  0.0437 -0.2093 -0.2004
12394W        W28011  11.340  15.219   5.115 -0.0840 -0.3212 -0.0912
12395W        W28012   8.047   8.585   2.926 -0.1316 -0.2957 -0.0914
12396W        W28013   5.103  11.092  13.097 -0.2045 -0.0654 -0.0376
12397W        W28014  10.806  11.692   1.889 -0.1489  0.0521  0.2337
12398W        W28015   5.820  13.027   2.418 -0.3672  0.0406  0.2309
12399W        W28016   6.053   0.823   2.613  0.3719  0.1511  0.0285
12400W        W28017   2.188   4.600   1.810  0.0413 -0.4834  0.0416
12401W        W28018  11.997   0.598  11.859  0.2024 -0.0785 -0.0030
12402W        W28019  10.707  12.359  14.024  0.0992 -0.1601 -0.1058
12403W        W28020   5.114   9.310   0.097 -0.2835 -0.1065 -0.3419
12404W        W28021  14.551   2.009   1.317  0.0335 -0.3193 -0.2356
12405W        W28022  14.410   8.767  12.988 -0.0353  0.2546  0.1512
12406W        W28023   6.541  12.367  12.606  0.0125 -0.5076 -0.0986
12407W        W28024  15.902   0.651   3.215  0.1998 -0.1815  0.2783
12408W        W28025  12.906   1.465   4.949 -0.2001  0.0572 -0.2303
12409W        W28026   0.451  13.924  14.576 -0.1076  0.2129  0.2078
12410W        W28027   8.596   6.948  12.418 -0.0082  0.3358  0.1349
12411W        W28028   6.076  14.899  12.137  0.1052 -0.0749  0.1677
12412W        W28029  15.077   5.758  13.520  0.1374 -0.0887 -0.1489
12413W        W28030  12.357  11.576   4.531 -0.3123 -0.0920 -0.1982
12414W        W28031   8.734   3.676  11.353 -0.0533 -0.0009  0.2697
12415W        W28032  12.077   5.858   1.315  0.2883  0.2282  0.0485
12416W        W28033  10.502   8.328   6.255 -0.0147 -0.5813 -0.1960
12417W        W28034   7.615   1.073   0.998  0.1122 -0.4408 -0.0954
12418W        W28035   4.193   0.573   1.884  0.0796 -0.0713 -0.1049
12419W        W28036   5.733  15.106  12.854  0.0641  0.0004 -0.4593
12420W        W28037   5.967  15.432   2.938  0.0856  0.0556 -0.0368
12421W        W28038  16.668   8.921  14.587  0.0605 -0.2734 -0.0176
12422W        W28039  12.689   7.355   1.959 -0.0656 -0.1252  0.2296
12423W        W28040   1.341   9.998   1.427  0.2329 -0.0233  0.3793
12424W        W28041  12.705  15.216   1.312  0.0834  0.0642 -0.1448
12425W        W28042   6.728  10.826   4.665 -0.1318  0.2005 -0.3766
12426W        W28043   3.765   9.023   5.102  0.1861  0.2095 -0.3631
12427W        W28044   4.488   9.545   3.530  0.1232 -0.1276  0.1340
12428W        W28045   9.354   9.609  13.433  0.1665 -0.4962  0.0672
12429W        W28046   6.173   4.415   2.000 -0.1322  0.1527  0.0432
12430W        W28047  11.615   3.989   4.539  0.2079 -0.2698  0.0261
12431W        W28048   4.950  14.471   1.810 -0.0971 -0.1482 -0.0781
12432W        W28049   8.557   7.309   5.520 -0.0319  0.1303 -0.3826
12433W        W28050   0.802   2.399  15.402  0.1679 -0.1754 -0.4318
12434W        W28051   5.223  11.752   2.849 -0.0975 -0.1971 -0.0858
12435W        W28052  10.329  16.428  11.120  0.4952  0.0645 -0.2734
12436W        W28053   5.515   3.028   0.920  0.3026 -0.1356 -0.0119
12437W        W28054   9.329  14.770   2.475  0.0039 -0.1077  0.1547
12438W        W28055  12.400   5.307   0.260  0.0852 -0.0385 -0.0885
12439W        W28056   2.866   8.396  14.858 -0.0050 -0.1272 -0.0183
12440W        W28057  10.086   1.563  12.748 -0.0084  0.0910 -0.1905
12441W        W28058  10.598   7.365   0.395  0.0644 -0.1158  0.0322
12442W        W28059   7.085   4.921   0.764 -0.1492  0.0065 -0.0219
12443W        W28060   9.784   5.813   3.564 -0.1535 -0.1981 -0.0089
12444W        W28061  14.333   7.120   0.779  0.2581 -0.0781  0.0225
12445W        W28062   5.048  15.578  13.437  0.2927 -0.0734 -0.1262
12446W        W28063  15.098  17.146  12.304 -0.1218 -0.2653  0.3437
12447W        W28064  10.660   1.378  13.615  0.0916  0.1356  0.1572
12448W        W28065   9.530   3.484  11.657  0.2551 -0.1786  0.1022
12449W        W28066  15.652   4.323  14.547  0.3667 -0.3020  0.1302
12450W        W28067   0.727  14.797   4.988 -0.0100 -0.1857 -0.1310
12451W        W28068  13.763  13.671   3.982  0.0569 -0.1849 -0.0770
12452W        W28069   6.022   7.780   5.802  0.1691  0.1291  0.0605
12453W        W28070  15.152  14.902  12.987 -0.0232 -0.2740  0.1256
12454W        W28071  10.912   8.090   6.020  0.0829  0.2501  0.0463
12455W        W28072   6.863  11.596   3.283  0.5568 -0.0640  0.0124
12456W        W28073  17.149   1.228   5.014  0.2980 -0.0061 -0.1214
12457W        W28074  12.124   1.911  11.218 -0.1615  0.0996 -0.1517
12458W        W28075   9.721   0.495   4.019 -0.1840 -0.3280 -0.0458
12459W        W28076   3.880  13.818  13.231  0.0730  0.0034 -0.0789
12460W        W28077  14.414   1.801   3.309  0.1114  0.0144  0.0497
12461W        W28078  13.674  10.779   4.564  0.4115 -0.0508  0.2658
12462W        W28079  13.550   6.598  12.784  0.2449  0.0456 -0.1414
12463W        W28080   4.795   5.706   5.756  0.1154 -0.0204  0.2690
12464W        W28081  13.024  11.580  12.846  0.0499 -0.1932  0.5116
12465W        W28082   5.915   4.389   1.597  0.2171 -0.2644  0.0468
12466W        W28083  14.390  17.814  11.768  0.0591 -0.0184  0.0075
12467W        W28084   6.768  16.840  12.185  0.3390  0.0562  0.0171
12468W        W28085  12.886  12.881  14.166  0.2307  0.0828  0.3859
12469W        W28086  15.811  13.372   3.986 -0.1039 -0.0812  0.3771
12470W        W28087  14.150   0.113  16.067 -0.1748  0.0331 -0.1136
12471W        W28088  12.367  17.528  15.374 -0.0229  0.1808 -0.2056
12472W        W28089  12.549  17.372   0.972 -0.0520 -0.0910  0.0817
12473W        W28090   8.700  10.725  15.261 -0.1757  0.4286 -0.0696
12474W        W28091  17.032   7.567   1.585  0.2207  0.1836 -0.0634
12475W        W28092   7.499  16.127  13.058  0.2533  0.1641 -0.0382
12476W        W28093  14.562   0.953   1.604 -0.0959  0.1666 -0.1694
12477W        W28094  10.192  12.605  10.508 -0.3330  0.0880 -0.2836
12478W        W28095  17.579  10.869  12.447  0.2310 -0.1347 -0.1251
12479W        W28096   5.181  14.970   2.662  0.2100 -0.4655 -0.2396
12480W        W28097   8.769   1.816  16.369 -0.3421 -0.1190 -0.0726
12481W        W28098  10.917  14.225   1.321  0.0979  0.0896 -0.0392
12482W        W28099  14.269  10.787  15.388  0.0548 -0.4731  0.1049
12483W        W28100  14.480  13.303   3.783  0.1384  0.0293 -0.2867
12484W        W28101   0.713   8.497  13.470  0.0449 -0.1620 -0.2131
12485W        W28102   1.088   7.677   1.068  0.0377 -0.2879 -0.0927
12486W        W28103  14.204   0.981   5.089  0.0432 -0.3172 -0.1168
12487W        W28104  16.310  12.282   5.887 -0.0110  0.0812 -0.0592
12488W        W28105  14.018   0.799   0.851  0.0968  0.1447  0.1972
12489W        W28106   3.752  13.793  14.990  0.0533 -0.1485  0.0055
12490W        W28107   0.313  16.998  14.115 -0.1289  0.0513 -0.1373
12491W        W28108   6.164   5.734  15.758 -0.0998  0.3087  0.0029
12492W        W28109   4.509  15.404   4.252 -0.2747 -0.0415  0.1548
12493W        W28110   6.380  14.111   3.985  0.2304 -0.2164  0.1507
12494W        W28111  12.454  16.893  14.133 -0.0177  0.0560  0.0476
12495W        W28112  14.193   4.509   2.599  0.1242  0.0345  0.2684
12496W        W28113  13.925   2.952   2.889  0.3113  0.1418  0.1284
12497W        W28114  12.468  11.301   5.013  0.3126  0.1877 -0.0948
12498W        W28115  13.779   6.517  14.201 -0.0416  0.2429  0.2917
12499W        W28116  12.160   2.830  12.596 -0.2150 -0.1296 -0.2116
12500W        W28117   5.604   3.365  12.517  0.1513  0.2262 -0.1490
12501W        W28118   4.046   8.700  16.362 -0.1982 -0.0400 -0.1949
12502W        W28119  12.504   3.859  16.310 -0.3154  0.1693 -0.1153
12503W        W28120   7.662  16.639  15.533 -0.0356  0.2110  0.0501
12504W        W28121   2.883   0.124   0.325  0.0480  0.1467 -0.0480
12505W        W28122   8.657  15.652   2.889  0.0113  0.2020  0.1713
12506W        W28123  13.855   0.916  16.627 -0.2452  0.0901  0.2880
12507W        W28124  15.351  11.951  15.626  0.3417 -0.1654  0.3151
12508W        W28125   8.915   4.737   3.995 -0.1795 -0.0637 -0.1748
12509W        W28126  10.577   4.426  15.159  0.3952 -0.2287 -0.1020
12510W        W28127  14.043  13.150  14.880 -0.3166  0.0095  0.0438
12511W        W28128   7.163  10.377   3.295 -0.2773 -0.2374 -0.1451
12512W        W28129   5.746   1.273   5.275  0.1481  0.1558 -0.1829
12513W        W28130   7.306   5.672  16.654  0.0041  0.0404 -0.2047
12514W        W28131   7.077   8.611  14.332 -0.1030  0.0074 -0.0132
12515W        W28132  16.531  13.867   1.516 -0.3421 -0.1269 -0.1325
12516W        W28133  11.353   8.585   1.848  0.0336  0.2183 -0.1613
12517W        W28134   4.716   5.834  12.223 -0.3221  0.2370  0.1085
12518W        W28135   9.604  14.934  13.381  0.0860  0.1206 -0.2436
12519W        W28136  14.520   3.171  12.037 -0.2572  0.0969 -0.1616
12520W        W28137   1.853   0.274   5.826  0.0203  0.1267  0.1483
12521W        W28138   6.796  16.445  16.568  0.2790 -0.3694  0.0614
12522W        W28139  16.193   6.409   6.181 -0.1141  0.0543 -0.5668
12523W        W28140  12.493   9.724   4.097 -0.0886  0.1837 -0.0809
12524W        W28141  10.506  11.550   2.472 -0.0645 -0.0096  0.2911
12525W        W28142  11.123   2.002  15.149  0.0455  0.4913 -0.0790
12526W        W28143   8.650   5.400  15.355 -0.0278  0.1067  0.0657
12527W        W28144   4.201   7.433   1.916 -0.0619  0.2080 -0.1107
12528W        W28145   1.635  17.783  11.061 -0.3535 -0.2280 -0.0965
12529W        W28146  16.541   0.521   3.983  0.0975  0.1478 -0.1077
12530W        W28147   8.694   7.655  15.808 -0.2459 -0.0043 -0.1258
12531W        W28148   0.369  14.277   3.477  0.1030  0.1392 -0.3024
12532W        W28149   5.669   5.456   4.797 -0.1327  0.1974  0.0006
12533W        W28150   7.948   3.505  12.518 -0.3951  0.1033 -0.2295
12534W        W28151   6.074   0.198  15.014  0.2591  0.0023 -0.3769
12535W        W28152   4.143   1.422   0.993 -0.0770  0.1293  0.3265
12536W        W28153  11.789   1.160  14.776  0.2066 -0.2138  0.1943
12537W        W28154   3.532   3.592   5.788  0.0709 -0.2055  0.0425
12538W        W28155  13.622   0.438   5.318  0.0224 -0.2645  0.0598
12539W        W28156   5.047  12.588  11.489 -0.0768  0.0914  0.1781
12540W        W28157  16.028   9.830  14.898 -0.1601  0.0443 -0.1809
12541W        W28158   4.376   7.973   1.769 -0.0686  0.1522  0.2002
12542W        W28159  15.236   4.053  14.358 -0.2533 -0.0332 -0.2292
12543W        W28160   2.253  13.113  12.734 -0.3007 -0.2302 -0.1439
12544W        W28161   0.577  14.111  16.657  0.2901 -0.1517  0.0862
12545W        W28162  13.678   2.110  11.787 -0.0912 -0.1829 -0.0806
12546W        W28163   3.546  14.561   2.442 -0.2770 -0.0919  0.1649
12547W        W28164   7.625  17.611  12.208 -0.0987 -0.1995  0.0703
12548W        W28165  15.758   8.364  12.312  0.3184 -0.1986 -0.0770
12549W        W28166   8.076  13.754   6.248 -0.3988 -0.3510 -0.1264
12550W        W28167  12.116   0.337   4.146 -0.0340 -0.0277 -0.2905
12551W        W28168  13.534   1.415  14.222 -0.0094 -0.2889 -0.0459
12552W        W28169   1.695  15.198   1.498  0.0144  0.0511 -0.3054
12553W        W28170   0.509   1.691   1.242 -0.2787  0.2842  0.1930
12554W        W28171   3.789  11.764  14.703 -0.2512 -0.1301 -0.1346
12555W        W28172  14.121   2.138  15.052 -0.0141  0.0486 -0.2917
12556W        W28173   2.350   7.282  11.875 -0.0365  0.1031 -0.1151
12557W        W28174   6.862   5.060   4.275  0.0733 -0.0272 -0.0150
12558W        W28175  11.060   2.504  16.562 -0.1478 -0.0810 -0.0220
12559W        W28176  10.187  10.948   5.415 -0.2487 -0.1224 -0.0352
12560W        W28177   2.301   1.188  11.840  0.3481  0.0242 -0.4033
12561W        W28178  15.565   7.956  12.001  0.0003 -0.0007  0.3194
12562W        W28179   6.196   9.768  14.708  0.0018  0.1291  0.1245
12563W        W28180   1.228   0.359  16.139  0.1145  0.2115 -0.0890
12564W        W28181  12.189   6.814   0.351 -0.0654  0.2785  0.2373
12565W        W28182  10.237   4.080  14.274  0.0894  0.2588 -0.3997
12566W        W28183  14.607   1.640  16.053 -0.0783 -0.2743  0.0813
12567W        W28184  16.492  12.194   5.090  0.0816 -0.0610 -0.0461
12568W        W28185  12.419  17.857   4.366 -0.2238  0.1548 -0.0188
12569W        W28186  13.331   9.723   5.221  0.0853  0.0466 -0.2463
12570W        W28187   7.001  17.468   1.915  0.1015 -0.0466  0.0862
12571W        W28188  14.235   3.946  15.321  0.3324 -0.0015  0.2675
12572W        W28189  15.629  14.011  14.755 -0.1356 -0.3106  0.1693
12573W        W28190   9.309  12.719   3.188 -0.2278 -0.1200 -0.1262
12574W        W28191  15.056   3.138   5.607  0.1068  0.3200  0.1080
12575W        W28192  15.312   6.310   3.804 -0.2772  0.1568 -0.0144
12576W        W28193   3.254   9.748  11.491  0.0059  0.2011 -0.3045
12577W        W28194   4.786   5.622  15.661 -0.1203 -0.2343  0.1364
12578W        W28195   7.657  14.667   2.378 -0.0001 -0.2164  0.1441
12579W        W28196  11.356   3.747   3.244  0.0010 -0.4630 -0.1919
12580W        W28197  12.973  11.320  13.247  0.1530  0.0923  0.1469
12581W        W28198  10.531  17.746  15.304 -0.1486  0.2275  0.1116
12582W        W28199  12.314   5.230  14.763 -0.0201 -0.1706  0.0066
12583W        W28200   2.204   9.692  10.579 -0.0385 -0.2645  0.3030
12584W        W28201   0.080  17.274  10.018 -0.0769  0.2495 -0.1913
12585W        W28202   3.421   7.284   2.310 -0.0962 -0.0282 -0.3676
12586W        W28203   0.306   6.735   1.977  0.0834 -0.0861 -0.4019
12587W        W28204   2.034   3.886  15.952 -0.1583  0.0637 -0.1049
12588W        W28205  10.660   4.120  12.899  0.1221 -0.0031  0.1462
12589W        W28206   6.221   7.856  12.095 -0.0429 -0.0826  0.0619
12590W        W28207   5.132   9.148   4.364 -0.0734 -0.1933  0.0834
12591W        W28208  15.019   4.526  14.290 -0.0076  0.0559 -0.2668
12592W        W28209   9.818  13.017  15.287 -0.0780 -0.2208  0.4498
12593W        W28210  15.797  12.609   0.691 -0.0539  0.1106 -0.0191
12594W        W28211   2.743  14.468   0.843  0.0273  0.1592 -0.2163
12595W        W28212   0.160   4.347  12.536  0.0859 -0.0348  0.1357
12596W        W28213  14.484   4.101  13.704  0.1893 -0.1904 -0.0510
12597W        W28214   9.769  15.118   2.269  0.1069  0.0769  0.1290
12598W        W28215  13.805   5.779   3.918  0.0731 -0.1896 -0.0744
12599W        W28216   3.307   1.397  13.581 -0.0319 -0.0148  0.1305
12600W        W28217   1.561   7.842  13.964 -0.2361 -0.4091 -0.3685
12601W        W28218   2.612   2.427   3.996 -0.0048  0.1054 -0.0546
12602W        W28219   1.653  12.771  15.003  0.0140  0.0824 -0.0276
12603W        W28220   0.337  16.344   4.924 -0.2364 -0.0297  0.4389
12604W        W28221  14.182   1.758  15.415  0.0936  0.0630 -0.0213
12605W        W28222   7.800   7.111  16.704  0.0305  0.0454  0.0033
12606W        W28223  14.578  13.606  14.353 -0.0783  0.1232 -0.2455
12607W        W28224   6.341   0.898   3.192  0.1288 -0.3819 -0.4506
12608W        W28225   2.211   5.448  14.817  0.1577 -0.0027 -0.1388
12609W        W28226  14.190   9.280   5.501 -0.0766  0.0078 -0.2171
12610W        W28227  12.738  15.597  15.411 -0.1779 -0.2622  0.1268
12611W        W28228  11.985  13.323   0.904  0.2387 -0.0539  0.1853
12612W        W28229   6.132  13.700  11.881 -0.2476  0.0874 -0.0558
12613W        W28230   0.447   8.230   1.546  0.1310 -0.0785 -0.2866
12614W        W28231   8.244  14.370   3.943 -0.1218  0.0244  0.0656
12615W        W28232   1.014   1.741  14.567 -0.1709 -0.0770  0.2674
12616W        W28233   9.741   1.668  14.581 -0.1445 -0.2436  0.0253
12617W        W28234   6.722  16.583   4.680  0.2971 -0.0326  0.2492
12618W        W28235   3.002   6.370   5.275  0.3158 -0.1274  0.2187
12619W        W28236   7.363   1.543  12.400 -0.3563 -0.0292 -0.0861
12620W        W28237  12.641  17.548  12.326  0.1743  0.1625  0.1050
12621W        W28238  11.256   3.036  14.321  0.0006  0.0933 -0.0630
12622W        W28239   5.659  11.769  12.622 -0.2308  0.4533  0.1640
12623W        W28240   8.966   2.763   1.367  0.0223  0.0267 -0.2037
12624W        W28241  17.616   7.786   0.431  0.0921  0.1181 -0.2705
12625W        W28242   1.740  13.750  13.382 -0.0379 -0.0183  0.0426
12626W        W28243   5.379   3.587  16.788  0.0623 -0.1778 -0.0088
12627W        W28244  11.738   5.548  14.372  0.0782  0.1608 -0.1360
12628W        W28245   0.463   2.651   4.723  0.0576 -0.1293 -0.1128
12629W        W28246   0.257   0.407  15.775 -0.1345  0.1593 -0.0159
12630W        W28247  16.109   6.235  12.213  0.4961 -0.0880  0.1495
12631W        W28248   7.548  11.151   4.918  0.0868 -0.1784 -0.1901
12632W        W28249  15.851   5.178  13.310 -0.3331  0.0823  0.0179
12633W        W28250  15.012  17.840   1.290  0.0230  0.1287 -0.0056
12634W        W28251   3.225  10.438   5.528 -0.1847 -0.0413  0.1627
12635W        W28252  14.259   5.427   0.340 -0.2752  0.3729  0.0819
12636W        W28253   3.582   5.535   3.255  0.0523 -0.0716 -0.3959
12637W        W28254  10.685   1.867  16.031 -0.3151  0.1982 -0.1026
12638W        W28255   0.548   6.866  11.032  0.1623  0.3325  0.0889
12639W        W28256  17.781   7.445  14.353  0.0563  0.1227  0.1889
12640W        W28257  11.002   5.723   5.386  0.0547  0.2636 -0.3072
12641W        W28258   6.557  13.639   6.115  0.0125 -0.0842 -0.1210
12642W        W28259   2.793   2.153  15.498  0.1632 -0.1672 -0.0496
12643W        W28260  17.694  13.700   2.878 -0.3119  0.2346 -0.0075
12644W        W28261   8.450  10.779   1.437 -0.0671 -0.1115  0.0134
12645W        W28262   1.199   2.763   2.437 -0.1643  0.1034  0.1944
12646W        W28263  13.426  11.200  12.560 -0.0064 -0.2901  0.1223
12647W        W28264   8.341   9.603   3.105 -0.1351 -0.1635 -0.0940
12648W        W28265  13.050  16.932   2.180  0.0136  0.0884 -0.0759
12649W        W28266   1.706  10.728   2.467 -0.1351  0.0799 -0.1628
12650W        W28267   2.479   0.094  11.647  0.1310 -0.1203  0.0607
12651W        W28268  10.062   1.863  16.045  0.0235 -0.1233  0.0518
12652W        W28269  16.916   2.253   1.318 -0.0283 -0.0341 -0.0348
12653W        W28270   8.738   8.913  13.869 -0.1325  0.1588  0.0184
12654W        W28271   4.684  14.380  12.974 -0.3246 -0.2022 -0.3684
12655W        W28272   8.258   5.819  16.482  0.0704 -0.3428  0.1921
12656W        W28273   3.459   0.508  14.846  0.2058 -0.3440  0.0599
12657W        W28274   6.862   8.778   5.953 -0.2721  0.0563 -0.1657
12658W        W28275  12.117  12.488   0.278 -0.1770 -0.1692  0.1100
12659W        W28276   5.798  13.683  15.883  0.0301  0.2553  0.1141
12660W        W28277   7.193   0.768  15.790 -0.1606  0.0258  0.1621
12661W        W28278   5.666   3.025   4.250 -0.2903  0.0680  0.1285
12662W        W28279   8.859   9.245   2.985 -0.1038  0.0328  0.1601
12663W        W28280   8.189   0.030   0.634  0.0032  0.0435 -0.0373
12664W        W28281   5.273  10.903  15.253 -0.0766  0.2153 -0.0382
12665W        W28282   9.431  15.920  14.836  0.2338  0.1667 -0.2562
12666W        W28283   7.121   4.540   1.214  0.0829 -0.3140  0.0823
12667W        W28284  11.517  12.917  15.507  0.1179  0.0101 -0.0557
12668W        W28285   9.838  12.223   2.493  0.1658 -0.0297 -0.0803
12669W        W28286   7.765  17.226  10.304  0.1469  0.0819  0.2777
12670W        W28287   3.195   3.006   5.186  0.0207  0.1028 -0.1378
12671W        W28288  17.777   1.029  14.707  0.1661 -0.0742  0.1932
12672W        W28289  11.712   8.232  12.474  0.3086 -0.2028  0.2252
12673W        W28290   0.432  16.620  12.088 -0.1961 -0.1112 -0.0142
12674W        W28291   0.195   0.839   1.429  0.2055  0.2276 -0.1163
12675W        W28292  12.270   7.846   0.306 -0.1960 -0.0821 -0.0603
12676W        W28293   3.177   3.674  14.413  0.1446  0.2474 -0.1804
12677W        W28294   2.879   5.641   1.668  0.2646  0.1615 -0.0661
12678W        W28295   9.083  15.315   1.383 -0.2542  0.2745  0.0641
12679W        W28296  10.717  14.062   5.577  0.2268  0.1283  0.2890
12680W        W28297   1.567   3.738   0.271 -0.1813 -0.0175  0.0802
12681W        W28298  10.805   3.117   1.663  0.0654 -0.0650  0.1345
12682W        W28299  17.777  17.129   4.271 -0.0346  0.0674  0.4275
12683W        W28300  12.506  16.770  11.931  0.1753 -0.1829 -0.3079
12684W        W28301   6.036  11.946  16.735 -0.3207 -0.0134 -0.0633
12685W        W28302  12.866  17.453  16.626  0.1446 -0.1962  0.2166
12686W        W28303  11.934  15.197  11.820 -0.0046  0.3594  0.3083
12687W        W28304   6.029  11.165   2.359 -0.1245 -0.3527  0.0627
12688W        W28305   1.459   1.383  16.437  0.1566  0.0251 -0.1361
12689W        W28306   9.215   8.543   6.833  0.1793 -0.0256 -0.2394
12690W        W28307   7.415   8.833   0.280 -0.0039 -0.1539 -0.2070
12691W        W28308  13.831   0.600  13.618  0.0484 -0.0268 -0.0769
12692W        W28309   7.742   4.105   5.768  0.3512  0.2371 -0.0646
12693W        W28310  12.070  11.631   0.474  0.2081 -0.0121 -0.1244
12694W        W28311  13.576  15.365   1.534  0.2867 -0.0538  0.2985
12695W        W28312   6.742   9.585   1.451 -0.1326  0.0338  0.1895
12696W        W28313  13.835   8.502  15.177  0.2188  0.2161 -0.0242
12697W        W28314   2.337  15.080   3.712 -0.0800  0.0937 -0.2273
12698W        W28315   1.260   5.745  13.555  0.1886 -0.0928 -0.1344
12699W        W28316   1.588   9.455  13.017  0.1630 -0.5251 -0.1775
12700W        W28317   2.083   2.434   4.690 -0.5029  0.2133 -0.2615
12701W        W28318  13.244   4.141  15.318  0.1006  0.0344 -0.1322
12702W        W28319   0.667  10.716   5.731  0.1213  0.4603 -0.3668
12703W        W28320   9.796   5.672   0.809 -0.5547  0.0618 -0.5303
12704W        W28321  12.989  17.280   3.272  0.2734  0.1263  0.0287
12705W        W28322  17.741   9.142   2.852  0.0286  0.0052  0.1686
12706W        W28323   1.629   2.817   4.026  0.0824  0.0534 -0.1358
12707W        W28324  16.094   6.864  11.332  0.1607 -0.2125 -0.0893
12708W        W28325  11.727  10.859   3.681  0.0358  0.3744 -0.1310
12709W        W28326  11.227   6.878   1.560 -0.1841  0.1657  0.1162
12710W        W28327   1.692   8.228  15.552 -0.1284 -0.1051 -0.1267
12711W        W28328   7.420   8.294   2.369  0.0872 -0.1297 -0.0219
12712W        W28329   0.181  14.268   3.951  0.2279 -0.0043 -0.2179
12713W        W28330   4.240  13.939   2.766  0.0513  0.0172  0.1274
12714W        W28331  13.543  15.376  14.960 -0.2055  0.1540 -0.0367
12715W        W28332   9.113  12.672  12.087  0.1190 -0.2446  0.0509
12716W        W28333   6.885   9.753  12.499 -0.2034  0.1714  0.2186
12717W        W28334   3.645   4.164   2.672  0.0628  0.4700  0.1570
12718W        W28335  12.172   6.157  11.977  0.0344  0.3300 -0.0376
12719W        W28336   9.701  11.610  12.951 -0.2825 -0.0478  0.0792
12720W        W28337  15.968  12.334  12.411  0.0025 -0.0552 -0.3248
12721W        W28338   0.647  10.497  13.351  0.0308 -0.1632 -0.0265
12722W        W28339   0.766   6.946  16.780  0.0493 -0.1587  0.0875
12723W        W28340   8.877   1.213   1.483 -0.0681 -0.0297  0.0503
12724W        W28341  10.632   4.759   3.967 -0.0849  0.2328  0.0073
12725W        W28342   7.995  11.387  15.315 -0.1851 -0.2873 -0.0634
12726W        W28343  13.423   7.005  15.851  0.1642  0.1897 -0.2228
12727W        W28344  16.615  15.686  13.759 -0.2161 -0.0704 -0.0921
12728W        W28345  14.056   0.265   3.076  0.0275 -0.4913  0.0551
12729W        W28346  11.769   6.614   1.730 -0.0658  0.2492  0.0751
12730W        W28347  13.986  15.329  10.567  0.1037  0.2274 -0.1300
12731W        W28348   7.455  17.830   0.201  0.0514  0.1136 -0.1057
12732W        W28349  13.446  16.320  11.539 -0.3608 -0.2004 -0.2128
12733W        W28350   3.308  15.992   1.513  0.3657 -0.1392 -0.1748
12734W        W28351  13.389  12.867   6.128  0.2308 -0.0485  0.0084
12735W        W28352  12.724   6.302   5.391  0.2226 -0.1488  0.2913
12736W        W28353   3.905  13.526   4.349 -0.0808  0.2708 -0.0771
12737W        W28354   1.249   3.544   5.841  0.1720 -0.0264 -0.2834
12738W        W28355  14.359   3.997   0.527  0.2557 -0.3225 -0.0383
12739W        W28356   8.435   7.067  16.469 -0.1215  0.0162  0.1179
12740W        W28357  12.659   7.324  13.612  0.1983  0.1351  0.0499
12741W        W28358   3.826  13.699   2.642 -0.2533 -0.2363 -0.1163
12742W        W28359   0.269  10.498   4.462  0.0668 -0.3181 -0.0999
12743W        W28360   1.983   3.449  12.320  0.3175 -0.4711  0.1056
12744W        W28361   5.341  12.247   3.189 -0.0961 -0.1886 -0.0201
12745W        W28362  10.095  14.256  14.097 -0.2764 -0.0382  0.2658
12746W        W28363  13.135   6.567  16.105 -0.1935 -0.3497 -0.2139
12747W        W28364   4.523   9.054  13.341  0.1379  0.0003  0.1429
12748W        W28365   5.013   4.843   6.478 -0.1906 -0.0325  0.1138
12749W        W28366  13.995  10.479  14.440 -0.0340 -0.1502  0.2098
12750W        W28367  15.015  13.921   6.227  0.0352 -0.3743  0.0152
12751W        W28368  11.126   2.891   5.448 -0.2557 -0.0224  0.1627
12752W        W28369   5.680   0.725   1.052 -0.1985 -0.0060  0.1239
12753W        W28370   1.637   6.690   0.322  0.0042  0.0702  0.2087
12754W        W28371  16.758  17.485  12.681 -0.2875  0.3319  0.0206
12755W        W28372   8.620  14.651   0.131  0.0516 -0.1660 -0.1164
12756W        W28373   5.635  12.622  12.283  0.1778  0.0921 -0.0435
12757W        W28374   3.555  15.583  12.231  0.0633  0.0629  0.2619
12758W        W28375   9.258   3.813   4.266  0.1424 -0.2316  0.2522
12759W        W28376  13.333   8.045  13.916 -0.1195  0.1193  0.1792
12760W        W28377   4.607   7.896  15.920  0.0885 -0.0396  0.4353
12761W        W28378  17.812  15.219  15.958  0.1774 -0.2226 -0.0549
12762W        W28379  12.993  10.608  11.502 -0.1089 -0.5093 -0.0183
12763W        W28380   7.828   5.715   0.355 -0.2012 -0.0588 -0.1805
12764W        W28381   0.285   9.115   3.189 -0.1638 -0.0287  0.0354
12765W        W28382  16.426  12.623   1.083  0.3563 -0.1213 -0.1703
12766W        W28383   7.878  14.026  12.409 -0.2942  0.0387  0.0168
12767W        W28384   1.989  12.037  15.442  0.0431 -0.0897 -0.0137
12768W        W28385  17.418  13.053   2.668  0.3683 -0.1771 -0.1607
12769W        W28386   5.544   8.565   3.868  0.0681 -0.0407  0.0178
12770W        W28387   3.202   1.964   5.436  0.2580 -0.1856 -0.1825
12771W        W28388  11.003  14.930  14.722 -0.1547 -0.3213 -0.0276
12772W        W28389  12.232  13.766   3.834 -0.1265  0.0431 -0.0311
12773W        W28390  17.557   2.422   0.506  0.0887  0.0304 -0.0987
12774W        W28391  13.473   1.695   1.616 -0.0220 -0.1369 -0.2445
12775W        W28392  17.278   0.484  16.432 -0.1946 -0.3133 -0.1145
12776W        W28393  10.413  11.445  13.372 -0.0585  0.0287 -0.1636
12777W        W28394   8.040  12.805  14.301  0.1828  0.0981 -0.0490
12778W        W28395   2.224   9.118  16.218 -0.0906 -0.2222  0.0571
12779W        W28396  13.424   2.313   2.026  0.3441  0.1587  0.1091
12780W        W28397   8.715  13.853  15.086 -0.1741  0.0398  0.2599
12781W        W28398  15.410  12.479   5.624 -0.3355  0.0413 -0.1553
12782W        W28399   8.972   6.206  12.788 -0.0799  0.0338  0.2342
12783W        W28400  14.875   6.572   3.547  0.0904 -0.2100 -0.2051
12784W        W28401  14.090   6.731   5.436 -0.0959  0.3144 -0.1989
12785W        W28402  16.483   1.411   5.868  0.0851  0.1463 -0.1090
12786W        W28403  15.375   3.013  15.897  0.1690 -0.0076 -0.1066
12787W        W28404  14.838  15.622   0.909 -0.1033  0.2493  0.0630
12788W        W28405  12.351  16.447  12.853  0.1277 -0.1302  0.0022
12789W        W28406  10.345  15.906   6.037  0.2744 -0.1191  0.2495
12790W        W28407   3.383  15.450  16.678 -0.1002 -0.1988 -0.1002
12791W        W28408  16.012  16.090   3.658 -0.2335  0.3017  0.2386
12792W        W28409  11.206   8.996   4.573 -0.2826  0.0515  0.0985
12793W        W28410  16.243   0.830  16.216 -0.3251 -0.0011  0.2548
12794W        W28411  13.130   4.731  14.777  0.1212 -0.0165 -0.2053
12795W        W28412   3.817  13.388  16.424 -0.0261  0.0632 -0.0600
12796W        W28413  15.123  16.577  14.014  0.1920 -0.0497 -0.0661
12797W        W28414   6.272   7.194   6.418  0.0952 -0.2591  0.2440
12798W        W28415  13.241   9.847  12.348  0.1251 -0.0884  0.0913
12799W        W28416   4.985  13.646   1.555 -0.0002 -0.3200 -0.2590
12800W        W28417  14.541  10.508   2.847 -0.0003  0.4884 -0.0643
12801W        W28418   6.010  17.310  13.937  0.1970  0.0935 -0.0741
12802W        W28419   8.518   9.926   2.745 -0.1389 -0.1802  0.1425
12803W        W28420   3.588  11.571   2.056  0.2205  0.3277  0.0368
12804W        W28421  12.670  13.610  14.860  0.1124  0.1959  0.0792
12805W        W28422   5.456  15.868  14.774 -0.0711  0.0097  0.0511
12806W        W28423   4.181   8.890   5.194  0.1064  0.0483 -0.1534
12807W        W28424   1.875   2.246  12.593 -0.0608 -0.0193  0.0005
12808W        W28425   1.123   0.119  13.012 -0.1601  0.1701 -0.0469
12809W        W28426   6.124   0.391   2.294  0.0277 -0.0934 -0.1384
12810W        W28427  11.027  13.641   0.876  0.1225  0.1985  0.0907
12811W        W28428   1.913  16.978  13.487 -0.1127 -0.1238 -0.1126
12812W        W28429   6.829   3.404   6.565  0.2041 -0.2042 -0.3785
12813W        W28430   0.247   7.802  13.227 -0.1818  0.0351  0.0695
12814W        W28431  10.288   2.485   0.429 -0.1114 -0.0583 -0.2329
12815W        W28432   6.831  13.968  11.738  0.1299  0.1952  0.0168
12816W        W28433   0.922  12.719   0.812  0.0498  0.0952  0.0324
12817W        W28434   1.323  15.215  15.924  0.0683 -0.1209  0.1494
12818W        W28435   8.912  11.070   5.810 -0.0667  0.1776 -0.1582
12819W        W28436   8.012  13.016  12.639 -0.2867  0.1852  0.1354
12820W        W28437  14.258   0.104  14.788 -0.0822  0.0179  0.0207
12821W        W28438   1.876   4.364   4.700  0.1319  0.3398 -0.0604
12822W        W28439   1.994   3.017  16.146 -0.3052  0.1261 -0.0174
12823W        W28440   9.315   7.050  16.243  0.0217  0.3363 -0.2482
12824W        W28441   6.700   8.878  14.589 -0.1161 -0.1151  0.0252
12825W        W28442  14.004   5.205  13.144  0.2708  0.1318 -0.1724
12826W        W28443   4.217   4.447  15.797 -0.1431 -0.1631  0.1284
12827W        W28444  12.121  11.370   0.909  0.0949 -0.0700  0.2823
12828W        W28445  15.362  14.000   4.383 -0.2562  0.2015  0.2374
12829W        W28446  14.804  16.533   3.515 -0.1763  0.0362  0.2045
12830W        W28447   7.771   9.706  16.167 -0.0573 -0.0319  0.2030
12831W        W28448   9.032   8.281  11.400  0.1217  0.2718 -0.3051
12832W        W28449   3.811   3.995   1.686  0.0929  0.0799 -0.3394
12833W        W28450   7.184   2.715  16.773  0.2428 -0.0607  0.0065
12834W        W28451  12.060   3.801   3.766  0.0070 -0.2921  0.4651
12835W        W28452  15.672   0.460   3.665 -0.0037 -0.0765 -0.0885
12836W        W28453   0.581   8.861   1.577  0.1215 -0.0092 -0.0059
12837W        W28454   0.364  13.183   0.298  0.2681 -0.0209 -0.0085
12838W        W28455   5.274   7.871   5.058  0.2451  0.1062 -0.0372
12839W        W28456   6.396  12.595  12.070 -0.2545  0.0110 -0.1535
12840W        W28457   6.106   0.462   1.301 -0.0371 -0.4292 -0.1373
12841W        W28458  11.349   5.469   0.221  0.2432 -0.0526  0.0482
12842W        W28459  14.285   4.332  11.811  0.0531  0.0418  0.1770
12843W        W28460   8.385  12.022   5.239  0.1292  0.0604  0.2372
12844W        W28461   7.162   7.765  15.618  0.0384 -0.0529  0.2185
12845W        W28462   4.262   6.492   6.276 -0.1973 -0.2464  0.4161
12846W        W28463   2.668   8.648  16.817  0.0580 -0.2866  0.1524
12847W        W28464  12.423   9.988  15.498 -0.1552 -0.0018  0.0118
12848W        W28465  11.141   9.374   5.578  0.1827 -0.1390 -0.5855
12849W        W28466   9.588   9.743  15.549 -0.4811  0.2192  0.2246
12850W        W28467   4.119   7.537   1.113  0.2108  0.1389  0.2019
12851W        W28468   2.729  12.457   6.112  0.0032 -0.0743 -0.1530
12852W        W28469   0.388   2.288  15.644 -0.0203 -0.2952  0.3359
12853W        W28470  10.954   2.349  11.723  0.2785  0.5967 -0.2945
12854W        W28471  11.686   2.132  12.866 -0.0926 -0.1296 -0.1729
12855W        W28472   2.914  13.958  15.355  0.0430  0.1879 -0.2249
12856W        W28473   9.120  14.969  13.630  0.0546 -0.0543 -0.1141
12857W        W28474   4.144   3.051   4.670  0.0525 -0.3132 -0.0765
12858W        W28475   5.305  16.996   1.655 -0.1432 -0.0435  0.0210
12859W        W28476   4.224  12.767  11.962 -0.0453  0.2030 -0.0151
12860W        W28477  10.474   8.746  13.559 -0.1899  0.0371 -0.0034
12861W        W28478  15.240   7.111   0.160 -0.2604 -0.2920  0.1664
12862W        W28479   4.805   5.489  16.163  0.2789  0.2303  0.1304
12863W        W28480   9.282   4.445   0.621 -0.1223 -0.0014  0.3456
12864W        W28481   8.092   2.953   4.068 -0.1475  0.0128 -0.1995
12865W        W28482   8.698   0.406   5.675 -0.0048  0.1100 -0.0681
12866W        W28483  10.981   4.993  14.465  0.3404 -0.1805  0.0686
12867W        W28484  15.940  16.049  14.437 -0.1883 -0.2749  0.1239
12868W        W28485  15.376  10.493   2.962  0.3035  0.0574  0.2223
12869W        W28486   2.653  10.779  12.612 -0.2414  0.0370  0.3247
12870W        W28487   1.916   3.382  11.515 -0.2785 -0.1976 -0.0555
12871W        W28488   6.433  15.826   3.149 -0.1349 -0.2031 -0.2266
12872W        W28489   8.779  14.068   1.933  0.2036  0.2745 -0.1446
12873W        W28490  16.795   4.557  15.942  0.3049  0.0569  0.0160
12874W        W28491  10.582   2.094   4.167 -0.1511  0.1780  0.4805
12875W        W28492  14.285  16.540   1.307 -0.0392 -0.1288  0.1370
12876W        W28493   5.861  10.059  15.035 -0.1090 -0.0994 -0.1511
12877W        W28494  10.688   2.454   4.638  0.2185  0.1201  0.1493
12878W        W28495  15.010   5.741   6.559 -0.1168 -0.1080  0.2994
12879W        W28496  14.901  13.516   4.117 -0.2103  0.0607  0.0436
12880W        W28497   1.093   6.524  15.407  0.0222  0.3047  0.1783
12881W        W28498  11.221   3.388  16.821 -0.0090 -0.0260 -0.2882
12882W        W28499   6.979   0.313   4.474 -0.1414 -0.0948  0.0118
12883W        W28500   0.791  14.508   1.139 -0.0810 -0.1309 -0.2465
12884W        W28501   5.824   5.565   6.076 -0.1893 -0.0220 -0.1081
12885W        W28502  15.504   9.394  12.267 -0.1593  0.2079 -0.2217
12886W        W28503  10.852   0.035   5.491 -0.4472 -0.1889  0.2606
12887W        W28504  16.259   7.542  16.068 -0.1121 -0.2619  0.0818
12888W        W28505  10.634   3.975   1.669  0.0499  0.0884 -0.1359
12889W        W28506   2.081  10.970   2.676  0.0655 -0.0429 -0.0771
12890W        W28507  10.971  15.370   3.029  0.0261  0.0070  0.3142
12891W        W28508   8.016  14.308   0.716 -0.1724  0.1437  0.0435
12892W        W28509  15.730  16.105   4.608 -0.0811 -0.0557 -0.0303
12893W        W28510   5.369   1.046   0.821  0.0790 -0.1452  0.0417
12894W        W28511  11.029   5.069  12.011 -0.0912 -0.0422  0.2033
12895W        W28512  17.847  12.395  12.783 -0.1371  0.2911  0.0473
12896W        W28513  12.111   9.201  13.424 -0.3658  0.0425  0.0691
12897W        W28514   0.397   0.662   4.634  0.0809 -0.0248  0.0366
12898W        W28515  15.016   7.080   0.594 -0.0541 -0.1513  0.0038
12899W        W28516  15.783   2.381  15.314  0.3779 -0.0239 -0.0121
12900W        W28517   2.422  13.418  13.766  0.0340 -0.1029  0.1127
12901W        W28518   8.706  14.385  14.365 -0.2331 -0.3448  0.2845
12902W        W28519   9.402  13.836  15.001 -0.0221  0.3754  0.3755
12903W        W28520   6.517  11.115  15.754 -0.0847  0.2372 -0.1706
12904W        W28521   8.043   4.493   1.999 -0.0090  0.2265  0.1260
12905W        W28522  14.913   7.656   3.861 -0.4005 -0.0472 -0.1400
12906W        W28523  13.901  17.129   1.371  0.0134 -0.2594  0.3651
12907W        W28524   0.165  13.727  15.024  0.0398 -0.0311 -0.1306
12908W        W28525  12.488   1.145   2.348 -0.1950  0.1588  0.3108
12909W        W28526   3.583  17.699   4.127  0.2397 -0.0085  0.0187
12910W        W28527   5.254  13.019  13.987  0.2526  0.1795 -0.1749
12911W        W28528  15.903   9.040   5.872  0.0374 -0.0752 -0.0713
12912W        W28529   1.333  13.079  12.775 -0.0900  0.1331  0.0567
12913W        W28530   7.720   6.983  15.757  0.0438 -0.0296  0.0572
12914W        W28531  13.182   1.260  15.058  0.0010  0.0380 -0.3228
12915W        W28532   2.617   4.311  12.700  0.0622 -0.1574  0.0885
12916W        W28533  11.232   9.164   2.088 -0.0937  0.1489 -0.2373
12917W        W28534   7.227   9.486  12.787 -0.1450 -0.0573 -0.0560
12918W        W28535  17.788  13.986  14.687 -0.0280 -0.1506 -0.1493
12919W        W28536  17.291   4.502  11.851  0.2296  0.2395 -0.1267
12920W        W28537  16.850   5.050   2.591 -0.3190  0.3228 -0.0445
12921W        W28538   3.616   4.149   5.506 -0.1373  0.0023  0.0920
12922W        W28539  11.743  17.720   0.364  0.3594  0.1267 -0.0654
12923W        W28540   2.485  17.175   0.168 -0.0903  0.0020 -0.1788
12924W        W28541   3.595  10.275  16.526  0.1345 -0.2208  0.0724
12925W        W28542   9.955  15.807   6.427 -0.1034  0.2358 -0.0037
12926W        W28543  15.615  17.717  14.592  0.0233 -0.3917 -0.0457
12927W        W28544  13.114   4.700   0.202 -0.1184  0.2001  0.3957
12928W        W28545   2.614   3.736   1.373 -0.3021  0.0591  0.2078
12929W        W28546   1.200   9.927   2.866 -0.2013 -0.3494 -0.1332
12930W        W28547  17.164  17.656   5.946  0.2161 -0.1144 -0.4622
12931W        W28548  13.334   6.080   3.237 -0.0437  0.1226  0.0836
12932W        W28549  10.087   6.063  13.687  0.0364 -0.0574 -0.0347
12933W        W28550   7.973   7.871   6.268  0.0966 -0.0273  0.0664
12934W        W28551   6.232   6.474   5.339 -0.1258  0.1345  0.0700
12935W        W28552  16.897  15.901   5.252  0.1580 -0.2025 -0.1154
12936W        W28553   9.767   0.397   4.746  0.0538 -0.1937 -0.1071
12937W        W28554  10.917   8.835  12.168 -0.0621 -0.0556 -0.0519
12938W        W28555  13.103   4.211  14.840  0.2461  0.1770  0.1309
12939W        W28556   4.826  16.732  16.627  0.1270  0.0158 -0.2875
12940W        W28557  14.411   8.572   3.010 -0.4675  0.0609  0.0249
12941W        W28558  10.027  14.703  14.396  0.1010  0.1145  0.0730
12942W        W28559  11.122   8.403   4.761 -0.0028  0.1052  0.0354
12943W        W28560  11.003  13.813   6.091 -0.2117 -0.0193 -0.0182
12944W        W28561   4.137  16.125   2.872 -0.2176 -0.1964 -0.1377
12945W        W28562  15.159  16.668   3.123  0.0391  0.0852  0.1066
12946W        W28563   3.371  17.868  14.105 -0.0058 -0.0246 -0.2480
12947W        W28564  15.402   9.182  15.440  0.1485 -0.0831 -0.0440
12948W        W28565  10.688   4.100   2.658  0.2869  0.0137 -0.2930
12949W        W28566   9.726   6.726  14.868 -0.3762  0.1378 -0.1258
12950W        W28567   4.058   6.188  14.774  0.0336  0.2114  0.0516
12951W        W28568   8.471   7.782  12.844 -0.0733 -0.4378  0.1384
12952W        W28569   8.005   3.064  13.337 -0.1583 -0.2244 -0.1162
12953W        W28570  15.971   7.348  15.195  0.2014 -0.0078  0.0107
12954W        W28571  15.094  17.731   0.158 -0.0388  0.0488  0.0367
12955W        W28572  17.553  13.517  14.531 -0.5251  0.2076 -0.3346
12956W        W28573  14.619   7.304  13.598  0.4421  0.1206  0.0309
12957W        W28574   7.068  14.209  12.673 -0.0586  0.1694  0.0159
12958W        W28575   4.076   4.483   1.201  0.4877  0.0122 -0.3350
12959W        W28576   7.020  13.875  14.525 -0.1860 -0.0747 -0.1703
12960W        W28577   9.864  14.622   3.457 -0.0106  0.1922 -0.2626
12961W        W28578   9.873   7.599  14.748 -0.0511  0.0305  0.6177
12962W        W28579  12.903  10.373   2.349 -0.0023 -0.3742  0.0145
12963W        W28580   9.165   7.010   5.503  0.0548 -0.1423 -0.0044
12964W        W28581   5.445   2.672  13.106 -0.1636 -0.2774  0.2604
12965W        W28582  15.650   2.994  11.478  0.0352  0.1620  0.1615
12966W        W28583   8.597  13.930   0.856  0.3269 -0.0057 -0.1301
12967W        W28584  17.856   5.305   5.683  0.0715 -0.1653  0.1361
12968W        W28585  17.696   8.752   4.773 -0.1111 -0.1888  0.1082
12969W        W28586   3.308   1.742  11.932  0.2659  0.4609 -0.0371
12970W        W28587   4.288  15.631  12.347 -0.0204 -0.0758  0.0293
12971W        W28588   6.223   6.282  11.961  0.1268 -0.0750 -0.2056
12972W        W28589  16.298   7.409   4.333 -0.1092 -0.0530  0.0243
12973W        W28590  16.793   7.230   4.629  0.0886  0.0639 -0.1963
12974W        W28591   8.953   0.906  12.395 -0.0544  0.0872 -0.1604
12975W        W28592   6.400   9.672  13.226 -0.0558  0.0083 -0.1393
12976W        W28593  15.407  15.231  12.091 -0.1932  0.0973 -0.0692
12977W        W28594  13.651  16.431  13.789  0.0369 -0.0145 -0.5929
12978W        W28595  14.731  15.230   5.395 -0.2480  0.1196  0.0349
12979W        W28596   6.208   8.330  13.254 -0.0631 -0.1092  0.0359
12980W        W28597   9.109  10.391   4.515  0.1143 -0.2364  0.2475
12981W        W28598  13.089  12.157  15.149  0.3303  0.0028 -0.0590
12982W        W28599   5.491   3.534   1.069  0.2383 -0.0302  0.1012
12983W        W28600   3.758   9.348  12.730  0.3282  0.1676  0.2371
12984W        W28601  11.545  16.510   0.072 -0.0766 -0.0567 -0.3736
12985W        W28602   4.773   8.828   5.671  0.0656 -0.0455 -0.0958
12986W        W28603  10.399   0.423  12.367  0.0044  0.0837  0.2621
12987W        W28604  16.072   3.208   3.119 -0.2660  0.1420 -0.0327
12988W        W28605  10.044   0.845   6.181  0.1118  0.0248 -0.0917
12989W        W28606   8.409  12.298  15.173 -0.0488 -0.1114  0.0979
12990W        W28607  16.644   9.690  16.718  0.2789 -0.0419 -0.0114
12991W        W28608   2.084   0.622   5.333  0.1654  0.2842  0.0572
12992W        W28609  15.535   3.106   5.624  0.1106 -0.1813  0.0027
12993W        W28610  10.886  15.664  13.285  0.1570 -0.2382  0.0161
12994W        W28611  16.137  12.063   6.307 -0.0294  0.2662  0.0856
12995W        W28612  11.273  14.103   2.421  0.1188  0.3533  0.0478
12996W        W28613  10.320  12.493   5.636 -0.0867  0.0973  0.1057
12997W        W28614   9.187   8.422  16.726 -0.2314  0.1979  0.0132
12998W        W28615  16.215   3.206  14.686  0.2149 -0.0107 -0.3788
12999W        W28616  10.596  16.220   3.364  0.2493  0.1067  0.2706
13000W        W28617   7.316   7.782   1.730 -0.0590 -0.1971 -0.2132
13001W        W28618   4.204   4.407   5.760  0.0341 -0.3335 -0.0323
13002W        W28619  10.892  14.132   5.055  0.0948 -0.0386 -0.0433
13003W        W28620   2.031   0.229   4.838 -0.2683  0.0882 -0.1049
13004W        W28621   1.957   8.601   0.623  0.1649  0.1411 -0.4766
13005W        W28622   3.983   6.378   1.966  0.3458  0.0344  0.2293
13006W        W28623  13.971   3.676  15.000  0.1428  0.1175  0.0248
13007W        W28624  11.780   4.630  14.397 -0.2396 -0.0345  0.0409
13008W        W28625   3.357  12.708  14.452 -0.2204 -0.0561 -0.1803
13009W        W28626   5.329  15.584  11.454  0.3517 -0.1619  0.0215
13010W        W28627   7.173   2.267  13.441  0.0576  0.1437 -0.3291
13011W        W28628   8.694  12.553   1.996 -0.0080  0.2054  0.1018
13012W        W28629   4.384  15.897  13.516  0.1508 -0.1972  0.0460
13013W        W28630   6.311   6.112   2.283 -0.3115  0.2318 -0.2222
13014W        W28631   2.590  12.730  16.509  0.1229  0.2604  0.0605
13015W        W28632  10.105  14.618   2.927 -0.1709  0.0756  0.1311
13016W        W28633  14.893  15.255  12.144 -0.0844  0.1117  0.1865
13017W        W28634   3.023   0.601  13.478 -0.0310 -0.1052  0.0488
13018W        W28635   3.266  14.734  12.140 -0.2268  0.0861  0.2945
13019W        W28636   2.200  13.162  14.371  0.0604 -0.2125  0.1796
13020W        W28637  11.963  17.217  12.248  0.0007 -0.0384 -0.2206
13021W        W28638   7.293   8.017  12.535 -0.0447 -0.1599  0.0242
13022W        W28639  17.044  15.825   0.504  0.2687  0.1751 -0.3112
13023W        W28640  10.648  16.813  14.205  0.0118  0.1363  0.5690
13024W        W28641   0.333  11.080   1.018  0.3525  0.0911 -0.0371
13025W        W28642  17.815  10.256  16.478 -0.0032  0.2778  0.0314
13026W        W28643   9.663   5.392   2.691  0.1751  0.0765 -0.1853
13027W        W28644   1.826  11.131  13.662  0.1899 -0.1688  0.4755
13028W        W28645  13.992  14.362   2.982 -0.0387 -0.0194  0.2161
13029W        W28646  17.142   4.085  12.239  0.1413 -0.0111  0.2906
13030W        W28647   8.914   4.842  12.697 -0.0228 -0.1726 -0.1442
13031W        W28648   7.990   7.307   4.122 -0.2593 -0.2197 -0.3661
13032W        W28649  12.644   4.199  15.762  0.0216  0.0158 -0.1988
13033W        W28650   8.192   5.604   5.348 -0.1983  0.2651 -0.2479
13034W        W28651   6.624   8.036   1.238 -0.1858 -0.1026  0.2201
13035W        W28652   6.485   5.110  12.619 -0.2668  0.0113 -0.2929
13036W        W28653  11.319  16.744   4.167 -0.0021  0.1261  0.0850
13037W        W28654   7.052  11.573  11.556 -0.1086  0.2024 -0.0774
13038W        W28655   1.473   2.564   3.402 -0.0273 -0.1440  0.0770
13039W        W28656  15.584   9.767   2.220 -0.1459  0.1162 -0.0314
13040W        W28657  14.475  11.014  14.082  0.0680  0.0059 -0.1130
13041W        W28658  15.216  17.406   0.590  0.2275 -0.2009 -0.2242
13042W        W28659  11.845   5.239  15.861 -0.0435 -0.1080 -0.3003
13043W        W28660   7.006  15.440  12.141 -0.1766 -0.2688  0.1257
13044W        W28661  13.744  15.351  15.741 -0.1152  0.1459 -0.2649
13045W        W28662   8.143   0.928   1.881 -0.1281 -0.3210 -0.0011
13046W        W28663   1.778   2.465   5.144  0.2613 -0.2127 -0.0733
13047W        W28664   1.013  11.178   0.390 -0.0244  0.0055 -0.0140
13048W        W28665  17.159  14.326  16.624 -0.3174  0.2074  0.0120
13049W        W28666   0.284   9.800  11.806  0.0910 -0.1004  0.2114
13050W        W28667   2.182  17.486  12.193  0.1102 -0.2237  0.0135
13051W        W28668   6.963   1.737   5.116  0.0427 -0.1020 -0.0840
13052W        W28669  15.953  12.609   5.756 -0.1071 -0.1974 -0.0100
13053W        W28670   3.351  12.315  15.715  0.2457  0.1694 -0.0962
13054W        W28671   3.248   9.490  12.356  0.1054  0.1436 -0.0444
13055W        W28672  16.308  17.588   2.069  0.2167 -0.6538  0.1762
13056W        W28673  11.439   1.060   2.697  0.1237 -0.1683  0.2848
13057W        W28674   2.308  16.151  11.053  0.1562 -0.1932  0.0451
13058W        W28675   7.636  15.509   2.038  0.2762  0.1985  0.0768
13059W        W28676   7.262   8.029  14.737 -0.3813 -0.1874  0.3724
13060W        W28677  16.930  16.655   1.444  0.2336 -0.1039  0.1714
13061W        W28678  13.005   4.205   4.783  0.1536  0.2353 -0.2238
13062W        W28679  15.853  16.948  11.314 -0.1565 -0.0428  0.2071
13063W        W28680   9.150   2.511   3.824 -0.2347  0.1050 -0.0945
13064W        W28681  10.494   6.396   5.572  0.3291  0.2241 -0.0496
13065W        W28682   7.649  14.786  14.126 -0.2259  0.1035 -0.2112
13066W        W28683   8.794  13.883  13.538  0.2842  0.0790  0.0545
13067W        W28684  13.079   0.741  13.509 -0.0419  0.3007 -0.2597
13068W        W28685  16.092   0.873  11.264  0.0870 -0.0734 -0.1144
13069W        W28686  10.530   7.629   4.603  0.0225  0.0221 -0.0677
13070W        W28687   5.175   0.811  16.497  0.1818 -0.0740 -0.0875
13071W        W28688   8.225  13.816  15.352  0.0374  0.1783  0.0328
13072W        W28689   7.657   3.285  12.958 -0.1741  0.0995  0.1189
13073W        W28690   6.433   4.855  12.244 -0.1130 -0.0860 -0.1313
13074W        W28691   8.044   6.656  12.579  0.1309  0.0127  0.0020
13075W        W28692  16.904   6.546   4.143 -0.1040  0.2520 -0.2174
13076W        W28693   9.947  17.206  14.643 -0.1908  0.2348 -0.1606
13077W        W28694   6.108  15.894  15.902  0.0298 -0.2168  0.1860
13078W        W28695   3.955  12.668  15.608 -0.2353 -0.2343 -0.0923
13079W        W28696   3.809  13.896   4.952 -0.1273 -0.0113  0.0913
13080W        W28697  11.388   3.401   1.430 -0.1583 -0.1212 -0.0234
13081W        W28698  16.137  17.408   3.930  0.1531 -0.0088 -0.3304
13082W        W28699  11.963  11.867  14.557 -0.0287 -0.1271  0.1911
13083W        W28700  16.029   8.173  15.412 -0.0402 -0.1234  0.0854
13084W        W28701  13.598  12.676   1.696  0.3672 -0.2649 -0.0361
13085W        W28702  12.983  14.734   1.471 -0.0493  0.2126  0.2454
13086W        W28703   7.991  17.183   5.910 -0.5264 -0.0564  0.3302
13087W        W28704   0.561  12.323   4.461  0.0801  0.0935 -0.2133
13088W        W28705   5.308   1.648  13.375 -0.1985  0.0230 -0.0397
13089W        W28706  10.104   6.719   1.567 -0.2369 -0.0230  0.1953
13090W        W28707   0.496  14.670  12.329  0.0624 -0.0565 -0.1686
13091W        W28708   5.304   6.156   3.404 -0.0094 -0.2322  0.2093
13092W        W28709  15.248  17.447   1.120 -0.0632  0.0147  0.0419
13093W        W28710  14.825  11.348   5.427  0.0191 -0.0332 -0.0240
13094W        W28711   9.402  16.016   5.456 -0.0362 -0.0210 -0.0719
13095W        W28712   0.968   1.521  16.703 -0.3072  0.3670  0.0686
13096W        W28713   0.096  11.781   3.752 -0.1893 -0.1430 -0.2103
13097W        W28714   2.028  15.884   0.653 -0.1396 -0.2017  0.1145
13098W        W28715   2.008  15.733  13.893  0.0007 -0.0323 -0.0749
13099W        W28716   9.649   9.249   4.817 -0.2476  0.0774 -0.2697
13100W        W28717  11.188  12.931  14.441 -0.0309 -0.1849 -0.1284
13101W        W28718   5.259  13.761  12.371 -0.0643 -0.2926  0.2605
13102W        W28719   6.945   1.569  10.573 -0.1166  0.3377 -0.0657
13103W        W28720  13.565  17.359  15.812 -0.1579  0.2245  0.2868
13104W        W28721   4.098   8.632   3.888 -0.0692 -0.4746 -0.3599
13105W        W28722  17.860   2.821  14.500  0.0216 -0.0980  0.1734
13106W        W28723   8.736   0.824   5.458 -0.0159 -0.2826  0.2287
13107W        W28724   0.414  14.149  15.087  0.1501  0.1583  0.4301
13108W        W28725   9.450  16.816  11.490  0.3098  0.0391  0.0466
13109W        W28726   0.363  13.751   5.432 -0.0643 -0.1780  0.1900
13110W        W28727  14.880  13.358  14.012  0.0088  0.1297  0.1437
13111W        W28728  16.560   6.233  13.761 -0.0428 -0.0928 -0.0898
13112W        W28729  10.511  16.369  10.635  0.2110 -0.0676  0.0291
13113W        W28730  14.102   9.649   4.101 -0.0091  0.0335 -0.2433
13114W        W28731  16.310   5.242  16.488  0.0894  0.2627 -0.0053
13115W        W28732  14.909  12.877  14.741  0.0964 -0.0522 -0.0388
13116W        W28733  15.478   7.577  11.540  0.1662 -0.2692  0.0012
13117W        W28734   4.902  12.861   4.677  0.3089 -0.1526  0.1230
13118W        W28735  15.983   3.341  15.332  0.2523  0.1867 -0.3087
13119W        W28736   3.844   5.576   2.793  0.0214 -0.1987 -0.0955
13120W        W28737   8.789  16.985  15.055 -0.2057  0.2376 -0.1095
13121W        W28738   7.789   4.991   3.244 -0.1028  0.3474 -0.0683
13122W        W28739   7.059  11.755   2.036 -0.3717 -0.1849 -0.0522
13123W        W28740   6.395  11.308   1.734  0.1679  0.1595 -0.0561
13124W        W28741  12.155   3.226   2.695  0.0482  0.0646  0.1146
13125W        W28742   2.830   5.281   5.154  0.0830  0.0443 -0.0023
13126W        W28743  11.129  13.283  13.870 -0.0455  0.0573 -0.4382
13127W        W28744   6.124  15.753  14.422 -0.1806 -0.0669  0.1822
13128W        W28745  10.158  10.158   2.279  0.2175 -0.0596 -0.0019
13129W        W28746   3.609   6.472  13.910  0.1075 -0.0833 -0.2718
13130W        W28747  16.447  11.507   2.410  0.0747 -0.1354 -0.0842
13131W        W28748  12.345  16.014   2.723 -0.0906  0.1722  0.2871
13132W        W28749   7.281   3.676   4.232  0.0061  0.0635  0.1035
13133W        W28750  10.026   2.692   4.716 -0.0585 -0.1779  0.1766
13134W        W28751  14.495  13.004   1.934 -0.1312  0.0543 -0.0795
13135W        W28752   2.252  15.651  10.928  0.1241  0.1087  0.0873
13136W        W28753   7.006   6.638   3.695 -0.2565 -0.1067  0.0199
13137W        W28754   0.187   4.713   3.198 -0.0272 -0.0005  0.0852
13138W        W28755  11.191  14.243  16.396 -0.0530 -0.1507 -0.0339
13139W        W28756   6.655   9.638  13.683 -0.0486 -0.0186  0.2175
13140W        W28757   6.783   0.727  13.689  0.0339  0.0464  0.0132
13141W        W28758  10.406   2.223  13.900  0.1358 -0.1579  0.1952
13142W        W28759   1.845   5.492  16.375 -0.1661 -0.1949 -0.1754
13143W        W28760  13.730   0.514  16.080 -0.1178 -0.2106  0.1094
13144W        W28761  17.268   2.438  16.260  0.2938 -0.2314  0.2001
13145W        W28762  12.939  11.683   2.060  0.1279  0.0156  0.2664
13146W        W28763  15.578   2.441   3.477  0.1919  0.2960  0.0455
13147W        W28764   0.520  14.578   0.744  0.1301 -0.1876  0.1157
13148W        W28765   8.259  15.633   1.882 -0.3042 -0.2126 -0.2297
13149W        W28766  13.852  13.044   5.324  0.4364  0.2185 -0.2865
13150W        W28767   1.183  14.761  16.178  0.0567  0.1605 -0.0704
13151W        W28768  10.699  11.714   5.621 -0.3184  0.0081 -0.0010
13152W        W28769  11.156   8.117   0.896 -0.1020 -0.2521 -0.0450
13153W        W28770  17.605  14.006  15.136 -0.0385 -0.3482  0.0337
13154W        W28771  13.657  10.698  12.735  0.0676  0.0229  0.0725
13155W        W28772  15.653  14.743   0.614  0.0137  0.1498 -0.1288
13156W        W28773   4.831  11.480  16.617  0.2051  0.0509 -0.0573
13157W        W28774   2.905   0.577  16.821 -0.0486  0.1106 -0.0720
13158W        W28775  14.897   5.027  15.391  0.0143  0.3020 -0.2277
13159W        W28776   4.687   1.186  16.570 -0.1081  0.0379  0.0215
13160W        W28777  12.023   6.683   2.849 -0.3459 -0.2158  0.1635
13161W        W28778  17.813   9.715  12.168 -0.3124 -0.2307  0.2417
13162W        W28779   4.596  11.071  11.642  0.0673  0.0404 -0.1864
13163W        W28780   2.499   7.083   0.495  0.0665  0.3865 -0.0182
13164W        W28781   2.005   7.011   4.317  0.0990 -0.0661  0.2807
13165W        W28782  15.048   7.824  12.272 -0.0066 -0.0427  0.0930
13166W        W28783   7.013   2.287  12.018 -0.2600 -0.2171  0.0215
13167W        W28784  17.319   0.600  15.862 -0.1469 -0.2380 -0.0518
13168W        W28785  17.167   1.532   4.063  0.2904 -0.4361  0.1330
13169W        W28786  15.380   2.813   3.157 -0.4696  0.0207 -0.1402
13170W        W28787   3.196   7.488   3.756  0.0206  0.2867 -0.2846
13171W        W28788   0.134  16.791   4.893 -0.1701 -0.0353  0.2332
13172W        W28789   4.409  12.956   0.275 -0.1531  0.3564 -0.1641
13173W        W28790  11.893   0.369   1.982 -0.1109 -0.1083  0.1077
13174W        W28791  12.631  16.878   2.942  0.1603 -0.1652  0.0605
13175W        W28792   1.097  12.150   4.573 -0.4533 -0.1043 -0.0133
13176W        W28793   6.722  11.363  14.877  0.1776  0.1216 -0.0252
13177W        W28794  11.792  16.539   2.273 -0.1912  0.0291  0.4632
13178W        W28795   0.413  14.200  11.604  0.1600 -0.3120 -0.2267
13179W        W28796   6.716   0.723  10.971  0.1708  0.2591  0.0472
13180W        W28797   7.160  12.602   2.627 -0.2006 -0.1044 -0.0827
13181W        W28798   4.206  16.778   5.077  0.0175 -0.0901  0.1620
13182W        W28799   9.818   5.884   2.611  0.0512  0.1240  0.0536
13183W        W28800   7.662   0.761  13.527  0.0683 -0.0476 -0.1065
13184W        W28801   8.551   0.419   1.530  0.0012  0.1349 -0.2268
13185W        W28802   9.323   9.842   2.059 -0.2689 -0.1785  0.0808
13186W        W28803   0.818  15.922  12.040 -0.2500  0.0334 -0.1444
13187W        W28804   4.551   8.028   0.101  0.5110 -0.0236 -0.0047
13188W        W28805  12.091   1.653  12.492  0.1721  0.0015 -0.0232
13189W        W28806  13.140  10.328  16.548  0.2431  0.0676  0.0635
13190W        W28807  17.379  12.053  14.030 -0.1559  0.3221  0.1902
13191W        W28808  16.003   1.202   3.303 -0.0310  0.0326  0.0122
13192W        W28809   4.717  11.451  11.962 -0.0719 -0.0123  0.0057
13193W        W28810  14.694  11.614  13.110  0.1122  0.0016  0.1677
13194W        W28811  10.888  12.782   1.798  0.2369 -0.4704  0.0398
13195W        W28812  10.434  14.233  13.697 -0.0126  0.0572 -0.0996
13196W        W28813   1.643   2.511   1.113 -0.3133 -0.5535 -0.0204
13197W        W28814   3.140  17.050  10.585  0.1654  0.0038 -0.0989
13198W        W28815   5.716   9.756   3.596  0.1523 -0.0662  0.3316
13199W        W28816   9.814   4.663   1.362 -0.0983  0.0636 -0.1970
13200W        W28817   5.000  15.556  16.484 -0.1393 -0.2580  0.0561
13201W        W28818  11.573  11.061   1.575  0.1792 -0.1167  0.0516
13202W        W28819  17.285   0.507   5.708 -0.1413 -0.1470 -0.0610
13203W        W28820   5.005   4.910   5.395  0.2339 -0.2664  0.0840
13204W        W28821  17.410   2.955   1.830 -0.1328 -0.2754 -0.1331
13205W        W28822   1.768  14.708   2.079 -0.0212  0.3840  0.1371
13206W        W28823  14.092   7.731   4.532 -0.0047 -0.1968 -0.1410
13207W        W28824   1.914   3.793  12.748  0.0765 -0.0622 -0.0074
13208W        W28825  15.935   3.187  13.675 -0.0193  0.0665 -0.0561
13209W        W28826  15.494  17.449   2.708  0.0828  0.0559 -0.0754
13210W        W28827  15.982   0.941  15.818  0.1775  0.0594 -0.0284
13211W        W28828   8.854  13.022  10.852 -0.0133 -0.0791  0.2862
13212W        W28829   6.753   6.242   4.804  0.0014 -0.2671  0.0553
13213W        W28830   5.905   2.742   1.077  0.0394  0.1508  0.2960
13214W        W28831  17.691  12.964   3.107 -0.0980 -0.0063 -0.1669
13215W        W28832  16.533  17.109   1.971  0.1169 -0.0446  0.4354
13216W        W28833   3.149   0.741   5.437  0.0923  0.2915 -0.3603
13217W        W28834  12.266   6.453  15.308 -0.1760 -0.0197  0.1245
13218W        W28835   2.138   0.105  12.015 -0.0327 -0.2355  0.4086
13219W        W28836  11.531   6.224   2.347  0.0162 -0.0268  0.3152
13220W        W28837  10.538   4.521   0.701 -0.3763 -0.0357  0.1692
13221W        W28838   8.006   7.357  13.676  0.1370  0.0240 -0.2065
13222W        W28839  11.941   3.979   1.438 -0.0749  0.4440 -0.4118
13223W        W28840  16.583  12.866   2.719  0.0807  0.0140  0.1163
13224W        W28841  12.265   1.416  12.881  0.0276 -0.3427  0.0886
13225W        W28842   5.572   9.735  14.097 -0.0866  0.1372  0.1938
13226W        W28843  13.660   8.602  14.298  0.2088 -0.1431  0.1100
13227W        W28844  15.648  10.460  15.473  0.0379  0.0917  0.0811
13228W        W28845   6.040   2.726   5.140  0.0815  0.1824 -0.1495
13229W        W28846   8.390   0.740   3.022 -0.3760 -0.2540  0.1293
13230W        W28847  12.937  15.468  13.628 -0.4190  0.2055 -0.0126
13231W        W28848  16.797  15.801   1.939 -0.0189  0.0315 -0.1034
13232W        W28849   4.663  12.205   4.056 -0.3574  0.2548 -0.0404
13233W        W28850   1.941  12.609  11.178 -0.0465 -0.0481  0.0143
13234W        W28851   9.977   0.739  11.482 -0.1646  0.2259  0.1637
13235W        W28852   3.500   6.164  11.379 -0.1168 -0.1430 -0.5386
13236W        W28853   3.184   4.593   0.568 -0.2424 -0.0011  0.1752
13237W        W28854   1.605   1.139   0.465 -0.0049 -0.1521  0.0887
13238W        W28855   8.291  11.469   2.973 -0.0895  0.5274 -0.1086
13239W        W28856   5.500  11.065  11.875  0.0415 -0.2549  0.0454
13240W        W28857   3.097  12.897  12.725 -0.0831 -0.0364 -0.0771
13241W        W28858  12.282  10.168  11.359  0.4028  0.2989  0.3369
13242W        W28859   6.855  14.346   1.430  0.1909  0.0998 -0.0105
13243W        W28860   7.824   8.209  12.393 -0.3188  0.0433  0.1608
13244W        W28861  13.501   1.907   1.153 -0.2630 -0.0840  0.0770
13245W        W28862  16.676  13.918  14.970  0.0007 -0.2378 -0.2734
13246W        W28863   2.082  16.505  11.388 -0.1088  0.4243  0.0950
13247W        W28864   9.428   4.630   3.888  0.2632  0.0589 -0.0111
13248W        W28865  15.778   2.883  16.263 -0.0593 -0.1120 -0.3965
13249W        W28866   2.772  15.225   3.843 -0.3081  0.2728 -0.1610
13250W        W28867  10.135   7.657   3.171  0.2755 -0.0282 -0.1597
13251W        W28868   8.702  14.951  16.031 -0.1095 -0.1966  0.0146
13252W        W28869  11.496   7.695   0.116  0.1273 -0.5308 -0.1590
13253W        W28870   2.413  16.069  11.504 -0.1647  0.0611  0.1772
13254W        W28871  15.655  16.119   5.615  0.0401  0.1557 -0.2144
13255W        W28872   2.536  15.272  12.146  0.1393 -0.1028  0.2282
13256W        W28873   9.052  14.146  15.821 -0.0045 -0.0282  0.4345
13257W        W28874  16.265   5.711   5.204  0.1821 -0.0352 -0.1817
13258W        W28875  10.382  13.047  14.557  0.3270 -0.4111  0.0285
13259W        W28876  15.927   8.785  15.603 -0.0340 -0.1000 -0.0331
13260W        W28877   4.959   9.603  14.211 -0.0095  0.0642  0.1540
13261W        W28878  17.609  15.084   5.163 -0.3572  0.0938  0.1046
13262W        W28879  14.962  13.351  14.520 -0.3512  0.2524 -0.0170
13263W        W28880  10.742   2.728   0.450 -0.0176  0.1652 -0.0462
13264W        W28881  12.578  17.112  15.495 -0.1677 -0.1572  0.1546
13265W        W28882   3.962   6.051   3.798  0.1023  0.3779 -0.1470
13266W        W28883  16.045  12.280  12.897  0.3303  0.3801 -0.0551
13267W        W28884   9.797   1.302  14.204 -0.0067  0.1025  0.3713
13268W        W28885  15.828  16.657   1.707  0.1481 -0.2604  0.1766
13269W        W28886   1.345  11.109  16.195 -0.0074 -0.2989  0.4774
13270W        W28887  13.075   4.893   3.812 -0.0190  0.0147  0.2494
13271W        W28888   3.707   3.315  11.819  0.1339  0.0681 -0.0751
13272W        W28889   4.635   4.417  10.475 -0.1799  0.2026 -0.0598
13273W        W28890   8.453   5.093  13.532  0.0729  0.1870 -0.0284
13274W        W28891   1.810   8.214   0.940  0.2230  0.1658 -0.0348
13275W        W28892  17.252   9.554   1.079  0.0991  0.4522 -0.2269
13276W        W28893   2.999   7.725   2.992 -0.0189  0.0748 -0.1477
13277W        W28894  16.134   3.188  16.310 -0.2234  0.0223  0.0315
13278W        W28895   9.198  10.222   0.449  0.1212 -0.0622  0.3470
13279W        W28896   7.099  11.141   4.624  0.1368 -0.0408 -0.1639
13280W        W28897   0.641  13.314   5.583  0.1273 -0.1128 -0.0132
13281W        W28898  16.117   7.295   6.053 -0.1419 -0.0525  0.1031
13282W        W28899   6.715  11.109  15.279  0.3184 -0.0593  0.3623
13283W        W28900  14.939   3.357  15.852 -0.2005 -0.1163 -0.4531
13284W        W28901  12.365   1.755  13.387 -0.1098 -0.1768 -0.1499
13285W        W28902  17.725  14.243   5.840 -0.0483 -0.0775  0.0381
13286W        W28903  14.167  13.693   3.675  0.2464  0.0505  0.2422
13287W        W28904   8.427  14.600  15.903 -0.2262 -0.1583 -0.0696
13288W        W28905   3.850   4.627  16.801  0.0915  0.2431 -0.3682
13289W        W28906   2.283  14.420  12.618 -0.0337  0.0129 -0.1046
13290W        W28907  15.825   4.714   1.929 -0.0001  0.1560 -0.1869
13291W        W28908   4.732  15.737  15.540  0.1083  0.1955  0.0999
13292W        W28909   0.748   4.658  14.316  0.0230 -0.0032 -0.1834
13293W        W28910   3.076   7.942  13.469  0.3428  0.0278  0.1913
13294W        W28911   4.871   3.280  14.379 -0.0166  0.2180 -0.2587
13295W        W28912   4.314   5.726   5.183 -0.0485 -0.3240  0.4124
13296W        W28913   9.911   4.453  13.988 -0.3239  0.1891  0.3430
13297W        W28914  17.285   9.213   2.643  0.3806 -0.0331 -0.0696
13298W        W28915   9.075   9.171  13.141 -0.1528 -0.2562  0.0220
13299W        W28916  12.413   4.787   0.060  0.0270 -0.3488 -0.0714
13300W        W28917  17.346  13.375   4.756 -0.2252 -0.0631 -0.1501
13301W        W28918  12.491  12.976   5.777 -0.0709  0.1238 -0.2495
13302W        W28919  16.849   3.597   2.677  0.0344 -0.2891 -0.0345
13303W        W28920   9.108  15.723   4.422  0.0400 -0.1488 -0.0049
13304W        W28921  15.788   2.973  13.095 -0.2357  0.1568 -0.2811
13305W        W28922  11.944   6.280   2.586 -0.2483 -0.1826 -0.1312
13306W        W28923  16.408   3.327   1.794 -0.0105  0.3086  0.2159
13307W        W28924  17.276  12.549   5.411  0.0741 -0.1997  0.3639
13308W        W28925   8.988  14.312   0.214 -0.0488 -0.2377  0.1826
13309W        W28926  16.058   3.759   4.285  0.2215 -0.0619 -0.0735
13310W        W28927  10.453  16.193   2.451  0.0402 -0.0282  0.0745
13311W        W28928   5.762   5.674   5.244 -0.1331 -0.2605  0.0440
13312W        W28929   2.789  15.800   4.495 -0.0279 -0.1273 -0.0590
13313W        W28930   6.300  11.776   2.697  0.0850  0.0910 -0.1680
13314W        W28931  15.347   5.626  14.595  0.0289 -0.0929  0.0399
13315W        W28932   1.336   3.180   1.521  0.0836 -0.1478 -0.2296
13316W        W28933   9.476   4.202   2.100  0.1259 -0.2244  0.1653
13317W        W28934   3.673   8.357   1.237 -0.2078 -0.2660  0.3091
13318W        W28935  11.167   4.179   6.189  0.0636  0.2862  0.0948
13319W        W28936  11.374   4.770   4.914 -0.5046  0.3792  0.0625
13320W        W28937   7.845  11.518   4.164  0.1717  0.0441  0.0376
13321W        W28938  14.566  12.907   2.382  0.2529  0.1155  0.2565
13322W        W28939  11.375  13.842  12.225  0.2275 -0.0849 -0.0386
13323W        W28940   3.329   8.798   1.595  0.0759  0.1417  0.0147
13324W        W28941  17.431  11.801   2.665 -0.0064 -0.2114  0.2573
13325W        W28942   3.896   5.898   3.251  0.1829 -0.6555  0.1608
13326W        W28943   0.391  13.346  14.008 -0.2310  0.0884  0.0031
13327W        W28944   6.666  17.205   2.125 -0.2222  0.2130 -0.1229
13328W        W28945   6.332   9.856   2.370  0.0024 -0.0307 -0.1529
13329W        W28946   3.842   6.926   0.052 -0.0183 -0.1643  0.4286
13330W        W28947   3.871   1.798  14.756 -0.0235  0.2834  0.2940
13331W        W28948  11.857  13.140  12.797  0.0210  0.0893  0.0746
13332W        W28949   2.818   1.160   3.256 -0.0052 -0.2030 -0.1260
13333W        W28950   9.025  14.191  16.348  0.0780 -0.1499  0.1895
13334W        W28951  10.845   0.665   1.128  0.1270 -0.0593 -0.0492
13335W        W28952   4.423  11.364  16.382  0.2005 -0.0234  0.1336
13336W        W28953   6.754  12.453  15.225 -0.0480 -0.1892  0.1243
13337W        W28954   4.211   2.085   2.136  0.0785  0.0590  0.1721
13338W        W28955  15.814  11.648  15.692 -0.0772  0.0779  0.1848
13339W        W28956  12.441   2.918  13.009  0.2495  0.0281 -0.1325
13340W        W28957   6.615   0.161   2.069  0.0145  0.1638 -0.1351
13341W        W28958   1.547  17.111  13.909  0.1843  0.1958 -0.3074
13342W        W28959  17.364   5.807  13.123 -0.0304 -0.1117  0.1402
13343W        W28960   4.079  14.182   0.157  0.0118 -0.1004 -0.1514
13344W        W28961   2.675  14.811   4.585  0.2485 -0.0282  0.0132
13345W        W28962   3.563   4.596   0.932 -0.3605  0.2785  0.3256
13346W        W28963   9.239   9.829   0.751 -0.2737 -0.1947  0.2792
13347W        W28964   6.304  12.309  11.662  0.0515 -0.1180 -0.1664
13348W        W28965   9.669   9.541  14.283  0.3928  0.1952 -0.2003
13349W        W28966  16.928  11.147   1.849 -0.0616  0.1404 -0.0316
13350W        W28967  11.387  15.257   4.537 -0.2945 -0.0574 -0.2283
13351W        W28968  17.284   1.746  14.773 -0.1899  0.0704 -0.1215
13352W        W28969  10.490  14.769  12.068  0.1204  0.4517 -0.1551
13353W        W28970   5.208  14.068   1.422  0.0260 -0.0809  0.0036
13354W        W28971   5.701  14.035   1.161 -0.3336  0.0331  0.0398
13355W        W28972  14.929  16.801   3.952  0.1472  0.1004 -0.0796
13356W        W28973  12.508  11.581   3.969  0.1603  0.0698 -0.0500
13357W        W28974   2.217   1.705  11.553  0.2633 -0.2597  0.2430
13358W        W28975   7.309  11.286   1.379  0.1056 -0.0804  0.2384
13359W        W28976  15.829  11.313  12.619  0.2090 -0.3698 -0.1593
13360W        W28977  12.585   7.250   3.754 -0.2839 -0.0551  0.0578
13361W        W28978  14.318  12.001   3.236  0.0757 -0.2585 -0.0651
13362W        W28979  12.808   7.848  14.339  0.0091 -0.0953  0.0789
13363W        W28980  11.963   4.478  13.555  0.4136 -0.3780 -0.1551
13364W        W28981   1.056  16.658   4.772 -0.0241 -0.0695  0.1406
13365W        W28982  10.192   3.131   5.612 -0.1220 -0.1766 -0.0445
13366W        W28983  11.908  10.132   4.654 -0.2493  0.1682 -0.0760
13367W        W28984  14.747  17.286  13.304  0.0084 -0.3583 -0.0933
13368W        W28985  13.035  14.203   1.435 -0.2560 -0.0609 -0.0780
13369W        W28986  11.220  10.972  15.217 -0.0370 -0.0072 -0.0053
13370W        W28987  16.438   7.022   5.513  0.1364  0.0847 -0.3218
13371W        W28988   5.447  10.910  11.357 -0.3156  0.0590  0.0424
13372W        W28989   3.730   1.250   1.253  0.2475 -0.0608 -0.0734
13373W        W28990   3.436   5.600  13.786  0.0939 -0.0160  0.0689
13374W        W28991  16.772   0.017  13.137 -0.2558  0.1784  0.0942
13375W        W28992   8.161  15.933  12.946  0.2397 -0.0736  0.1371
13376W        W28993   6.609   5.189   0.810 -0.1136 -0.3882  0.2132
13377W        W28994  15.315   7.065  11.660  0.1867  0.0895  0.1605
13378W        W28995   2.690   5.541  13.055 -0.1075  0.0562 -0.1927
13379W        W28996   3.834  12.316  13.726  0.1243  0.1680 -0.0226
13380W        W28997   6.290   9.212   2.237 -0.0252 -0.2834  0.0639
13381W        W28998  14.931  16.274  15.488  0.1042  0.3018  0.2882
13382W        W28999   9.876   0.871   1.835  0.2716 -0.1815 -0.1940
13383W        W29000  14.892   9.762   3.146 -0.0191  0.3043  0.1822
13384W        W29001  11.606   7.275  15.354 -0.1163 -0.0991  0.1455
13385W        W29002  12.977  11.373   0.974  0.0711  0.3562  0.1392
13386W        W29003   0.674  13.442   3.349  0.2096 -0.1097 -0.1775
13387W        W29004   7.451  10.000   0.794 -0.1908 -0.0940  0.2500
13388W        W29005   8.557  10.460   5.259 -0.0317 -0.0347  0.0898
13389W        W29006   4.054  12.014   0.674 -0.1305  0.0158  0.1995
13390W        W29007  10.765   1.595   4.399 -0.1945  0.1972 -0.1570
13391W        W29008   7.654   3.466   5.854  0.4698  0.2346 -0.1135
13392W        W29009   8.112   5.709  16.012 -0.2931 -0.1656 -0.1813
13393W        W29010  14.620  12.789  11.469 -0.2988 -0.3047  0.0917
13394W        W29011  10.184   2.033   0.585  0.1247  0.4048 -0.2329
13395W        W29012  11.086   7.378  15.239  0.2144 -0.1037  0.1113
13396W        W29013  15.213  16.944   0.423 -0.1729 -0.0446  0.0472
13397W        W29014  11.773  12.186  14.156  0.0867 -0.0084 -0.4055
13398W        W29015   4.992   8.070  12.557  0.0883 -0.1663 -0.1164
13399W        W29016   9.244   9.314  14.108  0.1682 -0.1634  0.2141
13400W        W29017   3.320  16.952  11.173  0.3102  0.0084  0.0991
13401W        W29018   6.730   0.422   1.512 -0.0118 -0.3160 -0.1982
13402W        W29019  12.380  12.694  13.784 -0.2177  0.0728 -0.0224
13403W        W29020  10.968   1.177  12.373  0.0115  0.0130  0.1942
13404W        W29021   9.409   6.452   3.734  0.1403 -0.3836 -0.0558
13405W        W29022   9.795  13.356   1.338  0.0231 -0.1358 -0.0266
13406W        W29023   1.658   3.745  15.622 -0.1886  0.1251  0.3028
13407W        W29024   7.177  10.318   1.117  0.0557  0.1527  0.2242
13408W        W29025  15.892  10.108   0.678 -0.1114  0.2397 -0.1103
13409W        W29026   9.203   0.651  16.740 -0.1118 -0.1476  0.1014
13410W        W29027   4.979   4.423   5.606 -0.2897 -0.0811  0.1046
13411W        W29028   8.663  12.195   2.647  0.0226 -0.0273 -0.2065
13412W        W29029  11.585  15.197  13.796 -0.1488  0.0765  0.0505
13413W        W29030   4.879   5.832   1.233 -0.0423  0.0787 -0.0003
13414W        W29031  10.517  13.236  13.628 -0.0270  0.0125  0.1040
13415W        W29032   3.926   1.694   2.340  0.0246 -0.1142 -0.1402
13416W        W29033   5.051   5.484  12.256  0.2832 -0.1077  0.1228
13417W        W29034   4.326  14.500  13.420 -0.0640  0.0540  0.0993
13418W        W29035   2.222  16.957   4.102 -0.0710  0.0674  0.3406
13419W        W29036   0.856   4.862  16.067  0.1589 -0.0802  0.0008
13420W        W29037   7.234   9.672  15.207  0.1124 -0.1916  0.2339
13421W        W29038  13.133   9.892  16.384  0.2074 -0.2393 -0.1308
13422W        W29039   6.984   6.568   0.996  0.0113 -0.0054  0.0352
13423W        W29040   3.170  17.080   4.148 -0.0894  0.2406  0.1011
13424W        W29041   6.178   5.225   0.610 -0.0049  0.1247 -0.0367
13425W        W29042   9.106   9.310   3.487  0.2500 -0.0836 -0.4870
13426W        W29043  13.426   9.076  15.806  0.2469 -0.1622 -0.0272
13427W        W29044  12.157  15.681  11.354 -0.1119 -0.2139  0.0042
13428W        W29045   6.040   0.682  13.887  0.1818 -0.3127 -0.0695
13429W        W29046   9.036   5.371   4.315  0.0286  0.0284  0.1519
13430W        W29047  10.860  12.510   3.171 -0.1639  0.1704  0.0892
13431W        W29048   7.186   7.495  13.350  0.0935  0.2330 -0.2193
13432W        W29049  10.216   1.015   5.720  0.0061 -0.1221 -0.2965
13433W        W29050   0.960   0.714  12.373 -0.0349  0.0084  0.2496
13434W        W29051   7.843  16.306  11.758  0.0509 -0.0711  0.0758
13435W        W29052  13.327   3.735   0.638  0.0684 -0.1284  0.0320
13436W        W29053  12.094  10.707   5.613 -0.1402 -0.2230  0.6139
13437W        W29054  10.320   5.735  14.050  0.0409 -0.0560 -0.0782
13438W        W29055  13.224   0.044  13.816  0.0362 -0.0183  0.0008
13439W        W29056   4.919  17.217   1.884 -0.1275  0.0962 -0.1245
13440W        W29057   9.798  13.691   1.840 -0.3141 -0.2341 -0.1582
13441W        W29058   2.930  15.675   3.984  0.0719 -0.0466  0.0193
13442W        W29059  14.493   5.950   2.345 -0.0624 -0.3560  0.1714
13443W        W29060   6.740  14.934  14.234  0.0579  0.0181  0.0872
13444W        W29061   5.584  10.516  13.605 -0.0247  0.1243  0.1628
13445W        W29062  10.440   3.912   0.179  0.1986  0.2200 -0.0077
13446W        W29063  17.373   4.102   3.696 -0.1010 -0.0160 -0.0641
13447W        W29064   1.871   8.572  11.836 -0.0127 -0.0842  0.1054
13448W        W29065   8.196   7.513  14.756 -0.2519 -0.1454 -0.1357
13449W        W29066   4.111  13.553   1.540  0.2799  0.0296 -0.1789
13450W        W29067   5.585   3.656  16.025 -0.1016  0.2801  0.1553
13451W        W29068  10.427  11.417   4.466 -0.2197 -0.0439 -0.1976
13452W        W29069   7.833   2.520  14.108  0.0022  0.0529 -0.0317
13453W        W29070   3.860   8.886  12.699  0.2426 -0.0286 -0.2140
13454W        W29071   3.748  11.524  12.010  0.0048 -0.3777  0.3412
13455W        W29072  11.989   7.789  13.308 -0.1292  0.1115  0.0915
13456W        W29073   5.248   0.781  13.280  0.0219  0.1628 -0.1160
13457W        W29074   2.668  15.823   3.550 -0.0584 -0.0534 -0.0866
13458W        W29075   2.308   7.271   2.200 -0.0840  0.0262  0.0933
13459W        W29076   9.963  10.908  13.411  0.0419  0.2298 -0.3903
13460W        W29077  12.569   1.989  14.748 -0.0740 -0.1475  0.3183
13461W        W29078  12.195   2.388   3.073 -0.0584 -0.1370  0.0077
13462W        W29079   2.784   6.964  14.149 -0.2288  0.0311  0.0720
13463W        W29080  11.210  13.953   4.310 -0.2170 -0.1384  0.0119
13464W        W29081  12.401   8.049   3.946  0.1691  0.2174  0.1603
13465W        W29082   6.951  14.191   4.166  0.0715 -0.2024  0.1270
13466W        W29083  11.523  16.051   3.237 -0.0839 -0.0577 -0.1728
13467W        W29084   9.894   3.672   5.065 -0.0341 -0.0660  0.2096
13468W        W29085  12.166   4.336   0.468  0.3965 -0.0979  0.0751
13469W        W29086  12.969  10.900  11.958  0.0151  0.1849  0.0769
13470W        W29087  11.345   0.554  11.262  0.0460 -0.4180 -0.3236
13471W        W29088   8.642  14.887  14.712  0.2233 -0.0041 -0.0659
13472W        W29089  16.548  15.702  15.255 -0.0238  0.0904  0.1234
13473W        W29090  13.224  10.811   2.465 -0.1474 -0.0029  0.4346
13474W        W29091   4.166   2.929   4.167  0.0303  0.0788 -0.1571
13475W        W29092   1.612   3.286  14.795  0.1951  0.0679  0.2659
13476W        W29093  12.967   0.461   3.836 -0.0174  0.0582 -0.1096
13477W        W29094  10.602  17.542   0.940 -0.0694 -0.1781  0.0487
13478W        W29095   6.818   9.014  12.907  0.2075  0.0553  0.2986
13479W        W29096   4.512   5.973   0.111 -0.1686  0.1374  0.1515
13480W        W29097  12.835  12.192   5.125  0.2280 -0.2130 -0.0186
13481W        W29098  16.277  14.011   2.584  0.1516  0.0059 -0.1324
13482W        W29099   6.180  11.096  16.211  0.0718  0.4440  0.0310
13483W        W29100  12.646   2.015  12.003 -0.1097  0.0535  0.2650
13484W        W29101   8.062  13.298   4.699  0.1490  0.3838  0.0829
13485W        W29102   3.625  11.731  12.957 -0.1657  0.1835  0.2466
13486W        W29103   5.428   1.951  13.808 -0.0083 -0.0869  0.0118
13487W        W29104   9.465   6.171  15.273  0.0192  0.0277  0.2515
13488W        W29105   9.851   0.659  14.151  0.0487  0.0213 -0.0072
13489W        W29106  14.766  11.519   0.307 -0.0261 -0.3118 -0.0543
13490W        W29107   3.522  12.844  14.960 -0.2842 -0.1251  0.2805
13491W        W29108  17.562   5.221  11.918  0.2360  0.1013 -0.2564
13492W        W29109   5.250  13.539  13.857  0.1895  0.1233  0.1044
13493W        W29110  13.052   3.186  15.304  0.0149  0.1849  0.3673
13494W        W29111  17.687  16.354   5.087  0.2415 -0.5147  0.0784
13495W        W29112   1.939   9.516  14.274 -0.2066 -0.0636 -0.0039
13496W        W29113  17.032   9.926   3.912  0.0580 -0.0623 -0.1419
13497W        W29114  14.251  17.309   0.702 -0.0770 -0.1559  0.0785
13498W        W29115  13.135   0.642   4.587 -0.1751  0.0352 -0.2143
13499W        W29116   8.323   4.015  14.827 -0.0255 -0.1041 -0.2416
13500W        W29117  15.967  10.609   5.157  0.2049 -0.0386  0.0995
13501W        W29118  17.594  15.838  16.702 -0.0667  0.2435 -0.1188
13502W        W29119   4.519   0.129   2.129  0.0938 -0.0818 -0.1317
13503W        W29120   5.855   7.705  13.953 -0.0559 -0.0516 -0.0376
13504W        W29121   1.102  10.686  14.688 -0.1349 -0.1237  0.1271
13505W        W29122  13.451   0.290  11.982 -0.2396  0.0359 -0.4801
13506W        W29123  17.439   9.032   5.472  0.1844  0.0161  0.0604
13507W        W29124  12.476   0.832   5.342  0.1217 -0.2830 -0.2811
13508W        W29125   6.211  16.936   3.508 -0.3125  0.0183 -0.0724
13509W        W29126   4.425   5.775   3.616  0.1446 -0.0173  0.1304
13510W        W29127   0.403  12.746   0.733 -0.1027  0.1213  0.3596
13511W        W29128  15.217   3.371   1.308 -0.1310 -0.1076  0.1986
13512W        W29129  16.238  13.691   3.991  0.2887 -0.2180 -0.1921
13513W        W29130   8.653   5.183   3.942 -0.0752  0.2939  0.2244
13514W        W29131   5.705   7.290  16.581 -0.2906  0.0183  0.1424
13515W        W29132   8.584   9.029   2.094 -0.0602 -0.1817  0.0185
13516W        W29133   2.715   6.237  13.857  0.1187 -0.2896  0.2623
13517W        W29134  17.863  16.107   0.653  0.0885 -0.2363  0.1332
13518W        W29135   2.565  11.025   3.725  0.2138 -0.1364  0.0003
13519W        W29136  13.700   7.384   1.972  0.3497  0.0598  0.0678
13520W        W29137  13.320   8.153   4.356 -0.0529 -0.0813 -0.0294
13521W        W29138  15.193  15.544  12.458  0.1847 -0.0370 -0.2850
13522W        W29139  15.276   5.112   3.361 -0.1745 -0.0092  0.2005
13523W        W29140   2.209  15.907  13.328 -0.0741 -0.1804 -0.1769
13524W        W29141  13.080   2.063   5.138  0.1686 -0.2220 -0.0793
13525W        W29142  11.774   9.672   2.824  0.1377 -0.1664 -0.1138
13526W        W29143   5.771   8.265   4.432 -0.0636  0.1179  0.1716
13527W        W29144   9.439  10.812  13.684 -0.1248 -0.0437  0.0387
13528W        W29145   5.277   3.736  15.631 -0.1543  0.1293  0.1085
13529W        W29146   0.822   6.577   3.310  0.2663 -0.1705  0.1744
13530W        W29147  10.671  11.526  15.560  0.1627 -0.3040  0.1690
13531W        W29148   7.034  14.468   2.765 -0.1084  0.1549 -0.0727
13532W        W29149  17.438  10.917   0.245 -0.0087  0.3728  0.1341
13533W        W29150  12.397   2.148  11.590 -0.0538 -0.0046 -0.0753
13534W        W29151   3.339   3.589  16.484  0.0610  0.0493 -0.3469
13535W        W29152   4.087  12.277   2.064  0.1249 -0.0225  0.4657
13536W        W29153  16.639   9.489   1.772  0.0186  0.1230  0.1750
13537W        W29154   0.721  16.756  13.930 -0.1977  0.3084  0.0586
13538W        W29155  11.375   8.921  13.573 -0.1996  0.0033  0.3733
13539W        W29156   0.023   0.428  12.277  0.2076 -0.1105  0.1671
13540W        W29157  15.688  17.689   0.349 -0.1715 -0.0258 -0.0709
13541W        W29158   0.136  14.522  10.400  0.2606 -0.2646 -0.2385
13542W        W29159   6.807  12.926   3.465 -0.2805 -0.0838  0.1262
13543W        W29160   9.816  15.789  14.485 -0.0594  0.2137 -0.0084
13544W        W29161  11.625   4.644   4.062  0.0167 -0.1906 -0.0992
13545W        W29162  10.678   0.781   4.147  0.4012  0.2949  0.2450
13546W        W29163   4.441  12.627  14.748 -0.3553 -0.3771  0.0594
13547W        W29164  15.683  17.152  12.164  0.1113 -0.1437  0.0167
13548W        W29165  13.901   9.287  15.250 -0.2919 -0.5106  0.0496
13549W        W29166   8.362  15.198  14.393  0.4745 -0.1555 -0.1304
13550W        W29167  16.683   2.761  14.078 -0.1442  0.3334 -0.1826
13551W        W29168   8.051  11.397  11.737 -0.1468  0.1265  0.2192
13552W        W29169  10.937  10.588   2.818 -0.3257 -0.1140  0.0919
13553W        W29170  13.645   0.135  14.629  0.0365 -0.0648 -0.0289
13554W        W29171  14.626   1.667   2.123  0.0202  0.1963  0.1869
13555W        W29172  14.837   1.541   4.874  0.0627  0.1704 -0.0259
13556W        W29173  16.918   5.400   0.998 -0.3406 -0.0844 -0.1473
13557W        W29174   8.985  11.007   2.099  0.2402  0.0972 -0.2329
13558W        W29175  10.718   4.328   0.266 -0.3320  0.0704 -0.0044
13559W        W29176   4.264  11.345  13.937  0.2018 -0.2821  0.0140
13560W        W29177   2.380   5.898   0.537  0.0188 -0.0140 -0.0779
13561W        W29178   8.584  15.697  13.898 -0.2272  0.0452  0.4450
13562W        W29179  10.081  11.188   3.863 -0.0999 -0.4244 -0.0980
13563W        W29180  16.209   8.784  11.995  0.0061 -0.1255  0.1679
13564W        W29181   4.281   1.013  14.988 -0.1970  0.3231  0.4399
13565W        W29182   9.908  10.943   1.376 -0.3897  0.0230 -0.1951
13566W        W29183  16.956   9.240  16.098  0.2393  0.3442  0.0236
13567W        W29184  13.123  13.552   0.260 -0.1194 -0.0120  0.0533
13568W        W29185  17.073   6.068   2.360  0.0804 -0.0604 -0.2429
13569W        W29186  15.389   0.385  11.474  0.0964 -0.1983 -0.0498
13570W        W29187   3.085  17.679   5.738 -0.0722 -0.0470  0.0156
13571W        W29188   8.436  14.562  12.959  0.4020 -0.1914  0.1730
13572W        W29189  16.449   4.938  15.515  0.0032 -0.1718  0.0568
13573W        W29190   5.289   7.534  14.371  0.0926 -0.0347 -0.2932
13574W        W29191   0.648   7.832   0.159  0.0826 -0.5302  0.0622
13575W        W29192   9.563  11.415   3.476 -0.0286 -0.1959 -0.1528
13576W        W29193  15.610   8.142  14.042  0.0911  0.2065 -0.1532
13577W        W29194  13.673   2.832  14.467 -0.0351  0.0336  0.1765
13578W        W29195   9.103   2.851   5.797  0.0379 -0.1673 -0.0068
13579W        W29196   5.476   9.573   0.936 -0.2893  0.0822 -0.2444
13580W        W29197  17.212  12.833  15.696  0.2062  0.0523 -0.2292
13581W        W29198  14.237  12.826  14.117 -0.0358 -0.2540  0.0501
13582W        W29199   2.480   8.847  11.486  0.1405  0.1693 -0.1900
13583W        W29200   6.690   6.497  14.009  0.0824 -0.0527 -0.2171
13584W        W29201  17.465   2.003  11.852 -0.1214 -0.0966  0.1199
13585W        W29202  16.683  12.450   1.803 -0.1109 -0.1367 -0.1240
13586W        W29203  14.181   5.022   3.649 -0.1303 -0.1959  0.4693
13587W        W29204  10.574  10.983  13.221 -0.1893 -0.1117  0.0013
13588W        W29205  15.883   7.915   0.378  0.0137 -0.0347 -0.2053
13589W        W29206  13.392   0.912   5.657 -0.1606  0.0965  0.3885
13590W        W29207  17.269  11.995   4.723 -0.0316  0.2747 -0.0703
13591W        W29208  10.147   4.816  15.912 -0.1867 -0.1415  0.2582
13592W        W29209   2.376   0.052   0.478  0.1040  0.7049 -0.2447
13593W        W29210   2.147   1.327  14.035  0.1581  0.3657  0.0360
13594W        W29211  11.008   3.614   1.759 -0.2967  0.0214  0.2547
13595W        W29212   6.280   7.732  12.675 -0.2462  0.2325  0.2121
13596W        W29213  16.433  11.858  13.917  0.4046 -0.2079 -0.0908
13597W        W29214   6.525  15.448  14.202 -0.0421 -0.0743  0.3578
13598W        W29215   1.566   1.828   2.694  0.1250 -0.0854 -0.1823
13599W        W29216   6.670   8.987  16.089 -0.1349 -0.1586 -0.3620
13600W        W29217   5.713  12.565   0.943  0.0186  0.0410 -0.1737
13601W        W29218   5.008   1.604  16.273 -0.3270 -0.4298  0.4348
13602W        W29219  15.408  16.253   4.212 -0.1123 -0.1328 -0.1813
13603W        W29220   8.189  13.230  16.112 -0.2939 -0.2185  0.0836
13604W        W29221   1.182   0.568   2.957  0.2559  0.1528  0.3197
13605W        W29222   5.558   1.141   3.828 -0.1250 -0.1311  0.3335
13606W        W29223   1.163  13.641  13.427  0.1388  0.0877 -0.0780
13607W        W29224  10.752  11.053   0.644  0.3716  0.1227  0.2965
13608W        W29225  13.744   2.445   2.861 -0.1627  0.0653 -0.0337
13609W        W29226  12.595  11.178  15.006  0.1565  0.1311  0.2234
13610W        W29227  17.095   2.634   5.283 -0.1561 -0.0325 -0.0345
13611W        W29228  12.166  13.179   2.849  0.1354  0.0730  0.1556
13612W        W29229   8.860   6.324   2.123 -0.0219 -0.1325 -0.1595
13613W        W29230   9.916  14.325  14.695 -0.1253 -0.2570  0.0243
13614W        W29231   5.431   8.326  15.279 -0.1749  0.1376 -0.0341
13615W        W29232  17.343  16.696  12.525 -0.1524  0.0084 -0.1028
13616W        W29233  14.571   2.118  15.803  0.0566 -0.1069  0.4324
13617W        W29234   7.741   3.558  13.794 -0.1057 -0.4169  0.1253
13618W        W29235   3.055   1.251  11.874 -0.0439 -0.1270  0.1232
13619W        W29236  15.226   5.107   0.668  0.2110 -0.3598  0.4464
13620W        W29237   8.296  17.483  15.695 -0.0280  0.1374  0.1392
13621W        W29238  16.269   7.192  13.344  0.1461 -0.0955 -0.2404
13622W        W29239  11.291   7.977  12.391 -0.2143 -0.1139 -0.2682
13623W        W29240  12.461  17.140  13.665  0.2041  0.0883 -0.1655
13624W        W29241   2.906  10.316   3.405 -0.1231 -0.1838 -0.2596
13625W        W29242   1.648  16.930  16.038 -0.3107  0.2197 -0.0335
13626W        W29243   3.775  17.064  13.776 -0.3212  0.0581 -0.0631
13627W        W29244  12.384   9.634  12.625  0.0151  0.0149 -0.0380
13628W        W29245   0.672   5.688   3.976 -0.0677  0.0170  0.0313
13629W        W29246   1.699   3.834   3.349 -0.0988  0.1332 -0.0264
13630W        W29247   6.001   4.406  15.971  0.0725  0.2772 -0.1597
13631W        W29248  13.917   4.318  14.173 -0.1051 -0.3035 -0.0833
13632W        W29249   5.021   6.403   2.544 -0.1070  0.5485  0.2220
13633W        W29250  11.090   6.072   0.956 -0.1200 -0.2543  0.0462
13634W        W29251   0.084  11.797  15.356 -0.1216 -0.0811  0.2859
13635W        W29252   0.190  10.772  12.429  0.0171  0.4878  0.0962
13636W        W29253   6.900   6.649  15.150 -0.1061  0.0553  0.2372
13637W        W29254   0.294  10.135  16.101  0.0027  0.0498  0.0038
13638W        W29255   2.797  14.729   2.048  0.2085  0.0804 -0.1016
13639W        W29256  13.041   9.363   2.853 -0.5335 -0.2660 -0.1038
13640W        W29257  14.049   2.462   4.287  0.3908 -0.0149  0.1652
13641W        W29258   7.664   7.425   2.122  0.1106 -0.0875  0.2274
13642W        W29259  11.099   1.605  15.941 -0.0548  0.2911 -0.1779
13643W        W29260   7.805  11.962   0.887  0.2846  0.1312  0.5688
13644W        W29261   4.307   6.390   3.694 -0.0119  0.0033  0.0387
13645W        W29262  14.240  17.176   0.152  0.1195  0.1122  0.1961
13646W        W29263   3.684   0.861  14.174 -0.5305  0.1222  0.2779
13647W        W29264   7.801   1.996  14.136  0.0792  0.1149 -0.0406
13648W        W29265   9.121  13.431  14.216 -0.2151 -0.2103  0.1300
13649W        W29266   6.824   0.503   2.860 -0.1234  0.2899 -0.1011
13650W        W29267  14.076  13.807  12.736  0.1192 -0.0868  0.0271
13651W        W29268  17.113  14.744  16.345 -0.0730  0.1362 -0.1261
13652W        W29269   6.361  16.412  13.270  0.2236  0.0486 -0.0960
13653W        W29270  13.429   9.703  14.434 -0.0162 -0.0019  0.2285
13654W        W29271   0.796   2.483  13.028  0.1847  0.2268  0.0041
13655W        W29272  13.484  11.772   5.383 -0.3023 -0.3124 -0.0770
13656W        W29273  16.504   6.927  15.173  0.0461  0.0020 -0.3367
13657W        W29274   5.899  16.752  10.609 -0.0447 -0.2455 -0.1987
13658W        W29275  12.592  14.529   4.935 -0.0729 -0.2942 -0.1363
13659W        W29276  11.693   3.588  12.953  0.3673 -0.1131  0.2962
13660W        W29277   1.641  16.044   4.367  0.2244  0.0509 -0.1240
13661W        W29278   3.708   7.208   1.886 -0.1104  0.3622  0.3383
13662W        W29279  10.394   3.784   4.794 -0.1336  0.1106 -0.0366
13663W        W29280   4.907  15.456   5.120 -0.1256 -0.1442  0.0789
13664W        W29281   0.218   4.532   1.857 -0.2033  0.2048 -0.0197
13665W        W29282  13.213  11.353  14.121  0.1493 -0.1221 -0.1660
13666W        W29283  13.187  13.513  13.863 -0.1526  0.0433  0.0694
13667W        W29284  12.854   4.476   3.940  0.0548 -0.0852  0.1029
13668W        W29285   2.711   3.439  15.613 -0.1242  0.0432 -0.2553
13669W        W29286  16.214   5.097   0.147 -0.2335 -0.0519 -0.0885
13670W        W29287   3.024  11.920  15.722 -0.3442  0.0655 -0.0943
13671W        W29288  15.064   7.258   2.862  0.0884 -0.0071  0.1260
13672W        W29289   8.407   0.288   3.353  0.4328  0.3743  0.4928
13673W        W29290   1.552   0.648   4.181 -0.0531  0.0671  0.4027
13674W        W29291  11.155  14.066   1.697  0.1464  0.0491 -0.2713
13675W        W29292   8.919  11.366   2.483 -0.2043 -0.1146  0.1992
13676W        W29293   3.901  15.989  13.160 -0.2022  0.0024 -0.0344
13677W        W29294   8.173  17.628  16.610  0.3010 -0.1929  0.0065
13678W        W29295   3.951  11.132  12.288 -0.0473 -0.2772  0.1950
13679W        W29296  12.162  10.600   3.893  0.2249  0.2418 -0.0784
13680W        W29297   7.584   7.406  13.934 -0.2308  0.0142  0.2234
13681W        W29298   2.827  15.422  13.154  0.1006  0.2608 -0.1285
13682W        W29299  14.212  16.590  15.919 -0.0895 -0.0046 -0.1383
13683W        W29300   2.595   7.945   5.191  0.0261 -0.1985  0.2397
13684W        W29301  16.138   4.288   3.075 -0.0607 -0.0122 -0.2632
13685W        W29302   2.464   9.117   4.761 -0.1054  0.1743 -0.3250
13686W        W29303   8.903   3.856   2.855 -0.1057  0.1778 -0.0341
13687W        W29304  15.416  15.464   2.384 -0.2058  0.2611 -0.1264
13688W        W29305   5.521   9.278   0.542  0.0184 -0.0469 -0.2444
13689W        W29306  13.272   5.666   3.867 -0.0477 -0.0092  0.3840
13690W        W29307   1.596   4.645   4.420  0.0691  0.3419  0.0834
13691W        W29308  10.506   6.256   2.977 -0.0790  0.2417  0.2249
13692W        W29309   6.630  12.696  11.620  0.2294  0.0758  0.1430
13693W        W29310   1.800  15.958  10.804  0.1717 -0.0934 -0.1340
13694W        W29311  14.699  12.033   1.941 -0.2688 -0.0086 -0.0794
13695W        W29312  13.179  17.312  11.608  0.0585 -0.2895  0.0453
13696W        W29313  15.964  15.071   4.049  0.3899 -0.1283  0.1320
13697W        W29314  11.674   4.341   1.212  0.1235  0.0660 -0.0433
13698W        W29315   0.805  10.787   2.945  0.0862  0.0518 -0.0028
13699W        W29316   5.187   0.511   5.945 -0.2653  0.3190  0.1202
13700W        W29317   0.425  17.559  16.197  0.2623  0.1001 -0.0910
13701W        W29318  11.453   8.422  15.615 -0.2145  0.2972 -0.1713
13702W        W29319  10.154   9.222  15.937  0.3362 -0.1318  0.1510
13703W        W29320  12.010   4.951   3.576 -0.1032  0.0550 -0.2043
13704W        W29321  17.072   4.824  15.595  0.0811  0.1175 -0.1620
13705W        W29322   6.886  17.834  13.522 -0.0224 -0.1844  0.0380
13706W        W29323  14.968  17.210  11.277 -0.3603 -0.1375  0.3832
13707W        W29324   9.327  10.863  16.762  0.0068 -0.1742  0.0471
13708W        W29325  10.549   6.843  14.954  0.0352  0.0660  0.0403
13709W        W29326   0.619   1.813   2.928  0.1665 -0.0527  0.0215
13710W        W29327   9.394   4.970   1.293  0.0414 -0.1783 -0.0948
13711W        W29328  13.351   2.384   5.763 -0.1057  0.0586 -0.2732
13712W        W29329  15.922  11.827   0.058 -0.0223  0.0197 -0.0982
13713W        W29330   9.060  14.884  10.838  0.1448  0.2212 -0.1478
13714W        W29331   9.026  11.911  15.911  0.0768  0.1939 -0.0152
13715W        W29332   8.551  10.509   5.845 -0.4493 -0.1582 -0.1298
13716W        W29333  14.366  12.991   5.573  0.0588 -0.0533  0.2055
13717W        W29334   8.718   5.617  16.503 -0.0015 -0.2148 -0.2086
13718W        W29335   3.552  13.522  15.641  0.2285 -0.0666 -0.1983
13719W        W29336  11.299  14.385   6.567  0.0824 -0.0009  0.1316
13720W        W29337   2.374  11.522  12.500 -0.0239  0.0937 -0.1397
13721W        W29338   7.481   7.751  15.109  0.0253  0.1624  0.1477
13722W        W29339   4.197  16.016  11.398 -0.0349 -0.1670 -0.1342
13723W        W29340   6.253   8.929  13.915 -0.2013 -0.0295 -0.0570
13724W        W29341  14.648   7.955   0.680  0.0321  0.2217 -0.0072
13725W        W29342   7.192   2.173  14.067  0.0709  0.1143  0.0401
13726W        W29343   3.188   0.896   3.704 -0.0706 -0.1320  0.1249
13727W        W29344   6.131   8.271   4.812 -0.0335  0.2747  0.1211
13728W        W29345   0.001  11.527  14.936 -0.3752 -0.0020 -0.2471
13729W        W29346   7.587   6.295   3.218  0.1382 -0.2365 -0.1247
13730W        W29347   2.775  11.451  12.871  0.1048  0.4035  0.1943
13731W        W29348  11.081  12.402   5.073  0.0098 -0.0044  0.2252
13732W        W29349   8.481  16.386  13.029  0.3744 -0.1599 -0.0999
13733W        W29350   1.508   9.825  15.491  0.1109 -0.2860 -0.2187
13734W        W29351  16.967   5.621   4.009  0.2085  0.1321 -0.1663
13735W        W29352   8.829  10.866  11.737 -0.0189 -0.1161  0.2479
13736W        W29353   5.613   7.756  12.009 -0.3615  0.0983 -0.0312
13737W        W29354   9.605   8.129   4.415  0.1237 -0.0678  0.0491
13738W        W29355  16.494  15.445  16.137 -0.0846  0.1241  0.0550
13739W        W29356   1.477   5.544   4.093 -0.1147  0.1060  0.1322
13740W        W29357  12.181   7.520   4.069 -0.1921 -0.0240  0.0835
13741W        W29358   4.276   1.464  11.281 -0.0846  0.0629  0.2060
13742W        W29359  11.671  13.061  14.633  0.1463 -0.1204  0.0367
13743W        W29360  13.420  15.667   0.130  0.2545 -0.1856  0.0811
13744W        W29361   9.515   7.822   1.893  0.0605  0.3214  0.1677
13745W        W29362  17.033   5.738   1.994  0.1525  0.1268 -0.0085
13746W        W29363  14.734   3.277   0.005  0.0379 -0.2174  0.0653
13747W        W29364   0.233  13.404   2.652  0.2553  0.0999 -0.2518
13748W        W29365  10.937   3.881   0.411 -0.0947 -0.0639  0.1464
13749W        W29366  11.204  12.451  14.204 -0.3359 -0.0580 -0.1364
13750W        W29367  10.508   6.145  15.891 -0.1550  0.5806  0.0663
13751W        W29368  10.457  14.320  12.342 -0.1029 -0.2189 -0.0669
13752W        W29369  11.963  15.424   4.545 -0.0734 -0.2993  0.2002
13753W        W29370  13.968   5.391  15.740 -0.0057 -0.0804 -0.2158
13754W        W29371  16.064  16.870   1.277  0.1149  0.2544 -0.1248
13755W        W29372  15.282  15.734   4.217  0.1185 -0.3445 -0.1083
13756W        W29373   1.175   5.772  14.824 -0.0458 -0.0044 -0.1367
13757W        W29374   1.453  15.378  16.779 -0.0142  0.1858  0.0948
13758W        W29375  16.555  16.571  13.728 -0.3599  0.0651 -0.4183
13759W        W29376  11.347   9.546  14.279 -0.0003  0.1448 -0.3255
13760W        W29377  14.268  14.727  13.856  0.1291 -0.2872  0.0786
13761W        W29378  13.720  10.896  14.763  0.0580 -0.0473 -0.1697
13762W        W29379   7.767   8.861  13.894 -0.5510 -0.1469 -0.1813
13763W        W29380  16.778   7.829   0.865  0.1135  0.3033  0.1076
13764W        W29381   1.897   6.735   5.069 -0.2307  0.3979 -0.2079
13765W        W29382  14.994  13.454   3.633  0.0695  0.1697  0.0256
13766W        W29383   7.780  13.916   2.768 -0.3649 -0.0026 -0.1683
13767W        W29384  17.017   4.336  13.621 -0.2084  0.0415 -0.2014
13768W        W29385   9.570  11.176  13.241 -0.1579 -0.2014  0.1573
13769W        W29386  12.721   5.576  16.253  0.1744 -0.1190  0.1898
13770W        W29387  10.456  17.346  11.131  0.1145  0.2802  0.0983
13771W        W29388  10.780   0.707   4.679  0.1651 -0.1743  0.0012
13772W        W29389   4.923   7.130  14.260  0.0765  0.0274 -0.0079
13773W        W29390   2.293   3.360  13.968 -0.2454 -0.1455 -0.2678
13774W        W29391   4.055   1.320   4.638  0.0605  0.3236 -0.2870
13775W        W29392   0.435  10.499   1.627  0.0605  0.1633 -0.1235
13776W        W29393   7.518  13.221  12.425 -0.1222  0.1825 -0.1834
13777W        W29394  11.616  14.741  11.657 -0.1391  0.1085 -0.2785
13778W        W29395   7.102  11.548   2.500  0.1064  0.2732  0.5736
13779W        W29396  13.546   5.684  11.775 -0.0983 -0.0851  0.2653
13780W        W29397   8.687   8.704  11.510 -0.1831 -0.0050 -0.1798
13781W        W29398   2.512  16.645  11.088  0.1727 -0.0832 -0.3910
13782W        W29399  12.643   4.466  14.003  0.0449 -0.2306 -0.2208
13783W        W29400  13.417  15.796   1.352 -0.2544  0.1083 -0.3721
13784W        W29401  13.376  14.356   2.906 -0.1762  0.0740 -0.2262
13785W        W29402   0.994   9.311  11.250  0.0286  0.3955  0.1363
13786W        W29403   1.862  15.147  15.990 -0.0138 -0.1585  0.1626
13787W        W29404  16.891  10.771  13.065 -0.1396 -0.3562 -0.1456
13788W        W29405  10.558   8.546   5.463  0.0982  0.0848 -0.0032
13789W        W29406   1.441   3.245  15.675  0.0074  0.2467 -0.2975
13790W        W29407  16.818  17.802  14.077 -0.0801 -0.1635  0.1539
13791W        W29408   4.878   6.374   3.098  0.1807 -0.0373  0.0813
13792W        W29409   8.494   4.262   1.688 -0.2601 -0.0516 -0.2320
13793W        W29410  12.003  17.437  13.553  0.1761 -0.0301 -0.2373
13794W        W29411   4.817   1.390  15.725  0.1065 -0.2859  0.1859
13795W        W29412  14.256   4.904  14.351 -0.0030 -0.1334 -0.0284
13796W        W29413   3.962  17.316  15.108 -0.1141  0.1597 -0.2259
13797W        W29414   4.214  14.580  12.927  0.1547 -0.2809  0.0154
13798W        W29415   9.241   8.361  13.744  0.0606 -0.0147 -0.2538
13799W        W29416   7.978  10.663   1.578  0.1340 -0.1422 -0.0771
13800W        W29417  12.016   1.800  13.047 -0.0708 -0.1750 -0.3675
13801W        W29418  12.556   3.387   4.577  0.0843 -0.2312  0.0717
13802W        W29419   6.342  17.022   1.788 -0.0460 -0.4015  0.1003
13803W        W29420   3.805  11.026   4.004 -0.3250  0.2092 -0.0918
13804W        W29421  11.648  16.963   0.920 -0.4249 -0.0513  0.3331
13805W        W29422  11.144   6.476  11.951  0.0898  0.0422  0.0552
13806W        W29423   7.653  12.086  11.772 -0.2069  0.1717 -0.2862
13807W        W29424  13.751  12.928  14.490  0.1712  0.0693 -0.1075
13808W        W29425  10.782  11.208   1.702  0.2460 -0.2455  0.0278
13809W        W29426   7.252   3.766   5.714 -0.0968 -0.0030  0.0483
13810W        W29427   5.260   3.175  13.292  0.0964  0.0085 -0.0951
13811W        W29428  13.594   5.355  12.709  0.0539  0.2811 -0.1734
13812W        W29429   7.502  11.335   2.670 -0.2716  0.0277  0.0649
13813W        W29430   2.322   1.430  13.193  0.2189 -0.1338  0.0806
13814W        W29431   3.515  14.243   3.084 -0.1100 -0.1915 -0.2532
13815W        W29432  11.963  17.661   2.719 -0.1509 -0.2650  0.1519
13816W        W29433  15.724  14.389  11.963 -0.1851 -0.1903 -0.1336
13817W        W29434   4.999   4.091  12.137 -0.2123 -0.1813  0.0278
13818W        W29435   5.477  12.483  11.815 -0.1048  0.1661  0.1697
13819W        W29436   9.769   6.702   3.979  0.0011 -0.2846 -0.4081
13820W        W29437  10.353   1.071  16.443  0.0673 -0.0955 -0.0103
13821W        W29438  10.976   9.790  16.828  0.4926  0.1493  0.0915
13822W        W29439  13.946   3.500  14.245 -0.3149 -0.3450  0.0262
13823W        W29440  12.663  10.561   3.784  0.4317  0.4680 -0.0861
13824W        W29441  15.470   4.391  12.546  0.0432  0.2087  0.0922
13825W        W29442  17.327   0.139   5.046 -0.2013  0.2032  0.0306
13826W        W29443  13.635   6.497   5.168  0.0899  0.2523  0.1367
13827W        W29444   5.944   4.745  15.509  0.1020  0.0686  0.0871
13828W        W29445   6.375   5.230   2.126  0.2612 -0.2018  0.0528
13829W        W29446   7.712  17.705  16.523  0.1966 -0.2213  0.0264
13830W        W29447  12.512  10.921  15.446 -0.0549  0.0254 -0.1003
13831W        W29448  14.985  17.585  10.938 -0.3301  0.1138 -0.1346
13832W        W29449  12.405   4.779   3.239 -0.2647  0.0530  0.1330
13833W        W29450   2.518  14.185   5.408 -0.0320  0.0666  0.1028
13834W        W29451   9.811  10.042   1.867  0.1857  0.0233 -0.0980
13835W        W29452  15.132   6.141   1.241  0.1884 -0.4483  0.0810
13836W        W29453   2.251  15.559   3.409  0.1724  0.5968 -0.0449
13837W        W29454   0.432   7.432   2.244 -0.0569 -0.1600 -0.2067
13838W        W29455   3.109   4.538   2.821  0.3221  0.4826  0.1597
13839W        W29456  12.496  10.387  13.307  0.4235 -0.1021  0.3127
13840W        W29457   3.662  14.130   4.227 -0.3290  0.1050 -0.2308
13841W        W29458   4.849   3.705  13.726  0.3175  0.0522  0.0883
13842W        W29459   0.826  15.807  13.023 -0.3122  0.1678  0.0018
13843W        W29460   1.238   5.006   6.293  0.1188 -0.0421  0.2346
13844W        W29461  11.912  10.365  13.280  0.1582  0.1321 -0.1358
13845W        W29462   0.587  15.119   5.366 -0.0669 -0.0421 -0.0078
13846W        W29463   0.979  17.398   2.582  0.1018  0.0121 -0.1626
13847W        W29464   4.626   8.532   2.653  0.0911  0.0250 -0.1316
13848W        W29465   8.621   8.066  15.452 -0.0316  0.0476 -0.0224
13849W        W29466   1.718   9.054   3.754 -0.0737 -0.1307  0.1755
13850W        W29467   1.845   3.288   3.950  0.0504 -0.1605 -0.1568
13851W        W29468  10.337   6.478   3.940  0.2252 -0.0677 -0.1202
13852W        W29469  13.903   1.462  13.465  0.1930 -0.3010  0.0097
13853W        W29470  14.465  14.877   4.453 -0.0131  0.2584 -0.2160
13854W        W29471   8.945  15.873   2.425  0.2517 -0.0737 -0.0300
13855W        W29472   2.487  16.212   5.591  0.2260  0.2603  0.3515
13856W        W29473  15.538  12.318   0.996  0.1379  0.1407  0.3347
13857W        W29474   6.154   1.455   2.007 -0.1200 -0.0876  0.0640
13858W        W29475  13.807  13.203  13.489 -0.1793  0.3037 -0.1298
13859W        W29476   8.069   2.032   4.503  0.2105  0.0453 -0.2606
13860W        W29477   0.654   4.241   0.648  0.0082  0.0522 -0.2743
13861W        W29478   8.884  16.544  16.414  0.1610 -0.1120 -0.0007
13862W        W29479  11.344   4.724  11.696  0.1519  0.0336 -0.0527
13863W        W29480   0.984  15.910   4.032  0.1052  0.1243  0.2791
13864W        W29481  15.142   2.634   1.639 -0.0619  0.0624  0.1192
13865W        W29482   3.035  13.061   4.058 -0.0913 -0.0746  0.0113
13866W        W29483  16.855  14.345  16.176  0.1316 -0.0955 -0.1131
13867W        W29484   1.650   5.794  14.571  0.0676  0.0642  0.1226
13868W        W29485   7.477  17.619  14.113 -0.2056  0.0931  0.1415
13869W        W29486   6.308   8.548   2.305  0.1586 -0.2475 -0.1074
13870W        W29487   2.697   5.868  16.302  0.1387 -0.1223  0.0762
13871W        W29488   3.000   0.080  16.612 -0.3503 -0.2761 -0.0444
13872W        W29489  15.334  13.272  11.819 -0.2083 -0.0721 -0.2411
13873W        W29490  12.775   5.445  12.070 -0.1569  0.4068 -0.2669
13874W        W29491   0.791   5.690  11.840  0.0731  0.1583 -0.0487
13875W        W29492  17.565   7.538   2.951 -0.3770  0.1517  0.1408
13876W        W29493  12.010   0.773  14.401  0.0059 -0.2541 -0.1920
13877W        W29494   4.951  16.875  12.308  0.0126 -0.0993  0.0745
13878W        W29495   7.949   3.989   2.757 -0.0131 -0.0941  0.1449
13879W        W29496  12.431   8.298   1.837 -0.0060 -0.0030 -0.0420
13880W        W29497  14.524   9.329  12.309 -0.0306  0.1094  0.0303
13881W        W29498  16.214  16.924  14.259  0.0259  0.2617 -0.1973
13882W        W29499   9.747   8.652   0.909 -0.2677 -0.1440 -0.1407
13883W        W29500  16.031  12.113   2.749 -0.0371 -0.3168  0.2773
13884W        W29501  12.055   6.964  13.743  0.0996  0.0882 -0.0531
13885W        W29502  15.470   6.833  13.304 -0.0683 -0.0223 -0.0029
13886W        W29503  11.554   4.463  16.690 -0.0054  0.0650  0.0019
13887W        W29504   4.833  15.366   1.373 -0.2903 -0.1478  0.1223
13888W        W29505   8.992  12.783   3.681  0.1759 -0.1315  0.0139
13889W        W29506  15.822   3.748  16.214 -0.1103 -0.0437  0.1933
13890W        W29507  15.042  17.014  15.881 -0.2194 -0.3826  0.3047
13891W        W29508   0.521   0.438  11.277 -0.1344 -0.1379  0.0667
13892W        W29509   0.145   7.557   2.730  0.1015 -0.0127  0.1376
13893W        W29510  10.536   6.292   2.072  0.0247  0.0410 -0.2108
13894W        W29511   3.393   1.601  14.833 -0.2976 -0.1750  0.2319
13895W        W29512   5.879  12.183   1.440 -0.3482  0.0567 -0.0996
13896W        W29513  13.160   9.328  14.187  0.3186 -0.2409 -0.4544
13897W        W29514   2.741  15.901   5.227  0.0046 -0.2858  0.0427
13898W        W29515   0.615   1.226  16.324 -0.2945 -0.0413  0.2465
13899W        W29516  14.974   1.116  12.626 -0.0052 -0.1492  0.0179
13900W        W29517   5.071   1.693   1.309  0.2819 -0.1204  0.4021
13901W        W29518   2.137   9.101  14.106  0.2500 -0.1538  0.1747
13902W        W29519   4.854  15.144  14.570 -0.0214 -0.0664  0.0614
13903W        W29520  10.209   8.513   5.835  0.2121 -0.0167 -0.1423
13904W        W29521  13.176   5.996  16.823 -0.2500 -0.1430 -0.1194
13905W        W29522   1.151   5.270  15.226 -0.1400 -0.0120  0.0044
13906W        W29523   6.898  11.698  13.559  0.2681  0.0668 -0.0664
13907W        W29524  12.099   8.019   2.855 -0.1353  0.5310  0.0941
13908W        W29525  10.384  14.696   3.429  0.0080  0.0239  0.1515
13909W        W29526  13.420   4.267   0.207  0.2500 -0.3350 -0.2767
13910W        W29527   3.920  15.744   3.170 -0.2278  0.0094 -0.1178
13911W        W29528  14.912  14.813  15.476  0.2152  0.1395  0.1614
13912W        W29529  10.560   8.318  13.832 -0.1509 -0.0515 -0.0840
13913W        W29530   2.548  15.553  11.291  0.1264 -0.3082 -0.1107
13914W        W29531   7.461   7.557   0.539  0.0443 -0.1709  0.0598
13915W        W29532  17.688   8.235  15.346 -0.0532 -0.4578  0.0811
13916W        W29533  16.203  14.793  13.184 -0.0318  0.1409  0.1120
13917W        W29534  12.308  14.413  16.250 -0.4424  0.1538 -0.0742
13918W        W29535   8.179  10.479  14.618  0.3337  0.1751  0.1563
13919W        W29536  16.400  10.941   3.220  0.0744 -0.2547 -0.0554
13920W        W29537  16.521   5.931  13.299 -0.0197 -0.0032  0.1525
13921W        W29538   0.659   5.601  16.298  0.0891  0.0155  0.2738
13922W        W29539   0.753   6.682  12.868  0.4681  0.0875 -0.1469
13923W        W29540  16.415   4.115  12.830 -0.3252 -0.0555 -0.2749
13924W        W29541   2.418  11.834   5.815 -0.0448  0.1015 -0.1215
13925W        W29542  13.217  12.350   4.185 -0.2104  0.0194 -0.0204
13926W        W29543  16.062   1.023   4.983  0.0751 -0.1980 -0.1525
13927W        W29544   2.893   1.116  13.720 -0.0117 -0.0327  0.1199
13928W        W29545   9.906  14.964  16.720  0.4150  0.3206 -0.1614
13929W        W29546  11.623  10.116  14.214 -0.2020  0.0252  0.2612
13930W        W29547  13.732   8.403   4.179 -0.0937 -0.0645  0.1744
13931W        W29548   3.032  16.903  14.949  0.1432  0.0648 -0.0746
13932W        W29549   4.587  17.678  14.339  0.3340 -0.1134 -0.2025
13933W        W29550   1.621  17.836   5.217  0.1693  0.0952  0.1292
13934W        W29551   0.075  13.342  16.749  0.0156  0.1981  0.1800
13935W        W29552   9.990  10.201  12.807  0.1774 -0.0589  0.0789
13936W        W29553   5.279   3.070   4.919  0.0936 -0.1830 -0.1067
13937W        W29554  16.751   1.175   2.558 -0.2914 -0.2212 -0.2389
13938W        W29555   4.795  16.696  15.429  0.2745 -0.0233  0.0625
13939W        W29556   5.298   9.654  14.638 -0.1264  0.1376 -0.0623
13940W        W29557  10.261   7.111   2.956  0.1255  0.2517  0.0787
13941W        W29558  10.528   8.799   1.969  0.0266 -0.1895 -0.3772
13942W        W29559   3.014   3.189   6.229  0.2407 -0.5151 -0.1281
13943W        W29560  13.874   5.534   0.645 -0.0765 -0.0773 -0.1103
13944W        W29561   1.670  10.958   2.983 -0.1012 -0.4087 -0.0758
13945W        W29562   3.577   0.907  15.632 -0.0581 -0.1067 -0.0404
13946W        W29563  15.154  12.104   1.789  0.2886  0.0384 -0.1644
13947W        W29564  12.086   7.040   3.773  0.0431  0.1093 -0.0672
13948W        W29565  10.391   5.577   2.501 -0.0713 -0.0476 -0.0218
13949W        W29566  14.536   1.445   1.622  0.1294 -0.0064 -0.2363
13950W        W29567  14.976  16.299  15.991  0.1415 -0.0414 -0.0121
13951W        W29568   5.723   8.461   0.313 -0.2266 -0.1980 -0.0773
13952W        W29569   4.321   4.932   1.166 -0.0464 -0.4798  0.3708
13953W        W29570   6.482  13.422   1.003  0.3204  0.0492  0.0373
13954W        W29571  10.024   9.191  14.070 -0.1838 -0.1417  0.1561
13955W        W29572   1.715   8.791  14.252 -0.0045  0.0213 -0.0647
13956W        W29573  15.171  14.295  12.058 -0.1004  0.0664 -0.1924
13957W        W29574   8.978   6.183   3.073 -0.2359 -0.0394 -0.1248
13958W        W29575   4.871   8.276   5.415  0.1470 -0.0311 -0.0201
13959W        W29576  17.833  13.100   1.677 -0.0920 -0.2613 -0.1095
13960W        W29577   5.642   9.968   1.890  0.1832 -0.1534  0.2027
13961W        W29578   9.195  17.822   3.318  0.1419  0.0092  0.3183
13962W        W29579  16.635  10.035  12.389 -0.0420  0.1183 -0.1111
13963W        W29580   6.914  11.317  11.106  0.0236 -0.2811  0.2256
13964W        W29581   3.880   6.258   4.279 -0.0529  0.1652 -0.2458
13965W        W29582   2.914  14.608  12.905 -0.2062 -0.0113  0.1349
13966W        W29583   5.734  17.861   4.840 -0.2503 -0.2205 -0.0996
13967W        W29584   7.174   5.217   3.030 -0.1669  0.0494 -0.0251
13968W        W29585   3.163  10.770   1.869 -0.0512  0.1675 -0.1131
13969W        W29586  10.081   1.526  13.672  0.0375 -0.3679  0.2000
13970W        W29587   7.217   7.473  12.714 -0.2446 -0.0512  0.1379
13971W        W29588   1.733   4.088  13.197  0.0175  0.0181  0.1117
13972W        W29589   7.214   3.045   4.064  0.0286  0.0133  0.2134
13973W        W29590   9.016   9.626   1.713 -0.1845  0.0515  0.1503
13974W        W29591   8.775   0.170   3.610  0.0079 -0.0332  0.1685
13975W        W29592   6.893   4.058   3.217 -0.0809 -0.3825  0.0911
13976W        W29593   1.493   3.801   5.452  0.2457  0.2477 -0.0478
13977W        W29594   7.631   1.824   5.826  0.2142 -0.1978 -0.0603
13978W        W29595   7.529   0.644   0.866  0.0566  0.0137 -0.2867
13979W        W29596  16.202  14.124   4.473 -0.2640 -0.0629  0.1018
13980W        W29597  15.257  12.695   4.236  0.0712 -0.2835  0.0996
13981W        W29598   9.853   5.745  13.266 -0.2333  0.0013 -0.3804
13982W        W29599  10.189   7.447   0.641 -0.2310  0.0314  0.6108
13983W        W29600   5.641   2.266   0.442 -0.1394 -0.3839  0.0982
13984W        W29601  10.625  14.527   2.989 -0.1444  0.0759  0.0169
13985W        W29602   5.751  11.110   0.783  0.2756 -0.0246 -0.2447
13986W        W29603  12.977  14.033  15.125  0.0580  0.0172 -0.1888
13987W        W29604  16.052   4.793  16.380  0.0283  0.1070  0.1692
13988W        W29605  12.487   1.971  15.336 -0.0328  0.3503  0.1580
13989W        W29606  16.122  11.659   5.950  0.0814  0.2225 -0.2057
13990W        W29607   5.023  13.463   2.710  0.2625 -0.0589 -0.0654
13991W        W29608   3.050  16.000   2.402 -0.4924 -0.0547  0.0774
13992W        W29609   1.059  16.308  13.773 -0.1374  0.1218 -0.0494
13993W        W29610   3.951  11.223   1.774  0.4862 -0.0217  0.0410
13994W        W29611  14.889   2.379  11.284  0.1958 -0.1084 -0.3392
13995W        W29612   9.033   6.219   1.563 -0.0675 -0.0940 -0.2481
13996W        W29613  10.525   0.314   4.382 -0.2617 -0.0214 -0.0733
13997W        W29614   7.408   7.374  14.775  0.1070 -0.2346  0.0477
13998W        W29615   3.113   1.398  12.415 -0.2053  0.3556  0.0761
13999W        W29616  10.119   7.633  12.656 -0.1038  0.1698  0.1924
14000W        W29617  10.191  15.026   4.115  0.2270  0.1779 -0.0663
14001W        W29618  13.331  16.227  14.763 -0.0765  0.0514 -0.1611
14002W        W29619   0.279  11.495  11.779  0.1284 -0.0194 -0.1007
14003W        W29620  15.858  12.500  11.762 -0.1972  0.0141 -0.2968
14004W        W29621   8.745  13.521   2.487  0.4301  0.0737 -0.0702
14005W        W29622   6.561   2.430  15.336  0.1122  0.3860 -0.5086
14006W        W29623   0.811  14.372   3.143 -0.1271 -0.1352 -0.0664
14007W        W29624   4.130   7.107  11.572 -0.2090  0.0361  0.3161
14008W        W29625   6.241  15.116   0.798  0.0282  0.0206 -0.2311
14009W        W29626  15.153  12.040  15.200 -0.0377  0.0668  0.0210
14010W        W29627  12.301  12.971   2.276 -0.1241  0.3161 -0.0805
14011W        W29628  12.107  10.200   2.183 -0.0586  0.0744  0.1133
14012W        W29629  16.606  11.006  14.991  0.0738 -0.0649 -0.0585
14013W        W29630   3.614   0.387   4.101 -0.1309  0.0022 -0.3089
14014W        W29631   8.831   0.613  12.778  0.0747 -0.0110  0.0703
14015W        W29632   5.894   0.063  11.454 -0.0612 -0.0301 -0.0363
14016W        W29633   4.207  10.304   0.884  0.0945 -0.0352  0.1884
14017W        W29634   1.632  13.850   3.027 -0.1357  0.1844 -0.0062
14018W        W29635   6.161  13.418   3.406 -0.2152 -0.1873  0.1324
14019W        W29636   7.290   9.836   2.216  0.1048  0.2862  0.2766
14020W        W29637   3.691   3.802   4.410 -0.0255 -0.1583  0.0018
14021W        W29638   2.431   5.029   2.637  0.1513  0.0926  0.0096
14022W        W29639  11.162  15.101  12.416  0.0853 -0.2618  0.5106
14023W        W29640   4.377  11.889  12.600 -0.1310  0.4748 -0.2745
14024W        W29641   3.975  10.450  13.940 -0.0640 -0.2602 -0.2563
14025W        W29642   0.537  15.264  13.781  0.2655  0.0213  0.1148
14026W        W29643   2.995   5.092   2.889 -0.2917  0.0116 -0.0062
14027W        W29644   9.336   9.240   2.860 -0.0484  0.0288  0.0173
14028W        W29645   9.647   1.238  12.945  0.2221  0.2548  0.4311
14029W        W29646  16.479   8.364   4.707  0.2197  0.0880 -0.2166
14030W        W29647  13.843  15.881   1.696  0.0369  0.0569  0.2658
14031W        W29648  15.052  16.126  14.211 -0.1033 -0.0436 -0.0316
14032W        W29649   3.669  10.791   1.633  0.0448 -0.0719 -0.0677
14033W        W29650   7.914  17.852  13.953 -0.0788 -0.0012  0.2456
14034W        W29651  17.527   8.493  15.748 -0.2533 -0.0534 -0.2586
14035W        W29652   7.425   3.051   2.235  0.2843 -0.1225 -0.3203
14036W        W29653  13.281   1.139  11.944  0.0624 -0.4049  0.2160
14037W        W29654   1.523  16.939   5.034 -0.1720 -0.0766  0.1640
14038W        W29655   8.422   3.538   6.095 -0.2996  0.1326 -0.0695
14039W        W29656   5.646   6.747   3.921  0.0269  0.1839  0.0459
14040W        W29657   9.892   4.802   1.927  0.1322  0.0910 -0.3409
14041W        W29658   8.693   5.014   4.413  0.1118 -0.2146  0.0724
14042W        W29659   9.006   3.221  14.875  0.0704  0.0601  0.1273
14043W        W29660   8.428  16.386   3.265  0.1275 -0.0401 -0.0710
14044W        W29661   4.124  10.045   1.937  0.0229 -0.0293 -0.1067
14045W        W29662  15.100   3.733   0.471  0.2707 -0.0130  0.0835
14046W        W29663   8.903   2.650   1.877  0.0013  0.1249 -0.2344
14047W        W29664   2.815   6.385  16.107 -0.0192  0.0613 -0.2107
14048W        W29665   8.517   8.166   1.003  0.0391  0.2779  0.0234
14049W        W29666   6.432   4.311  15.448  0.0348  0.1499 -0.0240
14050W        W29667   4.466  14.394   1.642 -0.1683 -0.4213  0.0363
14051W        W29668   6.187   1.279  14.278  0.1476 -0.1025 -0.0808
14052W        W29669   2.808   5.966  15.842  0.0790  0.0666 -0.2488
14053W        W29670   1.860  17.869  14.488  0.1823 -0.2418 -0.1708
14054W        W29671   0.993   4.459   2.297  0.0389  0.1301 -0.0312
14055W        W29672   6.433  10.999  10.942  0.1091 -0.0294 -0.0106
14056W        W29673  16.837   8.578   4.388  0.3251  0.0338 -0.4069
14057W        W29674   2.987   2.218   6.387 -0.0740 -0.2958  0.1808
14058W        W29675   4.031   6.057   2.826 -0.1476  0.1131  0.2626
14059W        W29676  17.388  13.942   0.095  0.3277 -0.0633  0.2353
14060W        W29677  17.021  12.998  13.362 -0.1090  0.1799  0.0434
14061W        W29678  10.091   2.867   3.793 -0.3107  0.1049  0.0439
14062W        W29679  17.539  13.938  11.914 -0.0696  0.1784  0.2254
14063W        W29680   5.254  14.100   4.891 -0.3273  0.1862  0.1153
14064W        W29681  10.792  14.268  12.878  0.0273 -0.2134  0.2289
14065W        W29682   5.689   0.540  16.409 -0.0556  0.1269  0.0742
14066W        W29683  16.251  15.788  16.495  0.0747  0.0384  0.2203
14067W        W29684  12.261  13.183  13.965 -0.0667  0.0705  0.0200
14068W        W29685   4.092  14.564  14.839 -0.1452 -0.2303  0.0582
14069W        W29686   2.127   9.864  12.448 -0.0980 -0.0903 -0.1966
14070W        W29687   4.553  14.305   0.185  0.0463  0.2958  0.0089
14071W        W29688  11.573   9.066   1.675  0.2254 -0.0117 -0.0492
14072W        W29689   8.189   3.657   4.383 -0.0324 -0.1252  0.0580
14073W        W29690  14.610  13.219   1.343  0.3480 -0.0327 -0.0275
14074W        W29691  12.359  14.740   0.395  0.1037  0.3034  0.1156
14075W        W29692  12.339  11.190  14.470  0.1647 -0.1045 -0.0641
14076W        W29693   9.220   1.887   3.125  0.0763  0.1531  0.1382
14077W        W29694   4.447   4.326   4.960  0.2268  0.0907  0.0647
14078W        W29695   2.955   0.153   5.406  0.2541  0.0078  0.0700
14079W        W29696   0.998   8.674  16.186  0.0424 -0.2278  0.0489
14080W        W29697  13.675   1.825  16.419 -0.0573 -0.2656 -0.0858
14081W        W29698  17.597  13.987  13.793 -0.1638 -0.2384 -0.1933
14082W        W29699   3.872   8.625   5.589 -0.1276  0.2455 -0.1668
14083W        W29700   2.610   3.786   4.800 -0.0462 -0.0267 -0.2787
14084W        W29701   3.751   8.130  16.077 -0.2473 -0.2249  0.1569
14085W        W29702   5.697   4.909   1.829  0.0358 -0.3483  0.0502
14086W        W29703   5.302  16.749  15.056  0.2695  0.1820  0.0397
14087W        W29704  13.506  10.426  14.522 -0.2912 -0.1202 -0.1471
14088W        W29705   6.871   1.723  14.699 -0.0613 -0.0356  0.1795
14089W        W29706   9.404  17.281   1.076 -0.0143  0.0852 -0.0862
14090W        W29707   4.156  15.197   1.064  0.0798 -0.2940  0.2749
14091W        W29708   4.629   1.161   0.498 -0.0936 -0.1525  0.2930
14092W        W29709  13.523  14.886  14.871 -0.0956 -0.0096  0.0076
14093W        W29710  16.922  13.150   3.080  0.0560 -0.0483 -0.1367
14094W        W29711  11.136  13.393  12.107  0.1178  0.3917 -0.0238
14095W        W29712   9.929  16.931   1.896 -0.3245  0.1948  0.2739
14096W        W29713  11.359  12.409   2.936 -0.0922 -0.0809 -0.1419
14097W        W29714   1.069   2.010   2.895 -0.1778 -0.0878 -0.2467
14098W        W29715   1.967   9.035   4.675 -0.1528  0.0340  0.1943
14099W        W29716  13.003  10.986   3.008  0.1655 -0.2050 -0.2569
14100W        W29717  14.643   9.673   4.083  0.2253 -0.5832  0.1067
14101W        W29718  16.180   5.216   3.594  0.0580 -0.0362  0.0069
14102W        W29719  17.335   5.712  14.157 -0.1943 -0.0043 -0.2560
14103W        W29720   3.928  13.379  14.795  0.0761  0.0832  0.2283
14104W        W29721  13.576  17.587   1.470  0.0389 -0.0041  0.2608
14105W        W29722   8.029  17.587   2.758 -0.3744  0.0457  0.2108
14106W        W29723   5.416  12.568   2.273 -0.0354 -0.0315 -0.2247
14107W        W29724   1.325   1.200   3.573  0.0451  0.0344 -0.1709
14108W        W29725   4.728  10.040  16.631 -0.1422 -0.0697  0.1948
14109W        W29726   1.149   7.675   1.658  0.3854 -0.0957 -0.0307
14110W        W29727   0.136   5.111  13.572 -0.0609  0.1582 -0.1351
14111W        W29728   2.624   8.843  16.371 -0.2058 -0.2169  0.0912
14112W        W29729   0.764   5.267   0.965  0.0024  0.3491 -0.0617
14113W        W29730  12.696   0.031   2.618 -0.2981 -0.1475  0.1540
14114W        W29731   0.053   5.497  14.245 -0.1513  0.0412 -0.3240
14115W        W29732  10.438   9.035  12.672 -0.0013 -0.1225  0.3021
14116W        W29733   6.712   8.870   2.307  0.0924  0.2306 -0.1096
14117W        W29734   7.371  12.409  13.628 -0.4358 -0.5181 -0.1499
14118W        W29735   7.611  15.923  13.592 -0.2266 -0.3186 -0.0141
14119W        W29736   7.131   4.742  13.758 -0.0712  0.2419  0.0415
14120W        W29737   0.416   4.704   0.178 -0.1334  0.0635 -0.0962
14121W        W29738  10.052   5.399  16.247  0.0155 -0.2536  0.1291
14122W        W29739   9.011   1.191  10.425 -0.1946  0.1653  0.0105
14123W        W29740  11.221  15.632   4.902 -0.3275  0.2456 -0.1887
14124W        W29741   7.640  13.485  14.726 -0.1620 -0.1882 -0.0416
14125W        W29742   1.919   6.227  11.698 -0.1914 -0.0549  0.0170
14126W        W29743  10.484   7.573   6.001 -0.2220  0.0488  0.3467
14127W        W29744  14.049   0.172   5.627  0.0147 -0.2198  0.0202
14128W        W29745  13.294  10.777  12.307 -0.1640 -0.0342  0.3099
14129W        W29746  12.860  15.726  11.243  0.0332  0.0572  0.1065
14130W        W29747   9.117  15.315  15.638 -0.0725 -0.3185 -0.2350
14131W        W29748   3.049  16.184   5.591 -0.1473 -0.2160 -0.0382
14132W        W29749  10.314  17.645   3.971 -0.0739  0.2367 -0.0707
14133W        W29750  14.943  16.001   1.159  0.0515 -0.0047  0.3438
14134W        W29751   4.029  11.504  12.680 -0.0788 -0.2318  0.0208
14135W        W29752   7.359  10.360   5.848  0.0226  0.1613 -0.2744
14136W        W29753   4.529  11.343  15.491  0.1846 -0.0046 -0.0819
14137W        W29754   3.480  15.543  14.917  0.0657 -0.2250 -0.2349
14138W        W29755   4.766  15.322  15.097  0.2585 -0.0260  0.1281
14139W        W29756   2.759   6.613   4.905  0.0264  0.1270 -0.0349
14140W        W29757  13.830   4.392   3.434  0.0299  0.0617 -0.1993
14141W        W29758  17.636  14.512   4.895 -0.1443 -0.0285  0.1427
14142W        W29759   3.645   4.254  11.992  0.0463  0.2450 -0.1834
14143W        W29760  17.644  12.489  16.645 -0.2443  0.2287 -0.2261
14144W        W29761   4.898   5.564  11.472  0.0827 -0.0661 -0.1026
14145W        W29762   6.587  12.254  14.750  0.2203 -0.4336 -0.0986
14146W        W29763   0.814  12.107  15.823 -0.2730  0.0043 -0.2254
14147W        W29764  14.108  11.950  12.563  0.1789 -0.1197 -0.1393
14148W        W29765  15.315   9.938   2.995 -0.1877 -0.2901 -0.1061
14149W        W29766   9.264   2.922  15.413  0.3312 -0.0565 -0.2094
14150W        W29767  13.026  16.126  16.480  0.1147 -0.3093 -0.3810
14151W        W29768  17.605   6.519  16.716  0.1631  0.0187 -0.4154
14152W        W29769   8.908   1.174   6.402 -0.0492 -0.0194  0.1957
14153W        W29770  10.613  13.512   3.256  0.0331  0.0742 -0.0658
14154W        W29771  11.455  16.023  11.417 -0.0455  0.0404  0.0956
14155W        W29772   5.914   9.716   1.075 -0.1887 -0.0183  0.0561
14156W        W29773   4.164  17.370  12.060  0.0793  0.0470 -0.0083
14157W        W29774   1.781  12.941  16.388 -0.0129 -0.1909 -0.1928
14158W        W29775   1.217  17.675   3.392 -0.0610 -0.2080 -0.1296
14159W        W29776   1.372  13.996  12.502  0.0354  0.3340 -0.1042
14160W        W29777  13.942  13.545   0.205 -0.0372  0.1390 -0.1092
14161W        W29778   5.676   3.839   3.341 -0.1572 -0.1072 -0.0319
14162W        W29779  14.471  13.687   0.163  0.0819  0.0780 -0.1442
14163W        W29780   5.616  11.758  15.691 -0.0661  0.0842  0.3406
14164W        W29781  14.722   6.067  13.269  0.0032 -0.5150 -0.1013
14165W        W29782  15.582  17.131  10.408  0.1010  0.0904  0.2281
14166W        W29783  11.591   6.700   2.542 -0.1893  0.2247  0.4322
14167W        W29784   9.420   3.288   4.284  0.4615  0.3216 -0.1324
14168W        W29785   8.373  10.261   4.139  0.0876 -0.3904  0.1102
14169W        W29786   6.770   2.041  14.280 -0.0337 -0.0718 -0.0338
14170W        W29787   1.530  12.414  11.630  0.0169 -0.0884  0.2646
14171W        W29788  10.008  16.089  10.997 -0.1310  0.1706 -0.1089
14172W        W29789  17.187  15.209  11.751 -0.2721  0.1099  0.1749
14173W        W29790   4.637   3.892   4.841  0.1553 -0.1379 -0.3819
14174W        W29791   9.324  12.568  13.011  0.1387 -0.0603  0.1337
14175W        W29792  17.076  12.999   3.545  0.1083 -0.1309 -0.1921
14176W        W29793   7.758  12.071  15.998  0.1291  0.1440  0.0790
14177W        W29794   0.658   3.688   1.374  0.0530 -0.1846  0.2506
14178W        W29795  13.611  17.324   5.351 -0.0320 -0.0305  0.0357
14179W        W29796   4.644   3.768   0.698  0.0917  0.0993 -0.0828
14180W        W29797  13.306  13.946   0.498 -0.3415  0.0359 -0.1722
14181W        W29798   9.936   5.546   4.794  0.0524  0.0854  0.0016
14182W        W29799   4.497   7.398  13.208 -0.0094 -0.1053 -0.0405
14183W        W29800  10.512   9.432   5.069 -0.3085 -0.1540 -0.3172
14184W        W29801  13.558   2.453   4.236  0.0077 -0.0711  0.0806
14185W        W29802  16.598   3.288  14.244 -0.1804 -0.0176  0.0268
14186W        W29803   8.811   2.867  12.333  0.1138  0.0583 -0.1404
14187W        W29804  16.690  12.272   0.295 -0.0733  0.3327 -0.1392
14188W        W29805  14.339   5.177  13.863  0.2220 -0.2136  0.1474
14189W        W29806  10.986   6.318  16.675 -0.1149  0.0985 -0.1442
14190W        W29807   9.451  16.201  13.850  0.0370  0.0463 -0.1165
14191W        W29808   3.382  11.008   0.600 -0.2368 -0.2577  0.1762
14192W        W29809  11.976  14.295   1.878 -0.0296 -0.1842 -0.0729
14193W        W29810   4.981  15.150   0.388  0.4881 -0.2101  0.0828
14194W        W29811  17.656   4.386   0.742  0.0170 -0.4738 -0.1352
14195W        W29812  16.075  11.013   0.639 -0.1176  0.0616 -0.2009
14196W        W29813  14.181   0.868  11.999  0.1753 -0.0554 -0.2315
14197W        W29814   4.102   2.954   2.970  0.2789 -0.3458 -0.0780
14198W        W29815   2.435   4.942   0.414  0.2403 -0.3548  0.1762
14199W        W29816   7.355  11.255   4.148  0.1565 -0.1187  0.2163
14200W        W29817  12.595   8.905   1.107  0.1462  0.1940 -0.2955
14201W        W29818   4.410   0.420  13.192  0.3179  0.0533 -0.2323
14202W        W29819   5.154   5.031  12.504 -0.0666 -0.3256 -0.1456
14203W        W29820   2.945   1.016  12.703  0.4330  0.0730 -0.2591
14204W        W29821   9.409  14.732  13.990 -0.2507 -0.0438  0.0780
14205W        W29822   7.660   1.675  15.040  0.1635 -0.0212  0.3173
14206W        W29823   8.191  14.592  12.462  0.1133 -0.1843 -0.0844
14207W        W29824  17.162   9.580   4.249  0.2343  0.0812 -0.2408
14208W        W29825   7.330   3.029   3.587 -0.0733 -0.1630  0.1805
14209W        W29826   0.534  12.180   0.183 -0.0950  0.2381 -0.2350
14210W        W29827  15.942  11.284  10.516 -0.2466  0.0343  0.1799
14211W        W29828   6.457  13.647  12.281 -0.0316 -0.0518  0.0552
14212W        W29829   0.446   1.479  11.433  0.1400  0.0528 -0.1040
14213W        W29830  17.503   4.809  16.497 -0.0913  0.1099 -0.0518
14214W        W29831  12.567  13.420   6.449 -0.0370  0.2580 -0.0924
14215W        W29832   2.730  17.556  15.228  0.3417  0.0937 -0.1196
14216W        W29833   1.471   1.557   1.231 -0.1491  0.0770  0.1816
14217W        W29834   2.530  15.730  15.415 -0.0537 -0.2402  0.0007
14218W        W29835   5.287   6.658   0.616 -0.3808 -0.1409  0.2977
14219W        W29836   7.325  13.904  15.080 -0.1908  0.3097  0.0443
14220W        W29837  17.780   4.417   4.993 -0.1174 -0.0988 -0.2227
14221W        W29838   3.197   8.950  15.890 -0.0417 -0.4406  0.0105
14222W        W29839   8.552  16.997  16.491 -0.0133  0.0073 -0.2080
14223W        W29840   3.251  14.338   1.499 -0.0749  0.1558  0.1077
14224W        W29841   0.792   6.309  15.096 -0.4425 -0.1073  0.3927
14225W        W29842   4.701   7.661   2.029 -0.1062  0.0293  0.3683
14226W        W29843   7.045   8.140   1.570  0.2083 -0.3430  0.1381
14227W        W29844   9.795  17.363   0.325 -0.1085  0.0740  0.3081
14228W        W29845   9.812   7.121  15.261 -0.3042 -0.0425  0.0223
14229W        W29846  10.866  17.806  11.659  0.3842  0.0433  0.3986
14230W        W29847  10.966  12.888   2.274 -0.0366 -0.1898  0.0490
14231W        W29848   4.813   9.687  11.802 -0.0604 -0.1967 -0.0933
14232W        W29849   1.951  11.995  13.825 -0.2632 -0.0804 -0.0926
14233W        W29850   7.635  15.382  16.293 -0.0445 -0.1561  0.0989
14234W        W29851   1.850   3.077  16.630 -0.2392  0.0822  0.0258
14235W        W29852   3.744   0.156  13.804 -0.0790  0.0469  0.0991
14236W        W29853  15.012  17.087   2.601  0.1338 -0.3733 -0.1444
14237W        W29854   9.718  13.464   3.371  0.0154  0.0725  0.2172
14238W        W29855   9.604  15.129   3.279 -0.2686 -0.0132  0.1921
14239W        W29856   9.432  10.331   0.023 -0.3783  0.2898  0.1183
14240W        W29857   1.617  15.618  11.589  0.0412  0.0188  0.2067
14241W        W29858   1.311   7.375   5.883  0.0273  0.0023 -0.0156
14242W        W29859   6.011  13.439  12.291  0.2255 -0.3524 -0.1200
14243W        W29860   3.680   6.110  15.727 -0.1076 -0.2657  0.1813
14244W        W29861   6.243  10.299   1.053  0.1569 -0.1930  0.0065
14245W        W29862   8.714   8.269   1.465  0.2043  0.1610  0.4738
14246W        W29863  11.470   9.435  15.316 -0.0192  0.0424  0.0154
14247W        W29864  10.647  11.742  11.510  0.1568 -0.1180 -0.0117
14248W        W29865  11.859   8.477   4.595 -0.3262 -0.1489 -0.4017
14249W        W29866  16.902   6.614  13.702 -0.1751 -0.2222 -0.2598
14250W        W29867   3.777  17.401  16.276 -0.3308 -0.2234 -0.2672
14251W        W29868  11.615   5.755   1.761 -0.0882 -0.2120 -0.2119
14252W        W29869  14.453  15.926  16.251 -0.0628 -0.0718  0.2090
14253W        W29870  15.196  15.868  14.848 -0.3424  0.1273 -0.2647
14254W        W29871   4.630  11.784  16.247  0.0831 -0.2253 -0.0247
14255W        W29872   5.169   3.900   4.875  0.2944  0.1812 -0.1194
14256W        W29873   7.400   6.616   5.303  0.1471  0.4760  0.0687
14257W        W29874   5.978   5.615  12.216 -0.3025 -0.2174 -0.0968
14258W        W29875   7.751  17.382   3.164 -0.0964 -0.0289 -0.0531
14259W        W29876   3.333   1.544   1.540  0.6135 -0.0636  0.0427
14260W        W29877   9.062   2.688  16.539  0.2104 -0.3053 -0.0727
14261W        W29878  14.123   9.256   0.580  0.0657  0.2761  0.2052
14262W        W29879   9.632  17.756   3.133  0.1552  0.0557 -0.2362
14263W        W29880  11.670   2.155   3.905 -0.1383 -0.2080 -0.3725
14264W        W29881   6.780  15.318  15.004  0.2544  0.2344  0.0070
14265W        W29882  17.341   1.132   0.690 -0.0860 -0.0253  0.1739
14266W        W29883   9.452  11.808  13.403 -0.4711  0.1410  0.1355
14267W        W29884  15.125  14.858   0.780 -0.0924 -0.2093 -0.2583
14268W        W29885  14.569  15.960  13.997 -0.0416  0.0372 -0.0875
14269W        W29886  16.047  14.586   4.188  0.0497  0.0350  0.0112
14270W        W29887   2.173   0.394  14.753  0.2593 -0.0187 -0.1302
14271W        W29888   1.914   9.541  12.075 -0.0619 -0.2827 -0.0659
14272W        W29889   3.248   4.983   0.111 -0.2551 -0.0139  0.2792
14273W        W29890   0.205  14.821  15.708 -0.0852  0.1338  0.0262
14274W        W29891  17.038   1.666   1.739 -0.2956  0.0629  0.0316
14275W        W29892   3.713   6.209   0.731 -0.2865  0.1630 -0.0438
14276W        W29893   4.245  17.797   3.068 -0.3414 -0.0323  0.0580
14277W        W29894   3.694  14.164   2.141 -0.0529  0.2469  0.1487
14278W        W29895  15.632   2.958   2.671  0.2525  0.0665 -0.0772
14279W        W29896   4.064  10.233  15.083  0.1841 -0.0522 -0.2323
14280W        W29897  16.948  13.573   2.040 -0.0512  0.1553  0.1597
14281W        W29898   6.904   6.010   4.273  0.1471 -0.0984  0.1507
14282W        W29899   1.959   9.453   3.840 -0.2059 -0.1155 -0.1445
14283W        W29900  17.018   3.162  15.165  0.0041 -0.0880  0.1055
14284W        W29901  17.424  13.378   3.215 -0.0278  0.0588 -0.0337
14285W        W29902   3.824  12.530  11.845  0.0843  0.0739 -0.1096
14286W        W29903  14.716   4.349   5.041 -0.1206  0.0762  0.0999
14287W        W29904  17.461   2.439  16.828  0.0634  0.0961  0.2126
14288W        W29905  16.590  11.172   5.208 -0.1537 -0.1549 -0.0182
14289W        W29906   6.641  16.884  11.240  0.2393  0.1450 -0.1586
14290W        W29907   3.418  16.215  16.799  0.2454 -0.1192  0.0245
14291W        W29908  16.601  10.994  10.949 -0.0966 -0.3217 -0.2760
14292W        W29909   5.651  17.034   4.517  0.1299  0.0435  0.1579
14293W        W29910   6.077   0.801   0.789  0.1296  0.0245 -0.2672
14294W        W29911  16.562   8.456   0.456 -0.0541 -0.0339 -0.4408
14295W        W29912   3.269  17.615  13.161  0.1926 -0.1029  0.1941
14296W        W29913   5.804   1.661  14.580 -0.1180 -0.1923 -0.0267
14297W        W29914  16.277   4.465  14.415 -0.2722 -0.3468 -0.0186
14298W        W29915   0.703  16.975   2.487  0.0087  0.1416 -0.0096
14299W        W29916   7.931  10.257  14.190  0.1026 -0.1620 -0.2048
14300W        W29917   0.316   1.893  15.903  0.0294 -0.0094 -0.1389
14301W        W29918   3.029  14.887  15.405  0.1300 -0.0277  0.0988
14302W        W29919   8.588  13.254   4.638 -0.0923  0.0179 -0.0500
14303W        W29920  10.816  14.330  15.449  0.1330 -0.0920 -0.2008
14304W        W29921   7.445   2.965   1.438  0.0113 -0.1655 -0.1508
14305W        W29922   8.891   0.984  13.443  0.2215  0.2773 -0.0526
14306W        W29923   4.852   8.721  13.216  0.0060  0.1061  0.0765
14307W        W29924   3.621   5.698   0.665 -0.1198  0.0719 -0.2415
14308W        W29925  13.729  16.422  16.658  0.0221 -0.0958 -0.3097
14309W        W29926  14.702   9.335   5.400  0.1485  0.3376  0.2322
14310W        W29927   7.710   0.028   5.448 -0.0327 -0.1489 -0.1381
14311W        W29928   5.659   1.537   2.800  0.0451  0.3430 -0.2214
14312W        W29929  13.275  13.462   1.903 -0.0245 -0.1250 -0.1289
14313W        W29930  10.328   5.501   0.851 -0.0502 -0.0063  0.1138
14314W        W29931   0.416   5.042   1.642  0.1138  0.0799 -0.1241
14315W        W29932   3.237   6.697   1.462 -0.0939 -0.0458 -0.0887
14316W        W29933   0.192   9.714   5.009 -0.3580 -0.6022 -0.2279
14317W        W29934   1.306  13.557   4.403  0.2525 -0.0203  0.3518
14318W        W29935   9.370  13.192  11.523  0.0889 -0.0913 -0.0188
14319W        W29936   6.033   1.738   5.750  0.1244 -0.1407 -0.1186
14320W        W29937   3.938   1.865  11.348  0.1191 -0.0239 -0.2079
14321W        W29938   0.411   6.199   4.091 -0.1203  0.0644  0.2245
14322W        W29939  11.938   2.344  11.822 -0.0554 -0.1195 -0.2632
14323W        W29940   1.555   6.180   0.366  0.1209 -0.2340 -0.0738
14324W        W29941   0.487   9.658  16.068  0.1910  0.0352 -0.0415
14325W        W29942   0.159   8.547  16.385  0.1214 -0.0625  0.2998
14326W        W29943   1.116  13.125   0.926  0.1025  0.0723  0.0169
14327W        W29944  11.919   0.448   3.225  0.0713  0.0533 -0.1513
14328W        W29945  16.231  12.939  14.155 -0.1379  0.0695  0.0605
14329W        W29946   6.672   1.923  10.358 -0.1490  0.0493  0.2148
14330W        W29947  12.432   3.201   5.128  0.1848  0.0124 -0.0762
14331W        W29948  17.236  11.631   5.466 -0.0433  0.2106 -0.0802
14332W        W29949   9.268   8.868   1.000 -0.0347  0.2273  0.1571
14333W        W29950  12.596   2.180   4.318  0.1542 -0.1202  0.0894
14334W        W29951  14.268   9.069   5.962 -0.2198 -0.0744  0.1197
14335W        W29952   7.174   5.648  13.544 -0.1118  0.0695 -0.2382
14336W        W29953  10.436  10.441   5.147  0.2559  0.2795 -0.2331
14337W        W29954   8.873  11.218   1.385 -0.4250  0.0318 -0.2746
14338W        W29955   3.515  10.912  15.134 -0.2037  0.0323  0.1056
14339W        W29956   8.256  12.999   0.698  0.1045  0.0330  0.0644
14340W        W29957  13.490  15.657  12.668  0.3138 -0.2651 -0.3493
14341W        W29958   7.053  16.033  12.812 -0.4574 -0.1423 -0.2584
14342W        W29959   9.973   1.308  11.511 -0.0671 -0.0262  0.0393
14343W        W29960   9.576  14.867   5.393  0.2653 -0.1132  0.0029
14344W        W29961  10.349   7.651  12.102  0.0345  0.1978 -0.3676
14345W        W29962   8.920   4.420   2.046  0.3369  0.0586 -0.1188
14346W        W29963   8.602  13.967   4.022 -0.1639 -0.1063  0.0811
14347W        W29964  10.568   8.426   4.981  0.0444 -0.3094  0.0811
14348W        W29965  11.696  13.434  12.268  0.2782 -0.2527  0.0735
14349W        W29966  15.756   0.696  16.230 -0.0577  0.1067  0.0785
14350W        W29967   8.232   7.936  16.368  0.1151  0.3141 -0.1333
14351W        W29968   6.714  15.638  13.665  0.0771  0.1139 -0.2552
14352W        W29969  13.993   6.368   5.819 -0.0426  0.1995  0.0023
14353W        W29970  14.426  11.610  14.498 -0.1668 -0.0220  0.1118
14354W        W29971  10.985  15.476  15.360 -0.3578 -0.0769  0.1958
14355W        W29972   9.329  10.992  11.756 -0.2667 -0.0707  0.1569
14356W        W29973   3.376   3.500  13.430 -0.1663  0.0400 -0.0809
14357W        W29974   3.271  17.215  13.454 -0.0543 -0.0694 -0.2178
14358W        W29975  14.966  17.291  12.788  0.0946 -0.0524  0.2488
14359W        W29976   3.264   9.049  12.086 -0.0389  0.1288  0.1143
14360W        W29977   0.878   2.133  16.646  0.2766  0.2886 -0.1110
14361W        W29978   1.080  17.249   0.808 -0.2465 -0.1340  0.1231
14362W        W29979  13.745  13.285  11.990 -0.3089 -0.3943 -0.2764
14363W        W29980  16.888   6.177  14.099  0.1638  0.0326  0.0409
14364W        W29981  13.209   7.225   3.213 -0.3985  0.0318  0.1216
14365W        W29982  15.113   9.957   1.476 -0.1741 -0.0368  0.1467
14366W        W29983   5.363  10.798  12.455  0.2135 -0.0727  0.2142
14367W        W29984  13.372   9.924  15.658  0.2659  0.3485  0.0082
14368W        W29985  17.434   0.122  16.175  0.0116  0.0575  0.2312
14369W        W29986  13.923   5.835  13.527 -0.1175  0.2454 -0.0672
14370W        W29987  15.274  10.077   4.732 -0.2012  0.0133 -0.0390
14371W        W29988  12.270   1.583   4.575  0.1604  0.0001 -0.0014
14372W        W29989  10.379  14.135   0.367 -0.2331 -0.4241 -0.0745
14373W        W29990   1.777   3.084   4.480 -0.1615 -0.4497  0.2512
14374W        W29991   3.464   8.399   0.632 -0.0531 -0.2646 -0.1918
14375W        W29992   2.252   1.751   0.222  0.1232  0.1300  0.1664
14376W        W29993  12.024  10.764   1.941  0.0379 -0.3848 -0.1554
14377W        W29994  14.354   6.630   5.933  0.1274  0.0333  0.0784
14378W        W29995   5.492  16.068  11.291  0.0851 -0.0247  0.0427
14379W        W29996  13.342  15.709  16.033 -0.0775 -0.2933 -0.2794
14380W        W29997   6.053  11.892  11.919  0.2557 -0.0076 -0.0123
14381W        W29998   1.651   0.796  15.808 -0.3312 -0.2137  0.1824
14382W        W29999  12.758   0.599  15.446  0.1920 -0.0413 -0.0113
14383W        W30000   9.998   0.067  12.491  0.0747  0.0751  0.1440
14384W        W30001  17.197  11.732  11.874 -0.1426 -0.0919 -0.3053
14385W        W30002   3.068   5.279   3.459 -0.0999  0.3228 -0.0206
14386W        W30003  11.883  15.544   3.678  0.1486 -0.2588 -0.1079
14387W        W30004   5.706  14.027   0.641  0.0258 -0.1183 -0.0483
14388W        W30005  13.313  11.758   0.183 -0.1410 -0.2327 -0.0545
14389W        W30006  12.926   9.753   0.830  0.1411  0.0348 -0.1751
14390W        W30007  11.355  10.589  16.314 -0.2590 -0.1901  0.3080
14391W        W30008  15.342   0.939  11.588  0.1235 -0.1485  0.0263
14392W        W30009  16.744  17.653  15.521  0.2134  0.1141 -0.1761
14393W        W30010  11.528   0.368  13.196 -0.1255 -0.1865  0.1172
14394W        W30011  14.486   5.891   0.622  0.1531 -0.1843  0.0867
14395W        W30012   1.916   1.256   3.416  0.0860  0.2820  0.0597
14396W        W30013   2.108   5.547  12.649  0.1435  0.0628 -0.0839
14397W        W30014  15.855   1.724  13.506 -0.0565  0.0510  0.4320
14398W        W30015   3.742   1.985   0.071  0.2052 -0.2507 -0.2246
14399W        W30016   9.267  12.283  11.816 -0.0565  0.1123 -0.0374
14400W        W30017  15.239  16.988  15.060  0.1390  0.2633 -0.0573
14401W        W30018   8.658   2.511   2.619 -0.0758 -0.1261 -0.1396
14402W        W30019   3.141   9.888  15.042  0.1851  0.0718 -0.0228
14403W        W30020  13.674  12.836  11.799  0.1784  0.0411  0.0429
14404W        W30021  14.965   5.812   5.657 -0.2592 -0.0151  0.1783
14405W        W30022  14.570  17.298  12.359  0.0974 -0.2434  0.2283
14406W        W30023   8.384   4.457   4.917 -0.1274 -0.0194 -0.0988
14407W        W30024   4.921   1.654   4.250 -0.3418 -0.0812  0.1722
14408W        W30025   6.988  13.787  12.237  0.0483 -0.2482 -0.0567
14409W        W30026   6.141   5.721   6.515  0.1648 -0.2110 -0.0989
14410W        W30027  15.447  13.124   2.060  0.0550 -0.0170  0.1538
14411W        W30028   6.768  14.614  12.725  0.2227  0.0222  0.0468
14412W        W30029   9.797  11.646  16.300  0.1793  0.0938 -0.1516
14413W        W30030   6.340  15.672   4.913  0.0483 -0.0524 -0.1376
14414W        W30031  17.632   3.140   1.337 -0.0782 -0.1121  0.1212
14415W        W30032  13.544  15.723  13.232  0.0087  0.1513  0.0547
14416W        W30033  15.995   5.340   1.139  0.2480 -0.2971  0.0821
14417W        W30034   4.643   4.145  14.756  0.1122 -0.5232 -0.1448
14418W        W30035  11.890   9.484  12.876  0.0001 -0.4441 -0.0056
14419W        W30036   1.597   2.016  10.379  0.3161  0.2515 -0.5189
14420W        W30037  11.938  17.689   2.180 -0.0137 -0.2463 -0.2113
14421W        W30038   9.279   3.533  12.722  0.1810 -0.4938  0.2124
14422W        W30039   2.965   7.291   0.317  0.0512 -0.1546 -0.1893
14423W        W30040  14.968   1.391   3.985 -0.1601  0.2208  0.2372
14424W        W30041   7.442  10.215  15.158 -0.1274 -0.0696 -0.1047
14425W        W30042  10.768   0.814   2.118 -0.1334 -0.0222  0.2878
14426W        W30043   6.437   5.091   3.501 -0.2756 -0.0449 -0.2116
14427W        W30044   8.071   3.640   5.618  0.0216  0.0204 -0.1861
14428W        W30045   3.257   6.042  12.519 -0.3205  0.1268  0.1553
14429W        W30046   5.349   8.965  16.198  0.0373  0.1499 -0.0656
14430W        W30047  16.392   0.486   3.161  0.1329 -0.1161  0.1761
14431W        W30048   7.813   9.713   2.104 -0.2074 -0.5386 -0.1394
14432W        W30049  14.065   6.879   3.244  0.2481  0.0938  0.1363
14433W        W30050   2.253   3.217  10.435 -0.0659  0.0027  0.0889
14434W        W30051  13.161  14.034   4.587 -0.1071 -0.2574  0.0257
14435W        W30052  14.851  17.049  13.787  0.0515 -0.1313  0.0086
14436W        W30053   4.037   5.439  12.509  0.3680  0.1256 -0.0976
14437W        W30054   1.031  13.987  13.989 -0.0863 -0.2458 -0.0585
14438W        W30055  11.647  13.786  14.093  0.0350  0.0241 -0.2643
14439W        W30056   5.133   9.138  14.587  0.1284  0.0759 -0.0191
14440W        W30057   8.459   8.251  11.626  0.1087  0.2641  0.2080
14441W        W30058   4.369  15.763   2.582 -0.0178 -0.0208 -0.0597
14442W        W30059   8.828   3.587  12.492 -0.1696 -0.1156 -0.2711
14443W        W30060  10.036   3.908   5.500 -0.0780 -0.1843  0.3101
14444W        W30061   5.784   2.991  12.919 -0.2603 -0.0163 -0.1760
14445W        W30062   2.462  13.505  12.456  0.2314  0.1525 -0.0817
14446W        W30063   2.069  13.602   4.791  0.0243  0.0208  0.5627
14447W        W30064   6.669  12.393   2.639  0.2276  0.1965  0.0738
14448W        W30065   2.053  15.803  11.840 -0.1096 -0.0285  0.1352
14449W        W30066  13.651   4.325   2.416 -0.0985 -0.1933  0.0326
14450W        W30067   1.229   0.437  13.387 -0.0124  0.0953  0.3815
14451W        W30068  10.579   9.119   4.670  0.3112 -0.0713 -0.1193
14452W        W30069  11.088  17.133   4.355  0.3481 -0.1499  0.0584
14453W        W30070  13.672  16.895   4.552  0.0812  0.4081 -0.0296
14454W        W30071   9.773   1.584   1.902  0.1336  0.2759 -0.2282
14455W        W30072   9.555   5.265   4.448 -0.2646 -0.0915  0.1616
14456W        W30073   9.654   3.170   1.998  0.1605  0.0883 -0.5140
14457W        W30074  15.565  16.955  10.870  0.0905  0.2390 -0.1774
14458W        W30075   7.606   2.853  14.786 -0.1148 -0.0233 -0.2126
14459W        W30076  17.700  17.575   1.560  0.1131 -0.2430 -0.2593
14460W        W30077   3.742  17.288  11.303 -0.1655  0.0507 -0.0280
14461W        W30078   8.357  14.023   4.910  0.0629  0.2877  0.1293
14462W        W30079  15.037   0.470   5.686 -0.0323  0.0006  0.1951
14463W        W30080   1.358  17.363   5.506  0.1159 -0.1762 -0.0712
14464W        W30081  14.805   0.679  12.349  0.1968  0.2095  0.0219
14465W        W30082   4.451  14.774  16.548 -0.0447  0.1012 -0.1622
14466W        W30083   0.344  10.683   0.108  0.2826  0.0711  0.0351
14467W        W30084  16.718  15.453  14.869 -0.2970  0.1989 -0.0576
14468W        W30085   9.116  15.423  16.495 -0.1703  0.4905 -0.0047
14469W        W30086  14.174   1.685  14.902 -0.0333 -0.1050  0.0698
14470W        W30087   4.810  16.961   3.418  0.0154 -0.2769 -0.3980
14471W        W30088  13.867   0.680   1.466 -0.1359 -0.1100 -0.1153
14472W        W30089   9.100  13.136   4.630 -0.2480  0.1179 -0.2406
14473W        W30090  12.179  14.225   5.217  0.1400 -0.1589 -0.1883
14474W        W30091   5.382   5.961  14.269  0.2893 -0.1224 -0.1070
14475W        W30092  11.721   0.933   3.246  0.0686 -0.4237  0.1351
14476W        W30093   1.035   4.261  13.116  0.0621 -0.2212 -0.0812
14477W        W30094   6.690  11.139   0.192  0.2760  0.0028 -0.0579
14478W        W30095  13.148  16.390  13.760  0.0212  0.1989  0.1320
14479W        W30096   7.706   7.226  13.327  0.1951 -0.1592 -0.3962
14480W        W30097   3.246   4.350  16.355 -0.0144  0.2645  0.1781
14481W        W30098   9.466   5.655   1.634 -0.0446  0.0733 -0.2030
14482W        W30099  10.102  14.609  15.821 -0.0727  0.0601  0.0842
14483W        W30100   8.405   0.647  14.148 -0.0674  0.2467 -0.1202
14484W        W30101   4.389   9.947   5.411 -0.2132  0.1898 -0.2242
14485W        W30102   0.771   8.718   4.577  0.0729  0.0113 -0.1431
14486W        W30103   8.926   0.333   1.887 -0.0129 -0.1450 -0.2117
14487W        W30104  16.348  16.665   1.704  0.0783  0.0884 -0.0314
14488W        W30105   6.140   5.968   5.419 -0.0793 -0.0779  0.2946
14489W        W30106   0.254   5.229   3.028  0.2074  0.2394  0.1568
14490W        W30107  14.758   5.162   1.723  0.0636  0.0492  0.0078
14491W        W30108   6.301   3.023  14.216 -0.1690  0.0421 -0.1100
14492W        W30109   3.939   4.764  13.751 -0.0298 -0.2178 -0.0886
14493W        W30110   3.731   6.379   5.716 -0.3351 -0.0152  0.0272
14494W        W30111  16.710   2.768  15.357  0.0557 -0.0228  0.0762
14495W        W30112   8.505   0.889   4.099  0.2260 -0.3111 -0.0514
14496W        W30113   6.660   7.190   1.617 -0.2268  0.2962  0.0491
14497W        W30114   1.381   0.007   5.635 -0.4184 -0.3166 -0.1276
14498W        W30115  16.345   6.051  15.339  0.0880 -0.0609 -0.2257
14499W        W30116   8.509  16.869  12.868  0.0394  0.0684  0.1029
14500W        W30117   7.703   4.894  15.355  0.1046  0.3146  0.3782
14501W        W30118   5.604   3.458   0.611  0.2038  0.1934  0.3018
14502W        W30119   8.615   8.099   2.540  0.3190  0.1395 -0.2648
14503W        W30120   0.410   0.105   3.162 -0.0681  0.0531  0.1631
14504W        W30121  11.858  17.326   5.311  0.1594 -0.2983  0.2141
14505W        W30122  11.904   9.309   3.708 -0.0647 -0.0622 -0.2443
14506W        W30123   6.003  16.255   2.443 -0.1414 -0.2369  0.0282
14507W        W30124  17.671   0.793   4.258 -0.1396 -0.0673 -0.3230
14508W        W30125   2.033  10.906  14.553 -0.4014  0.0450 -0.0439
14509W        W30126  15.279  13.138  15.292  0.1987  0.1190 -0.0529
14510W        W30127  14.910   9.288   3.976  0.2593  0.1900  0.0292
14511W        W30128   3.786   6.634   3.993  0.2088  0.2195 -0.0370
14512W        W30129  16.475  13.953  14.398 -0.1477  0.2181  0.0854
14513W        W30130  10.198   2.817   0.904 -0.3244 -0.1416  0.1312
14514W        W30131   3.799  13.974  15.671 -0.0449 -0.0961 -0.1735
14515W        W30132   5.462   5.881   4.916 -0.0698 -0.1210 -0.1145
14516W        W30133  12.267   2.238  13.410 -0.0581  0.0220  0.1010
14517W        W30134   5.111   0.415  11.991  0.2920 -0.1794 -0.1819
14518W        W30135   4.315  11.043   2.418 -0.0158  0.0219 -0.1210
14519W        W30136  12.343   2.100  16.808 -0.1155  0.1700  0.0003
14520W        W30137   6.346   8.786  15.339 -0.1154  0.3090 -0.0352
14521W        W30138   4.100  16.388  14.184  0.3535 -0.0369 -0.2611
14522W        W30139   3.550  11.303  13.907 -0.0492 -0.0506 -0.0862
14523W        W30140   8.517   4.074  12.524  0.2318 -0.0592  0.0089
14524W        W30141  11.419  10.550  13.410 -0.0241  0.0795 -0.2231
14525W        W30142   3.925  10.855   4.574  0.0107 -0.0560 -0.0961
14526W        W30143   6.081  10.169   5.820  0.0114  0.0972 -0.0382
14527W        W30144  17.425  14.997  16.076 -0.1417 -0.0298  0.0781
14528W        W30145   3.009  16.934  16.461  0.1417 -0.0171 -0.0933
14529W        W30146   7.495  17.854   3.248  0.0594  0.1588 -0.3177
14530W        W30147  17.182   0.897   5.481 -0.2616 -0.1028 -0.1386
14531W        W30148  17.540   7.037   1.651  0.2170 -0.4609 -0.1356
14532W        W30149   8.967  16.791   1.843 -0.2007  0.0005  0.1435
14533W        W30150   1.733  14.463   0.015 -0.1103  0.3191  0.1144
14534W        W30151  15.891   7.543   0.802 -0.0030  0.1079  0.1758
14535W        W30152   1.409   8.677  12.492  0.4014  0.0394  0.2587
14536W        W30153   1.725  12.781  15.867  0.1238  0.2094 -0.0438
14537W        W30154  17.306   7.866  13.697 -0.1760  0.4281  0.3145
14538W        W30155  10.126  13.900   5.822 -0.1039  0.1493  0.0251
14539W        W30156  14.296   9.968  14.271 -0.2298  0.0079 -0.1589
14540W        W30157  10.763   8.280  15.091  0.2051  0.1294 -0.0821
14541W        W30158   4.406  17.308  14.852  0.1487 -0.0722  0.0155
14542W        W30159  14.432   7.132   5.283  0.1319  0.0875  0.1164
14543W        W30160  17.001  11.536  13.663 -0.5942 -0.0697  0.0649
14544W        W30161  15.480  10.454   6.002 -0.2015  0.1012 -0.3543
14545W        W30162  11.158   9.408  13.413  0.0894 -0.1046  0.0962
14546W        W30163  17.213  11.625   3.065  0.0599  0.0652  0.3171
14547W        W30164   2.417  17.695  13.143 -0.1276 -0.1885 -0.2429
14548W        W30165  15.383  14.210  11.586 -0.1478 -0.2655 -0.0540
14549W        W30166   9.365  14.917   1.492 -0.0045 -0.0296  0.0138
14550W        W30167  14.188  12.771   3.776 -0.1262  0.0466  0.4763
14551W        W30168  10.740  10.185  15.786 -0.1231  0.1443  0.3739
14552W        W30169   4.377   7.530   0.107 -0.0590 -0.0545 -0.1659
14553W        W30170  15.313  17.024  13.984 -0.0265 -0.1481 -0.3580
14554W        W30171  10.956  16.809   3.030 -0.0418 -0.0751 -0.2512
14555W        W30172   5.941  11.611  15.288 -0.0989 -0.2306  0.0017
14556W        W30173  11.787  14.726   3.830 -0.4576 -0.2531 -0.2460
14557W        W30174   8.051   6.743  16.555 -0.1599  0.4547  0.2988
14558W        W30175   7.593   1.590  11.972  0.0657  0.1356  0.4171
14559W        W30176  17.660   2.765  13.093  0.3180  0.1129 -0.0715
14560W        W30177   3.409   0.483  13.946  0.0406  0.0039  0.1762
14561W        W30178  13.651   5.864  16.681 -0.1415 -0.1896 -0.1493
14562W        W30179   6.312   7.526  13.855  0.0758  0.1940 -0.3010
14563W        W30180  11.273   0.528  14.114  0.3025 -0.2677  0.1503
14564W        W30181   9.801   4.308  14.487  0.0284 -0.0307 -0.0792
14565W        W30182   7.161  12.953  13.506  0.1200  0.0213  0.1156
14566W        W30183  15.606  11.063  11.880  0.0872  0.3528 -0.2664
14567W        W30184   9.883   7.511   5.973  0.0806 -0.2300 -0.1282
14568W        W30185   4.907  13.570   2.103  0.1193  0.0675  0.2060
14569W        W30186   6.911   3.761   1.809  0.3485  0.2777  0.1638
14570W        W30187  15.484  15.219  12.690  0.0158 -0.0375 -0.1450
14571W        W30188   5.902  16.601  12.039  0.2370  0.0804 -0.1116
14572W        W30189  13.041   5.451   5.550 -0.2758  0.1470  0.0849
14573W        W30190  13.566  10.765   2.112 -0.0857 -0.1157  0.0756
14574W        W30191   1.584   9.754  13.838 -0.0211 -0.0463 -0.2934
14575W        W30192  15.288  12.386   2.844  0.0861  0.3386  0.0182
14576W        W30193   9.931   7.626   2.673 -0.0460  0.2157  0.1346
14577W        W30194   9.655  12.298   3.476 -0.0280  0.0579 -0.1050
14578W        W30195  14.299  11.179  12.138  0.1716  0.0130  0.0737
14579W        W30196   2.448  12.009  13.651 -0.3987  0.0403  0.0938
14580W        W30197   7.100  11.284  13.958 -0.0466 -0.1159  0.2655
14581W        W30198   2.013   1.608  13.549  0.1877  0.0411  0.1045
14582W        W30199   9.080  16.812  14.570 -0.0957  0.0082  0.3718
14583W        W30200  15.266   4.141  13.822 -0.1655 -0.1957 -0.1213
14584W        W30201   1.267  12.624  12.381  0.0248  0.1413 -0.4044
14585W        W30202   7.106  16.206   2.586  0.3469  0.1092  0.2358
14586W        W30203   6.370  12.242  14.263  0.0246 -0.1485 -0.0870
14587W        W30204  12.989   3.007  15.826 -0.0155 -0.4702 -0.2511
14588W        W30205  10.335  13.783   3.573 -0.1269  0.0032 -0.0138
14589W        W30206  16.940   8.840   2.972  0.1003 -0.0005  0.4498
14590W        W30207   6.918   4.917  14.725  0.1804  0.1566 -0.0113
14591W        W30208   6.430  15.015  16.065  0.1389  0.0997  0.3319
14592W        W30209   6.418  12.327  16.692 -0.3329  0.0511 -0.2244
14593W        W30210  11.396  17.367  15.748 -0.1487  0.0947  0.1336
14594W        W30211  16.920  13.539   5.797  0.1302  0.0951 -0.0108
14595W        W30212   3.593  11.940  11.806 -0.0757  0.2969 -0.1477
14596W        W30213   8.622   7.318   1.524 -0.0359  0.0115 -0.1493
14597W        W30214   8.027  12.282  13.226 -0.0502  0.0338 -0.1042
14598W        W30215   2.281   9.923  14.403  0.1539  0.3050  0.0557
14599W        W30216   7.821   3.748  16.549  0.3855 -0.0070 -0.4293
14600W        W30217  17.202   7.743  15.009  0.1547  0.0618  0.0482
14601W        W30218  13.813   8.055  14.146  0.1801  0.2419 -0.2074
14602W        W30219   1.395   8.809  11.992  0.1578 -0.1045  0.0411
14603W        W30220   6.298   9.272  10.602 -0.2842 -0.0561 -0.0728
14604W        W30221   1.174  14.311  12.877 -0.0283 -0.0673  0.3870
14605W        W30222  16.188  17.140  14.781 -0.3823  0.1982  0.1586
14606W        W30223  17.109   4.300  15.605  0.0911  0.2297 -0.1369
14607W        W30224   4.858  15.292   2.424 -0.3428  0.2791 -0.0026
14608W        W30225   3.773  13.382  12.573 -0.0368 -0.0869 -0.2177
14609W        W30226  14.371   4.547  14.052 -0.1334 -0.1250  0.2882
14610W        W30227  17.487   1.669   2.444  0.1628  0.0065 -0.0023
14611W        W30228   0.043   6.713   2.436 -0.1311 -0.2523  0.0857
14612W        W30229   0.687   4.294  13.980 -0.2292 -0.1098  0.2597
14613W        W30230   9.338   7.956   3.444  0.0101 -0.2860 -0.0106
14614W        W30231   5.791  14.577  16.127  0.0025  0.0302  0.3613
14615W        W30232   4.296  17.654   4.597  0.1801 -0.0400  0.3826
14616W        W30233   3.163   0.841  16.144 -0.1672  0.0262 -0.1152
14617W        W30234   5.911   5.157   3.764  0.0242 -0.0500  0.1425
14618W        W30235   1.842  14.964   3.828  0.0431  0.1303  0.0996
14619W        W30236  17.186   2.825   4.281 -0.1124 -0.0541  0.0080
14620W        W30237  17.073   8.654   5.397  0.0011  0.0027  0.2292
14621W        W30238   5.814   9.497   5.332  0.0558  0.1686  0.0998
14622W        W30239  11.475  13.240  16.037  0.0865  0.0127 -0.1081
14623W        W30240   2.204  12.133  16.066  0.0173 -0.2292 -0.0383
14624W        W30241   1.488  17.531  14.317 -0.3013 -0.0150  0.2003
14625W        W30242  15.827   1.495   0.522 -0.0783 -0.0918  0.1067
14626W        W30243  13.350   3.191   0.374  0.0595 -0.0792 -0.0240
14627W        W30244   0.479  10.290   0.967  0.0893  0.0311  0.1450
14628W        W30245  17.234   9.706   4.746 -0.0971  0.0467  0.2904
14629W        W30246   2.912   8.416   5.081  0.1062  0.4003  0.3309
14630W        W30247   1.204   6.551  13.145  0.2163  0.1342  0.0828
14631W        W30248  15.644  16.721  16.495  0.0357  0.1141 -0.2352
14632W        W30249   9.769  16.399  12.159  0.0634 -0.0919 -0.2360
14633W        W30250   5.647   5.002  14.981 -0.2401 -0.1440  0.2728
14634W        W30251   6.579  13.176  16.013 -0.0381  0.0862 -0.0596
14635W        W30252   9.243   0.746   6.424  0.2214  0.2284  0.0902
14636W        W30253   1.791   6.057   2.441  0.4359  0.0818  0.2508
14637W        W30254  14.698   7.382  12.349 -0.2003 -0.0877 -0.0203
14638W        W30255   1.303   0.111   1.189 -0.0561 -0.0019  0.0269
14639W        W30256  14.441   0.847  13.215  0.0950  0.0749  0.2896
14640W        W30257   0.692   1.872   2.424 -0.0466 -0.2273 -0.2178
14641W        W30258  12.492   7.849   2.183 -0.2332  0.1803  0.2233
14642W        W30259  11.641   8.313   0.671  0.0832 -0.1638  0.2556
14643W        W30260   2.236   1.512   0.711 -0.0031  0.2345  0.3166
14644W        W30261   8.544  16.110  10.231 -0.2020  0.0092 -0.0081
14645W        W30262   7.267   2.323   0.689  0.1491  0.2438 -0.0162
14646W        W30263  11.485   9.085   2.616  0.1131  0.0349 -0.3561
14647W        W30264  11.730  11.758   5.643 -0.0487 -0.3334  0.0035
14648W        W30265   9.115  16.955  14.097 -0.1310  0.2412 -0.1200
14649W        W30266   5.592  11.253  15.140  0.0161 -0.0675 -0.0378
14650W        W30267  12.512   0.637  14.718 -0.1241 -0.0932  0.0861
14651W        W30268  11.849  17.126  13.227 -0.1361 -0.0197  0.3506
14652W        W30269   6.880   1.474  15.372 -0.0922 -0.3288 -0.0844
14653W        W30270  16.825  11.949   3.169  0.0342  0.0329 -0.2669
14654W        W30271   4.173  14.152   2.306 -0.1652  0.1120 -0.1912
14655W        W30272   6.361   7.509   0.386 -0.0828 -0.3715  0.0218
14656W        W30273   4.665   9.296  14.433  0.1661  0.0549  0.1297
14657W        W30274  14.657  12.440  13.906 -0.2504  0.0647 -0.0774
14658W        W30275   4.104   5.901   0.453 -0.1600 -0.3658  0.0950
14659W        W30276  15.198   4.224   1.961  0.0535  0.0141  0.0376
14660W        W30277  12.555   3.882  13.868  0.0400 -0.1131  0.4150
14661W        W30278  13.897  16.927   0.390 -0.1085  0.1748 -0.0884
14662W        W30279   7.120   9.606   1.832  0.0006 -0.0010  0.0901
14663W        W30280   1.807  13.408  11.641 -0.1044  0.1939 -0.1890
14664W        W30281  12.237   9.955  16.221 -0.2744  0.1742  0.2801
14665W        W30282  15.513  10.988  15.224 -0.0401 -0.2071  0.1481
14666W        W30283   4.866  13.565   4.032 -0.0317  0.2213  0.0682
14667W        W30284   7.005   9.245   0.058 -0.0993 -0.0910 -0.2499
14668W        W30285   3.179   4.229  12.852 -0.4459  0.3561 -0.0447
14669W        W30286  10.646   4.852  16.230 -0.0288  0.1532  0.1524
14670W        W30287   3.138   3.000   4.643  0.2228  0.1013 -0.0483
14671W        W30288   4.524  16.584   3.542 -0.3025 -0.1746 -0.2904
14672W        W30289   7.264   6.753  15.559  0.2615 -0.0735  0.2035
14673W        W30290   8.895  11.761  16.354 -0.0830 -0.2417  0.0127
14674W        W30291   4.636  16.479   0.671 -0.0758 -0.3035 -0.1638
14675W        W30292   3.145   2.979  15.070  0.0225  0.0255 -0.2643
14676W        W30293   8.056  15.358  11.757 -0.0887 -0.1077  0.2473
14677W        W30294  14.544  12.888   2.914  0.4254 -0.0170  0.3341
14678W        W30295  11.140  14.182   3.855 -0.2791  0.0693  0.0856
14679W        W30296   2.134  11.114   4.643 -0.0194 -0.2241 -0.0380
14680W        W30297   4.652  15.601   0.541 -0.1022  0.0401  0.0959
14681W        W30298  10.034  17.555   3.502  0.3411 -0.3433 -0.5551
14682W        W30299  12.634   4.641   4.409  0.3851  0.1191 -0.1637
14683W        W30300   9.093  16.954  16.279  0.0322 -0.1831  0.0575
14684W        W30301   0.465   1.730  16.728 -0.0675 -0.2323 -0.1122
14685W        W30302  14.662  14.864   0.617 -0.0243 -0.0355  0.0547
14686W        W30303  14.777  13.133  10.682  0.0068 -0.0424 -0.1251
14687W        W30304   9.304   5.846   0.235  0.0154 -0.2213  0.2275
14688W        W30305  15.068  11.486   5.984 -0.1219  0.0890 -0.4071
14689W        W30306   4.564   7.205   2.150  0.1257 -0.2503 -0.0934
14690W        W30307   9.642   9.964  13.237  0.0383 -0.2284 -0.0581
14691W        W30308   3.344   0.111   0.132  0.2411 -0.2265  0.2173
14692W        W30309  10.916   8.445   3.826 -0.0927 -0.3539 -0.0674
14693W        W30310   5.994   2.258  12.306 -0.1066 -0.2082  0.1331
14694W        W30311   7.006  16.793   5.540  0.0128 -0.0576  0.0189
14695W        W30312   0.459  10.432   3.471 -0.0039 -0.2485 -0.2341
14696W        W30313  13.625  14.884   4.638  0.0767  0.0037 -0.1240
14697W        W30314   1.776  11.765   1.532 -0.0892  0.1224 -0.2461
14698W        W30315  16.727  12.607  15.908 -0.0564  0.0164  0.1849
14699W        W30316   4.735  16.484   4.251  0.0665  0.2427  0.3004
14700W        W30317   5.354   6.184  16.238 -0.1641  0.0874 -0.2433
14701W        W30318  11.147   7.067   4.990  0.0288 -0.0147  0.2370
14702W        W30319  15.082   3.710  13.973  0.2608  0.1271  0.0992
14703W        W30320   2.603   1.431  11.297  0.2148  0.0393  0.0054
14704W        W30321   3.509   6.329  15.245  0.2930  0.2065 -0.2047
14705W        W30322  16.568  10.483   4.452  0.0686  0.1039  0.0425
14706W        W30323  16.503   6.005   1.488 -0.1498 -0.1597 -0.0090
14707W        W30324   9.745  11.006  15.017  0.2337 -0.1896  0.2877
14708W        W30325   4.662   8.935  12.123  0.1134  0.2068 -0.1065
14709W        W30326   3.115   8.202  13.015 -0.0094  0.0824  0.2541
14710W        W30327   4.949  12.035   0.913 -0.2343 -0.2216 -0.0483
14711W        W30328  15.115  11.988   0.211  0.1813 -0.0173 -0.2321
14712W        W30329   4.306   3.677  12.717 -0.0753 -0.1058  0.0239
14713W        W30330   1.379  15.218  14.192  0.1270 -0.1299  0.1469
14714W        W30331   7.672  10.847   1.240  0.0434  0.3267 -0.0791
14715W        W30332   7.734   6.916  12.236  0.0430 -0.0485  0.0736
14716W        W30333   4.372  14.897   3.022 -0.0809 -0.1380  0.0246
14717W        W30334  15.799   5.869  12.133 -0.1336  0.3194  0.0186
14718W        W30335   2.352   4.658   4.543  0.0148  0.1579 -0.1757
14719W        W30336   9.968  10.251  14.629 -0.0263 -0.1773  0.0466
14720W        W30337  15.131  16.694  15.538  0.2210 -0.1139  0.0743
14721W        W30338   9.925   6.953   2.057 -0.2250 -0.3102 -0.0732
14722W        W30339   1.316  11.342  13.872  0.0708 -0.0299  0.2748
14723W        W30340   7.288   6.896  14.918 -0.3907 -0.0325 -0.0874
14724W        W30341   0.342   7.644  14.446  0.4495 -0.5723 -0.4135
14725W        W30342   8.615  13.460   0.480 -0.0124  0.1913  0.1562
14726W        W30343   9.368   8.906   6.065 -0.1085  0.0351  0.0093
14727W        W30344  10.426  10.464   0.158  0.0291  0.0157  0.1352
14728W        W30345   5.846   6.142  16.432 -0.3801  0.0800 -0.4726
14729W        W30346   7.711  13.068   0.961  0.0617 -0.0666 -0.1037
14730W        W30347   7.279   0.154  12.075  0.0718  0.1479 -0.0265
14731W        W30348  10.903  11.833  14.822 -0.2354  0.3242  0.1165
14732W        W30349   1.357   8.609  15.618 -0.2368 -0.1591  0.2728
14733W        W30350  12.817  14.526  12.557 -0.2078  0.3319  0.2315
14734W        W30351   1.404   5.106   1.675 -0.0849 -0.2621  0.0216
14735W        W30352   9.772   2.360   0.265  0.1314 -0.0213  0.0712
14736W        W30353  14.592   0.919   3.516  0.0367  0.1299 -0.1045
14737W        W30354   7.956   8.688  14.326 -0.0415 -0.0452  0.0857
14738W        W30355   7.272   4.426  12.069  0.6084  0.0505 -0.2653
14739W        W30356  17.608  10.581  11.544  0.1606  0.1382 -0.0267
14740W        W30357   1.136   5.292  13.417 -0.3840 -0.3183  0.0147
14741W        W30358  13.311   4.688   2.226 -0.0827  0.4121  0.0890
14742W        W30359   0.441   8.942  13.503  0.3633 -0.2511  0.1149
14743W        W30360   4.592  12.182   0.453 -0.2777 -0.0829  0.1808
14744W        W30361  17.063   7.515   0.437  0.3539 -0.2690  0.0611
14745W        W30362  13.015   2.436  11.346  0.0137  0.0860 -0.1549
14746W        W30363   7.605  12.203   3.387 -0.2927  0.0079  0.0981
14747W        W30364   8.064   5.739   2.657  0.1447  0.0901 -0.0582
14748W        W30365   6.071  12.378  14.635 -0.0776 -0.1599  0.1690
14749W        W30366  16.689   7.348  16.399  0.1291  0.1059 -0.0105
14750W        W30367  15.276  13.105   3.379  0.1784  0.1548 -0.3923
14751W        W30368   3.591  14.034   0.274  0.0788  0.1255  0.0817
14752W        W30369   4.941   1.656  11.903 -0.2344 -0.0863 -0.0676
14753W        W30370   3.850   5.585   5.431 -0.0331  0.1704 -0.3184
14754W        W30371   7.797  17.639  11.329 -0.0250  0.2348  0.0438
14755W        W30372  17.503   5.256  14.357 -0.2749 -0.1963  0.0808
14756W        W30373   9.059   9.076   4.204 -0.0507  0.2248  0.0055
14757W        W30374  13.186  12.927   3.485 -0.2202  0.3623  0.3010
14758W        W30375  17.815   6.494  12.596 -0.0894 -0.2494 -0.2485
14759W        W30376  14.235   0.251   3.590 -0.4617  0.4429 -0.0808
14760W        W30377  13.135   6.508   0.197  0.2977  0.1638  0.2909
14761W        W30378   2.280   9.773  11.765 -0.1884 -0.1230  0.2117
14762W        W30379   0.077  10.972  11.647 -0.1674 -0.1133 -0.2224
14763W        W30380  17.574   0.172  11.456 -0.3864 -0.0363 -0.0515
14764W        W30381  17.635   1.246   2.277  0.1865  0.1204 -0.0004
14765W        W30382   4.941  11.271   4.710 -0.2851  0.3487 -0.1975
14766W        W30383   7.353   7.367   4.059 -0.3569  0.0178  0.0238
14767W        W30384  16.331  10.647  14.795 -0.1013  0.1765  0.1455
14768W        W30385   3.133   7.012  14.484  0.2731  0.0447 -0.0143
14769W        W30386  10.232   7.280   1.794  0.1109 -0.0796 -0.0339
14770W        W30387   4.325  14.114   5.096 -0.0231 -0.0358  0.0166
14771W        W30388  14.210  16.328   1.816  0.0018  0.1616  0.1928
14772W        W30389  17.844   9.107   0.744 -0.0414  0.0471  0.3750
14773W        W30390  12.550  13.025   0.859 -0.1091 -0.0396  0.2033
14774W        W30391   7.304  16.966  15.334 -0.0538  0.2536 -0.2011
14775W        W30392   8.399   9.778   4.052  0.0217  0.1342  0.2453
14776W        W30393  14.918  16.479   4.404  0.1990  0.3278  0.0443
14777W        W30394   4.899   7.723   5.355 -0.0793  0.0472  0.2304
14778W        W30395   7.252   5.113   3.907  0.0734 -0.1052 -0.3556
14779W        W30396   6.914   9.699   5.444  0.2152  0.2105  0.0157
14780W        W30397  14.940   7.626  14.513  0.2076  0.0314  0.0976
14781W        W30398  16.644  10.822  12.539  0.2351 -0.0108  0.2038
14782W        W30399  16.150  11.110   3.610  0.1520 -0.1180 -0.1146
14783W        W30400   7.068  10.281   4.110 -0.0931  0.3139 -0.0219
14784W        W30401  16.435  10.299   0.739  0.2243  0.2743  0.1436
14785W        W30402   2.528  13.287  12.009 -0.0581 -0.0324 -0.1122
14786W        W30403   9.489   8.411   3.145 -0.1587  0.2478 -0.1868
14787W        W30404  11.045   1.100  13.356 -0.4457 -0.1934  0.0529
14788W        W30405   3.003  10.355   4.241  0.1614  0.2427  0.1434
14789W        W30406  12.214  10.494  14.795  0.3780 -0.0670  0.0512
14790W        W30407   1.431   0.194  16.607  0.1772  0.1276  0.0642
14791W        W30408  10.084   0.137  15.371  0.0002  0.1128  0.2430
14792W        W30409   4.620  12.958  13.596 -0.2497  0.1336 -0.2345
14793W        W30410   1.027   6.235   5.141 -0.3622  0.1456  0.1767
14794W        W30411  12.835  10.731  13.945  0.1335 -0.1272  0.0409
14795W        W30412   8.644   8.187   1.993 -0.1707  0.4734  0.0647
14796W        W30413  12.448   8.443  14.363 -0.3439 -0.0160  0.2260
14797W        W30414   4.050   7.948  13.768  0.3183 -0.1879 -0.2710
14798W        W30415  17.052   0.898  13.674  0.1015 -0.1716 -0.1480
14799W        W30416  16.142  13.520  13.366  0.3176 -0.0356 -0.3253
14800W        W30417  13.790   6.052  12.831  0.2186 -0.1287  0.2044
14801W        W30418  12.790   5.778   1.427 -0.0761 -0.0787  0.2461
14802W        W30419  14.147   3.417  13.782 -0.1588 -0.0384 -0.0594
14803W        W30420  16.545  15.750  13.251 -0.0847  0.1825  0.3324
14804W        W30421   2.846   1.535   5.403 -0.1831 -0.1867  0.1506
14805W        W30422   3.027  13.744  13.186 -0.1164  0.2324 -0.1870
14806W        W30423   8.364  12.843  16.427 -0.1041 -0.2390 -0.0862
14807W        W30424   2.408   4.585  13.412  0.2233 -0.1380  0.1162
14808W        W30425  10.937   1.665  12.441 -0.0169 -0.2809 -0.0639
14809W        W30426  16.284   3.750  15.448 -0.2247 -0.0753 -0.0451
14810W        W30427  13.334  14.356   3.733 -0.0740 -0.0546  0.1389
14811W        W30428   3.098   1.911  13.519  0.0703 -0.0916  0.0059
14812W        W30429   8.920  13.958   1.292 -0.2000  0.0852  0.1975
14813W        W30430   2.899   5.476  15.991  0.0661 -0.1233 -0.1071
14814W        W30431   7.846   3.393  14.751  0.0271  0.0059 -0.1404
14815W        W30432   6.919   3.391   4.457 -0.2880  0.1928  0.0369
14816W        W30433   0.534   1.698   3.922 -0.0877  0.3543 -0.2361
14817W        W30434  10.270  13.263   4.998  0.2245  0.0331 -0.2887
14818W        W30435  15.820  13.430  11.638 -0.0938  0.2447  0.0238
14819W        W30436  10.789  15.366  11.307 -0.1421  0.2519  0.2513
14820W        W30437   7.653  14.535   5.240  0.0010  0.0596  0.2782
14821W        W30438   0.368  17.051   2.838 -0.2708  0.1644  0.1521
14822W        W30439  12.786  13.760  10.886  0.2626  0.0335 -0.0029
14823W        W30440  16.758  10.482  14.956 -0.1774  0.0598 -0.0859
14824W        W30441  16.554  17.791   4.731 -0.1443 -0.0023 -0.1203
14825W        W30442   6.868   2.927  16.436 -0.4799  0.5331 -0.1547
14826W        W30443   5.361   8.431   6.143 -0.0043 -0.0673 -0.2798
14827W        W30444  11.544  11.571  14.739 -0.0455 -0.0148  0.2427
14828W        W30445  10.379   1.504   4.831  0.0487 -0.0439 -0.0910
14829W        W30446   3.465  16.183  16.182  0.0903 -0.0297 -0.1134
14830W        W30447  12.839   3.926   4.417  0.1529 -0.1102  0.2112
14831W        W30448  11.338  16.285  12.398 -0.0311 -0.0341  0.0971
14832W        W30449  10.824  13.283   2.884  0.3110  0.4708 -0.2935
14833W        W30450  12.217   3.660   2.123  0.1988  0.3299 -0.3499
14834W        W30451   7.513   7.956   3.233 -0.0781  0.2670  0.0366
14835W        W30452  11.599   2.685  13.981 -0.0239 -0.0799 -0.1870
14836W        W30453   9.403  11.560   5.093 -0.1694  0.0179  0.0009
14837W        W30454  11.733  13.560   4.139 -0.3112  0.0094  0.1369
14838W        W30455  13.834   1.071  13.842  0.0734 -0.0577 -0.3755
14839W        W30456   3.523   1.428   3.230 -0.1177 -0.3072  0.1249
14840W        W30457   3.474  10.921   5.341  0.1354 -0.0253  0.0945
14841W        W30458   8.374  16.563  16.152  0.1345  0.2244 -0.2439
14842W        W30459   9.709   4.911  12.319 -0.0056 -0.0567  0.0192
14843W        W30460  12.639   4.533   5.041 -0.1039 -0.0626 -0.0643
14844W        W30461  14.883  17.653   2.037 -0.0769 -0.0659  0.1307
14845W        W30462  12.411   1.359   3.701  0.0876 -0.0372  0.0329
14846W        W30463   0.914  12.271   4.115  0.1552  0.0563 -0.0040
14847W        W30464  14.554  14.425  15.472  0.4181  0.0728 -0.0948
14848W        W30465  15.884   5.642  13.106 -0.0735 -0.3479  0.0944
14849W        W30466   2.385   3.768  16.364  0.2090 -0.2364  0.0536
14850W        W30467   8.830   6.914  16.170 -0.1630 -0.0497  0.2014
14851W        W30468  16.087   1.757  11.490 -0.0135 -0.1919 -0.1877
14852W        W30469  13.630  11.389   1.450  0.3319 -0.3328 -0.2121
14853W        W30470   6.829   7.186  13.560  0.2531  0.1111  0.3012
14854W        W30471  12.459   0.874   0.341  0.0516 -0.3580 -0.1520
14855W        W30472   1.016   8.176  16.373 -0.1004 -0.2366  0.2209
14856W        W30473  17.303  15.701   4.013 -0.2047  0.1622  0.1396
14857W        W30474  11.439  17.195  12.198 -0.1786 -0.1372 -0.1191
14858W        W30475  13.989   4.126  14.795  0.0848 -0.1151 -0.3374
14859W        W30476   1.379  15.915  11.977  0.0220  0.0062  0.1405
14860W        W30477   6.836  13.787  12.710 -0.1276  0.3089  0.2281
14861W        W30478   2.659  13.494   6.353 -0.1623 -0.1061 -0.0366
14862W        W30479   0.769   2.866   5.128  0.0147  0.1249  0.0854
14863W        W30480  16.917   6.564   1.025  0.2154 -0.1297  0.1717
14864W        W30481  11.640  13.407   1.910 -0.4564  0.0737  0.0254
14865W        W30482  14.894   3.222  12.772 -0.1433 -0.0646 -0.0986
14866W        W30483  13.548  16.395   4.860 -0.0922 -0.2268 -0.0085
14867W        W30484   5.444   6.302   6.032 -0.3689  0.2313 -0.0366
14868W        W30485   8.063   4.600   2.946 -0.2814 -0.4479 -0.1748
14869W        W30486   8.448  13.182  12.481 -0.2965  0.1863  0.2300
14870W        W30487  14.121  10.498   4.336 -0.2757  0.1408  0.0028
14871W        W30488   7.979  13.354   5.998 -0.0122  0.0885 -0.3895
14872W        W30489  15.464   2.997   1.558 -0.1178 -0.0409  0.1011
14873W        W30490  15.571   0.424  14.673 -0.1332 -0.1291 -0.0242
14874W        W30491  17.717   0.272  14.711 -0.0498  0.1314 -0.0729
14875W        W30492  12.708  17.442   1.598 -0.0006 -0.0232 -0.2470
14876W        W30493   5.211   4.366  14.928  0.0493  0.0585 -0.0550
14877W        W30494   2.673  17.500   4.656 -0.1907 -0.2966  0.1665
14878W        W30495  16.583  11.770  16.449  0.0108  0.0393 -0.1764
14879W        W30496  17.058   8.083  14.085 -0.1267  0.1348 -0.0970
14880W        W30497   2.884   8.867  15.016  0.0030  0.1938  0.1326
14881W        W30498  13.502   2.290  10.504  0.2534  0.0148  0.4363
14882W        W30499   3.116   6.434  14.056 -0.1398  0.0807 -0.1944
14883W        W30500   6.716  10.539  14.900  0.0704  0.0185  0.1539
14884W        W30501  12.281   9.588   2.083  0.0822  0.0443  0.0092
14885W        W30502  12.862  16.941  16.669  0.2286 -0.2388 -0.0674
14886W        W30503  14.979  14.233   1.214  0.0585  0.0200 -0.2933
14887W        W30504   2.435  11.870  11.531  0.0542  0.1557  0.0457
14888W        W30505   5.684   6.295   1.225  0.0444  0.1400  0.0192
14889W        W30506  13.744  17.539   6.111  0.0006  0.3352 -0.1284
14890W        W30507   0.450   4.677  16.483 -0.1503 -0.0220  0.0997
14891W        W30508  10.680  12.002  16.483 -0.2605 -0.0572  0.4039
14892W        W30509  11.675   4.029   6.277  0.0646 -0.1595  0.2915
14893W        W30510   1.740  14.619  15.906 -0.2727  0.1238  0.0332
14894W        W30511  10.823   3.918  15.181 -0.1959 -0.2978 -0.0236
14895W        W30512   1.156  10.595   1.152 -0.0784  0.1625 -0.0827
14896W        W30513  10.508  16.516   1.557  0.0938 -0.0431 -0.0173
14897W        W30514   9.049   6.650   3.398 -0.0790 -0.2052  0.1726
14898W        W30515   6.471  14.784  15.015  0.1014  0.2980 -0.1191
14899W        W30516  14.987   9.066  15.704  0.2361  0.1305  0.1366
14900W        W30517   4.195  12.344   3.940  0.1425 -0.1741 -0.1663
14901W        W30518   5.603  16.412  13.750 -0.2840 -0.0684 -0.1995
14902W        W30519   8.901   9.959   2.362 -0.0676 -0.0122  0.0617
14903W        W30520   6.658   2.829   5.285 -0.0221 -0.2063  0.2814
14904W        W30521   9.716   1.780   3.351  0.1052  0.0894 -0.2921
14905W        W30522  10.259   6.016   0.981  0.3326 -0.3598  0.1558
14906W        W30523   6.761  17.468  15.205  0.0284  0.0312  0.0370
14907W        W30524  15.548  16.490   4.885 -0.0613  0.4047  0.1408
14908W        W30525   2.177   4.104   1.451 -0.1511 -0.2145 -0.2078
14909W        W30526  13.003   0.506  16.438 -0.1279 -0.0626  0.1477
14910W        W30527   2.865   7.145   2.146 -0.1019  0.0043  0.0744
14911W        W30528   0.669  14.765   3.416 -0.0910  0.1452  0.0400
14912W        W30529   5.980  16.432  11.506  0.0370 -0.2407 -0.1275
14913W        W30530   7.831   0.375   2.842  0.1929 -0.1091 -0.3322
14914W        W30531   5.555  12.009  12.129  0.0995  0.0776 -0.0843
14915W        W30532   3.455   4.764  16.555 -0.1419  0.0149 -0.1306
14916W        W30533  12.824   2.357  14.581 -0.1817 -0.2681  0.0945
14917W        W30534  16.938  17.033  10.813 -0.1755  0.0794  0.0331
14918W        W30535   2.086  12.534  12.089 -0.1106 -0.2883  0.0175
14919W        W30536  13.749   4.052  13.165  0.1737 -0.0021  0.0166
14920W        W30537  12.414  12.091   1.427 -0.4825 -0.0592  0.1467
14921W        W30538   2.653   6.234   2.221  0.0070 -0.1206 -0.1795
14922W        W30539  16.907   1.995  15.712 -0.0629  0.0821 -0.2909
14923W        W30540   1.890   0.458   1.582  0.2044 -0.0253  0.1808
14924W        W30541  15.770   2.050   2.697  0.2433  0.0171  0.0961
14925W        W30542   8.256  15.872   8.408 -0.1441 -0.1149 -0.0405
14926W        W30543   7.935   6.544   5.385 -0.0074 -0.3854 -0.1423
14927W        W30544   0.854  10.283   3.197 -0.1049 -0.1628 -0.0965
14928W        W30545   7.061  14.146  15.888  0.1995  0.0665  0.0614
14929W        W30546   6.228   2.237   3.071 -0.3701 -0.0636 -0.0771
14930W        W30547  12.947   0.689  14.528  0.0086  0.2406  0.1774
14931W        W30548   4.947  15.105  15.718  0.1269  0.2637  0.0808
14932W        W30549  11.543  12.609  16.148  0.0594  0.0511 -0.0379
14933W        W30550   5.841   1.789   0.641 -0.0025  0.1456  0.0123
14934W        W30551   4.257   3.444   0.346 -0.0527  0.0942  0.2495
14935W        W30552  10.369  10.170   2.726  0.1092 -0.1182 -0.1285
14936W        W30553  13.163  13.617   5.704  0.2153  0.1447  0.2148
14937W        W30554  13.127   4.430  15.722 -0.1295  0.1831 -0.0195
14938W        W30555   2.980  14.762   1.550 -0.0390 -0.0180  0.0233
14939W        W30556  17.058  15.184   1.158  0.1090 -0.2475 -0.1443
14940W        W30557  16.404   5.470  13.258  0.2021 -0.0192 -0.3076
14941W        W30558   4.625  10.815   3.104  0.4397 -0.0338 -0.2526
14942W        W30559  10.794  13.923   3.460  0.0493 -0.2707 -0.1518
14943W        W30560   1.549  14.656   2.566  0.0442 -0.1324 -0.1050
14944W        W30561   1.515   1.275   5.269  0.0445 -0.2210  0.4222
14945W        W30562   6.617   4.187   6.050 -0.0043 -0.2800 -0.0591
14946W        W30563  10.962   3.371  15.372 -0.3793 -0.2486  0.1856
14947W        W30564  17.511   9.493   5.656 -0.1038  0.1304  0.1892
14948W        W30565  14.006   1.915  15.985  0.1655 -0.0769  0.2185
14949W        W30566   1.404  17.505   0.383  0.2044 -0.4295 -0.2826
14950W        W30567  13.329   2.395   3.798 -0.1151  0.0857  0.0442
14951W        W30568  16.368   2.433  11.681 -0.1269 -0.1273 -0.0481
14952W        W30569  15.541   0.371  15.229  0.3712  0.0455 -0.1963
14953W        W30570   8.835   2.039   3.455  0.0887  0.0946 -0.2545
14954W        W30571  15.940   7.145  12.959 -0.0602 -0.3977 -0.1599
14955W        W30572   2.413   4.098   0.469  0.1918  0.0667 -0.1736
14956W        W30573  14.341   9.381   1.859 -0.1223  0.0527  0.0964
14957W        W30574  12.119  17.226   1.951  0.0574 -0.0789  0.3093
14958W        W30575   4.974   8.094   1.929  0.0654 -0.0513  0.0220
14959W        W30576   3.601  15.503   0.289  0.2064 -0.3344  0.0363
14960W        W30577   7.469   9.071   5.246  0.2007 -0.1645  0.1643
14961W        W30578   2.062  16.532   3.845  0.0359 -0.1935  0.0817
14962W        W30579   0.413   6.146  13.688 -0.1005  0.1339 -0.2200
14963W        W30580   0.993   8.653   3.724 -0.0440  0.0632  0.2055
14964W        W30581  17.255  15.413   0.658 -0.1127 -0.0782 -0.0610
14965W        W30582  14.669  13.565  11.997 -0.4599 -0.4940  0.2055
14966W        W30583   5.705  14.268  15.706  0.1110 -0.2711 -0.0190
14967W        W30584   6.283  16.561   5.002 -0.3306  0.2311  0.1248
14968W        W30585   1.749   0.743  13.077  0.0237  0.1273  0.0595
14969W        W30586   6.394   5.145   5.665  0.1751  0.2011 -0.3565
14970W        W30587   3.429  11.950  15.371  0.1859 -0.1994  0.1341
14971W        W30588  15.520  14.011  12.252  0.1847  0.3274  0.1964
14972W        W30589   0.082  12.760  13.101  0.2645 -0.1435 -0.1977
14973W        W30590   1.020   7.938   2.951  0.0387  0.1594 -0.0689
14974W        W30591  15.163  14.766   2.889 -0.4443 -0.4613 -0.0681
14975W        W30592  13.332  12.325   5.085  0.1893  0.3366  0.2788
14976W        W30593  17.026   5.679   4.495  0.0892  0.1904  0.2367
14977W        W30594  14.928   3.682   3.403 -0.1105 -0.0642 -0.1070
14978W        W30595  15.647   1.859   1.427 -0.1737  0.2908  0.1209
14979W        W30596   9.791  14.157   1.924 -0.0732 -0.0509  0.1981
14980W        W30597  14.866   0.283   2.153 -0.3863 -0.1523 -0.3040
14981W        W30598   6.254   0.389   5.671  0.1479  0.0606  0.2433
14982W        W30599   3.405  12.819  13.090 -0.3192 -0.0706 -0.1772
14983W        W30600  10.132  13.877  15.690 -0.0290 -0.0499 -0.0312
14984W        W30601  16.856   5.764   3.492 -0.2492 -0.0053  0.0386
14985W        W30602   7.297   8.247   5.204  0.1106  0.2683  0.1199
14986W        W30603   2.809   6.967  14.990  0.0942  0.0031  0.0716
14987W        W30604   3.816  12.625  11.318 -0.1591  0.2561  0.0883
14988W        W30605  10.556   3.159   3.879  0.3003  0.0974 -0.1115
14989W        W30606   9.875   0.872  16.677  0.0116  0.0627  0.4132
14990W        W30607   2.502  17.284  12.789 -0.0978  0.4037  0.0973
14991W        W30608  14.541  16.688  14.722 -0.0916 -0.3236  0.0119
14992W        W30609  16.756  14.775  13.283  0.0619 -0.2156  0.3812
14993W        W30610  11.380  14.664   3.076 -0.0187  0.1959 -0.1665
14994W        W30611  13.687   0.072   0.013  0.0342  0.1800 -0.1420
14995W        W30612   8.184  13.210   0.259  0.0277  0.0065 -0.1379
14996W        W30613  16.872   4.348  15.153 -0.2242 -0.3198  0.2297
14997W        W30614  13.093  12.523  12.402 -0.2074 -0.0663  0.3016
14998W        W30615  10.903   3.092  12.959  0.1418 -0.1298 -0.1136
14999W        W30616   3.348   8.680   1.038 -0.0780 -0.1030 -0.0952
15000W        W30617   3.589   4.712   2.691  0.0377 -0.2202  0.1662
15001W        W30618  11.454   6.262   2.851  0.1609 -0.4721  0.0445
15002W        W30619  12.696   5.043   4.116  0.2176  0.1522  0.2805
15003W        W30620  17.260   6.541   4.965  0.0878  0.0266  0.0937
15004W        W30621   8.309   3.195   3.388 -0.0563  0.0274  0.1918
15005W        W30622  15.419   0.639   4.486  0.1396 -0.2370  0.2904
15006W        W30623  16.555   3.568   5.542 -0.0773 -0.0043  0.0363
15007W        W30624   9.857  12.264   5.818 -0.1372 -0.2728 -0.0119
15008W        W30625  13.011  15.633   2.277 -0.3397 -0.4173 -0.1209
15009W        W30626  17.246  15.996  16.383  0.1781 -0.0262 -0.0827
15010W        W30627   0.192   2.849   2.258  0.0644  0.1592 -0.1894
15011W        W30628   0.220  17.559  12.690 -0.1784 -0.2539  0.2794
15012W        W30629  10.869  15.519   3.515  0.0306  0.1308 -0.0385
15013W        W30630   9.493   8.679  16.368  0.0059  0.0389  0.3568
15014W        W30631   2.451   9.198  14.921 -0.0562  0.3170 -0.1970
15015W        W30632   2.145  15.345   0.706  0.2386 -0.0961  0.0699
15016W        W30633   0.495   3.227   2.642  0.0122 -0.1888  0.1509
15017W        W30634   6.398  10.808   3.172  0.0793 -0.1201 -0.1909
15018W        W30635  11.996  11.577   4.208 -0.0817 -0.0035 -0.3020
15019W        W30636   7.352  11.745   3.093 -0.1772  0.0192  0.2748
15020W        W30637   7.157   5.818  16.229 -0.0820  0.0488 -0.1970
15021W        W30638  13.541  16.401  12.060  0.0192  0.0959  0.2329
15022W        W30639  10.286   5.798   0.421  0.0242  0.2307  0.1260
15023W        W30640   1.538   8.657   4.017 -0.2760 -0.0555  0.1995
15024W        W30641  10.348   6.837   0.522 -0.0925  0.1497 -0.3039
15025W        W30642   4.589  13.899  13.797  0.0227  0.0556 -0.4835
15026W        W30643  12.084   8.384  14.764 -0.0330 -0.1202  0.1533
15027W        W30644   4.317   9.535   0.467  0.0344 -0.0983 -0.1716
15028W        W30645   5.091  16.431   1.010  0.2969  0.1414 -0.1456
15029W        W30646  16.920   6.757  15.070  0.0145 -0.0150  0.1173
15030W        W30647   2.363   7.187  14.969  0.1845 -0.3170  0.1073
15031W        W30648   8.774  17.103  12.121  0.0317  0.1197  0.0648
15032W        W30649   1.593  17.363  12.255  0.0722 -0.0044  0.1577
15033W        W30650   6.392   2.712   1.052  0.5006 -0.2923  0.0980
15034W        W30651  16.470  14.142   5.567 -0.1382  0.2730 -0.1850
15035W        W30652   0.599   3.908  14.718 -0.0434 -0.1050 -0.0327
15036W        W30653  13.113  10.353  12.048  0.0081  0.2226 -0.0194
15037W        W30654   4.715   2.457  15.196  0.0401 -0.2470  0.1699
15038W        W30655   3.266   5.395  12.090  0.0218  0.3261 -0.0422
15039W        W30656   1.227  11.104  15.108  0.2196  0.0022 -0.1537
15040W        W30657  13.677  16.427   1.769 -0.1892 -0.0058 -0.1637
15041W        W30658   2.386  16.592  13.797 -0.0470 -0.1223 -0.0588
15042W        W30659  15.961   0.951   2.448  0.3506  0.0093 -0.2077
15043W        W30660  12.002  16.123  14.421 -0.0594 -0.1278  0.4479
15044W        W30661   6.262   1.729  16.723  0.1424 -0.1129  0.1751
15045W        W30662   4.798   1.994   0.129 -0.0590  0.1563 -0.0758
15046W        W30663   0.541  11.110   4.504 -0.1506 -0.1876 -0.0095
15047W        W30664   6.551   5.838  10.729 -0.0569  0.3909  0.0777
15048W        W30665   7.570   8.233   1.035 -0.3724  0.1006 -0.1404
15049W        W30666   2.837   9.636   1.841  0.4222 -0.0757 -0.1336
15050W        W30667  13.704  11.554   0.979 -0.2403  0.2792  0.0452
15051W        W30668   1.800  14.271   3.253 -0.0828 -0.0638  0.1081
15052W        W30669  12.341  15.499   2.857 -0.1015 -0.2267  0.0105
15053W        W30670   6.207   6.997   1.557  0.1665 -0.2434 -0.3426
15054W        W30671  16.228  16.197  13.587 -0.1260 -0.4214 -0.0911
15055W        W30672  13.961   1.328  15.771  0.2823  0.3285  0.0564
15056W        W30673  13.129   3.646   2.085 -0.2400 -0.1862  0.1277
15057W        W30674   5.895  14.284  14.354 -0.1374  0.3536  0.2739
15058W        W30675  15.955   2.334   4.561  0.4243  0.1366 -0.0767
15059W        W30676   7.874  16.122   0.569  0.0300  0.1427  0.2293
15060W        W30677   1.517   7.496  16.063  0.2236  0.1800 -0.0758
15061W        W30678   0.569   7.330  11.895 -0.0284  0.0335  0.1465
15062W        W30679  14.750  15.748  15.717 -0.1077 -0.0853 -0.0209
15063W        W30680   9.881   7.906  13.507  0.1062  0.0750  0.1832
15064W        W30681   7.211  14.206   0.492 -0.3329 -0.2572  0.0135
15065W        W30682   0.924   2.775   0.896  0.0746  0.3335  0.3946
15066W        W30683   2.184  14.747  13.756 -0.1815  0.0763  0.0252
15067W        W30684  12.137   1.268   5.570  0.0400 -0.3235  0.0686
15068W        W30685   6.327   0.452  11.246  0.1184  0.1657 -0.0017
15069W        W30686   6.338  13.161  13.899 -0.0678 -0.2373  0.2802
15070W        W30687   4.398   9.912  11.798 -0.2462  0.3139 -0.0220
15071W        W30688   1.238   4.805  15.405 -0.1219  0.3293 -0.0497
15072W        W30689  13.406  11.145  11.971 -0.2242 -0.1282  0.1062
15073W        W30690   7.124  15.835  13.446  0.1356 -0.1246  0.1827
15074W        W30691  16.737  13.953  12.912 -0.0252 -0.4707  0.1789
15075W        W30692  14.495   0.074   1.802  0.0805  0.0756  0.2322
15076W        W30693   7.408  11.385   5.375 -0.2908 -0.1635 -0.1166
15077W        W30694  11.116   0.673   2.499  0.1861 -0.2131 -0.0824
15078W        W30695  12.990  16.640  12.072  0.0475 -0.3742 -0.1348
15079W        W30696   9.794   3.425  12.509  0.2001 -0.0673 -0.1685
15080W        W30697  17.603   9.084  14.353 -0.1954 -0.2148  0.1034
15081W        W30698   2.864   5.655   0.374  0.1976 -0.1659 -0.1577
15082W        W30699  16.134  17.648  14.730 -0.2062  0.2993 -0.2034
15083W        W30700   6.824   2.816   4.277 -0.1520  0.1268 -0.0068
15084W        W30701   3.137  14.994  16.679  0.1015  0.1453  0.1559
15085W        W30702  17.292   0.014   4.206 -0.1726  0.0079 -0.1229
15086W        W30703  11.091   5.635   0.657  0.1025  0.3890 -0.0684
15087W        W30704   7.763  10.059   5.787  0.0542 -0.1157 -0.2411
15088W        W30705   1.862   9.183   5.427 -0.0145 -0.1251  0.1216
15089W        W30706  11.088   0.992   1.680  0.1683 -0.0702 -0.0313
15090W        W30707   9.599   6.934  12.943  0.0292  0.3014 -0.1521
15091W        W30708   6.821  15.876  12.317  0.1571  0.1460  0.1905
15092W        W30709  11.215   0.173  14.908  0.2186  0.2130 -0.2733
15093W        W30710   1.236   0.700   3.628 -0.0970  0.0012  0.1392
15094W        W30711   9.399   7.914   4.842 -0.0426 -0.2524 -0.1059
15095W        W30712  15.084   2.272   5.870  0.3132 -0.3544  0.0932
15096W        W30713  10.840   3.956   4.890  0.0510  0.0093  0.0141
15097W        W30714  11.230   1.051   3.169 -0.0524  0.0008  0.2891
15098W        W30715  11.722   3.257  16.528 -0.0892 -0.2009 -0.1024
15099W        W30716   6.531   0.735  11.639 -0.1405 -0.2851 -0.0180
15100W        W30717   5.918  10.151  16.540 -0.2924  0.0067  0.2162
15101W        W30718  13.028   5.214   2.140  0.2217 -0.4011  0.0564
15102W        W30719  11.606  17.564  14.310  0.0929 -0.1229 -0.0786
15103W        W30720  16.205   9.064   2.650 -0.2068  0.1786 -0.1369
15104W        W30721  16.140   5.765  11.772  0.0612  0.0407  0.0451
15105W        W30722   6.902   4.421   5.186 -0.2116 -0.1177  0.1507
15106W        W30723  17.009   1.733   1.224 -0.2208 -0.1673 -0.1443
15107W        W30724   5.499  15.536  13.691 -0.1074  0.0468 -0.1732
15108W        W30725   1.487  17.168  11.617 -0.1801  0.0171 -0.2800
15109W        W30726   5.818   5.697  14.210  0.1121 -0.0126 -0.2412
15110W        W30727   1.870   0.761   5.827  0.0038 -0.1477 -0.0973
15111W        W30728  16.463  12.204  12.595  0.1272  0.1279 -0.0834
15112W        W30729  11.687   5.533  13.846 -0.2671  0.1403 -0.1753
15113W        W30730   2.006   6.521   4.306  0.0140  0.0192  0.1104
15114W        W30731   0.065   0.878   0.964 -0.0900 -0.0431 -0.1913
15115W        W30732   2.658  10.976  15.705  0.1115  0.2655  0.1494
15116W        W30733   3.047  12.067   4.523 -0.0262 -0.0055  0.2593
15117W        W30734   3.434   4.611   4.760 -0.0293  0.0785 -0.0063
15118W        W30735   6.065   1.970   4.808 -0.1092 -0.1897  0.2774
15119W        W30736  17.186   9.463   6.071 -0.2288 -0.3231 -0.0394
15120W        W30737   2.227   3.253   4.257  0.1573 -0.0436  0.0669
15121W        W30738  10.579   7.570   5.490  0.1631  0.1137  0.0789
15122W        W30739   6.791  12.887  12.583  0.0192  0.1404  0.1047
15123W        W30740  12.740   0.311  13.788 -0.0108  0.1442  0.0065
15124W        W30741   7.447  15.599   3.947  0.0713 -0.1795 -0.6597
15125W        W30742  16.261  15.162   5.592 -0.1372 -0.0969 -0.3117
15126W        W30743  10.367   1.700  14.009 -0.2180 -0.1298  0.1207
15127W        W30744  15.844   8.492  14.416  0.2130 -0.1961 -0.4854
15128W        W30745  15.251  13.232   4.982 -0.0587  0.2283 -0.0300
15129W        W30746   5.773  14.099   4.849 -0.2745  0.3806 -0.3443
15130W        W30747   1.241   2.647  14.046 -0.4108  0.0040 -0.0110
15131W        W30748  11.317  13.716  13.699  0.5749 -0.0414 -0.0991
15132W        W30749   1.490  13.059   4.518  0.0609 -0.1424  0.1921
15133W        W30750  11.014  13.039   0.843  0.4941 -0.1816 -0.2484
15134W        W30751  15.600  17.643   3.144  0.0921  0.5444  0.2704
15135W        W30752  11.347  15.036  12.904  0.3091 -0.3596 -0.0797
15136W        W30753   7.361  10.491  13.352 -0.3537  0.5605  0.0164
15137W        W30754   0.825  16.071   2.686 -0.4612  0.1813  0.0674
15138W        W30755   1.424   5.960  12.652 -0.3433  0.0961  0.2266
15139W        W30756   7.725  13.125  11.843 -0.1836  0.0493 -0.1834
15140W        W30757  14.412  12.425   4.394  0.0513 -0.1403  0.0059
15141W        W30758  13.095  10.818  16.665  0.0608  0.1740  0.0296
15142W        W30759  13.342  11.643  11.991  0.2244 -0.1038 -0.4631
15143W        W30760  15.827   1.918   4.804  0.1842 -0.0445 -0.0027
15144W        W30761   8.043  16.758   3.362  0.0873  0.0236  0.1025
15145W        W30762  10.743   5.944  15.317 -0.4099 -0.1366  0.1273
15146W        W30763   5.528   9.962  15.992  0.1663 -0.1603  0.1597
15147W        W30764   6.447   9.268  12.564 -0.1257 -0.3590 -0.2553
15148W        W30765  13.272   6.764   4.844 -0.3864 -0.0157  0.0094
15149W        W30766   6.328   2.741   2.887 -0.0041  0.0515 -0.0509
15150W        W30767  14.301   7.311  11.934  0.1437  0.0542 -0.3406
15151W        W30768  17.348  12.844   0.746  0.3249  0.0003 -0.3090
15152W        W30769   0.275  10.005   3.186  0.4244  0.0077  0.1064
15153W        W30770  12.248  10.092   0.108  0.2925  0.2417 -0.3776
15154W        W30771   2.396   8.510   0.413  0.0968  0.1042  0.1280
15155W        W30772  10.723  15.843   5.707  0.2476 -0.0997  0.1241
15156W        W30773   4.444  15.138   0.577  0.1136 -0.0683 -0.1290
15157W        W30774   3.123  12.431   3.067 -0.1363  0.0272  0.1089
15158W        W30775  17.392  13.616   2.477 -0.1529  0.1519 -0.2020
15159W        W30776   1.468   6.402   4.308 -0.1050 -0.3764  0.1095
15160W        W30777   4.575  14.084   3.903 -0.0331 -0.2872  0.0868
15161W        W30778   4.998  17.394   3.644  0.1259 -0.0872  0.2642
15162W        W30779   6.936   5.009   5.517 -0.0343  0.1492  0.2684
15163W        W30780   1.200   8.122   1.940 -0.2159  0.1769  0.2518
15164W        W30781   5.615  13.587  16.319 -0.0301 -0.1679  0.0035
15165W        W30782  14.330   5.509  13.464  0.2759  0.1748 -0.1331
15166W        W30783   4.150   0.806  13.335 -0.1242 -0.1744  0.3458
15167W        W30784   9.165   1.560   5.135 -0.1341 -0.0504  0.1914
15168W        W30785   1.490   0.878   3.236 -0.0201 -0.0980  0.2049
15169W        W30786   0.207   2.037   3.789  0.0477  0.1161  0.0612
15170W        W30787  17.266   7.796   5.540 -0.0283 -0.1039 -0.1196
15171W        W30788   1.045   2.311   0.258  0.1856  0.0292 -0.3305
15172W        W30789   0.369  14.665  16.643 -0.0661  0.0134 -0.0764
15173W        W30790   3.754  16.427  15.344  0.0051 -0.2940  0.2020
15174W        W30791  14.395  15.892  14.809  0.1422 -0.1073 -0.2274
15175W        W30792  12.661   4.360   5.877  0.1057 -0.1182 -0.2070
15176W        W30793   0.112  12.834  14.123 -0.0982 -0.1761 -0.1346
15177W        W30794   7.538  15.758  15.831  0.2316  0.2108 -0.0512
15178W        W30795   0.779   0.419  12.717 -0.4265 -0.2881  0.0452
15179W        W30796   7.214   7.130   3.598  0.0296  0.0723 -0.0294
15180W        W30797   6.956  17.123  11.659  0.1318  0.2659  0.1244
15181W        W30798   1.345  11.147  13.433 -0.1745  0.0876  0.2141
15182W        W30799   5.388   7.260   1.065 -0.3350  0.2406  0.2440
15183W        W30800  13.456   3.531  12.443 -0.3715 -0.1527  0.0403
15184W        W30801  12.886   8.698   3.200  0.2908 -0.1472 -0.1535
15185W        W30802   0.169   1.715   2.411 -0.0755 -0.1750 -0.0442
15186W        W30803  16.554   9.491  13.027  0.2042  0.1516 -0.0336
15187W        W30804   1.205   4.626   1.883  0.0505 -0.0320 -0.0834
15188W        W30805  14.246  14.115   3.946 -0.5337 -0.1899  0.0657
15189W        W30806  15.199   6.380   3.083  0.0016 -0.2887  0.1203
15190W        W30807   8.088   7.491  16.509 -0.0938 -0.5827  0.2589
15191W        W30808  16.971  14.688   4.471 -0.1086  0.2114 -0.1889
15192W        W30809  12.558   2.310  16.189 -0.1938 -0.1240 -0.1408
15193W        W30810   5.477  14.314   2.273 -0.1169 -0.2244 -0.1527
15194W        W30811   9.359   5.103   3.974 -0.1305  0.1290  0.0593
15195W        W30812   2.120   2.567   2.223  0.1234  0.0320 -0.0191
15196W        W30813   0.024  12.290   2.023  0.1779  0.0560 -0.0354
15197W        W30814   8.738   4.858   2.221  0.0310  0.3642 -0.0973
15198W        W30815  14.386  15.241  16.776 -0.1453  0.1669 -0.0589
15199W        W30816   2.424  16.696   2.029  0.2127  0.2702  0.0627
15200W        W30817   0.035  15.569  13.920  0.1637 -0.2362 -0.2002
15201W        W30818   1.538   9.973   4.790  0.0548 -0.0224 -0.0807
15202W        W30819  17.563   4.606  12.621 -0.1900 -0.0930  0.1106
15203W        W30820   0.374   4.251  14.443 -0.1727 -0.0140 -0.0138
15204W        W30821  14.686  11.413   4.779 -0.1524  0.2563  0.1694
15205W        W30822   0.680  15.704  11.539  0.0295 -0.1034  0.0754
15206W        W30823   2.664   9.705   4.262  0.1449  0.0532 -0.2068
15207W        W30824   7.001   5.280  12.529  0.0579  0.0220 -0.2345
15208W        W30825  15.569   1.687   3.465 -0.2612 -0.1820  0.0217
15209W        W30826   7.856  16.467   5.352 -0.0390 -0.1239 -0.2001
15210W        W30827   9.509  11.953  14.844 -0.0395 -0.2829 -0.2994
15211W        W30828  11.147   2.229   4.888 -0.0616  0.2518 -0.0705
15212W        W30829  12.901  13.220   3.860 -0.0652 -0.3536  0.0260
15213W        W30830  14.586   2.145  13.412 -0.3541 -0.2093  0.3746
15214W        W30831  11.873   6.516   0.008  0.4410 -0.0596 -0.0562
15215W        W30832   5.725  16.724   3.484  0.2684 -0.0301 -0.1913
15216W        W30833   2.912   3.805   4.389  0.0636  0.1400 -0.0600
15217W        W30834  17.850   5.352   1.881 -0.1429 -0.0964  0.1634
15218W        W30835   7.218  13.338   4.110  0.0975  0.0474  0.0530
15219W        W30836  14.836  15.523  13.809  0.2324  0.0724  0.2035
15220W        W30837   2.889  12.948   4.815  0.0349  0.2231 -0.2414
15221W        W30838   0.349  10.508  13.781  0.0665  0.0609  0.2832
15222W        W30839   0.976  10.124   0.745 -0.1095  0.3450 -0.0974
15223W        W30840   9.820  11.450   0.383  0.0256 -0.0395 -0.0293
15224W        W30841  17.618   1.089  13.045 -0.1050 -0.0237 -0.1596
15225W        W30842   0.120  14.450  13.075 -0.0118  0.1803 -0.1238
15226W        W30843   6.072   8.409  15.152  0.1894 -0.2359  0.1302
15227W        W30844   4.959   7.321   1.333 -0.1872 -0.0903  0.1232
15228W        W30845  10.041   3.132  16.520 -0.0681 -0.4728 -0.2507
15229W        W30846  10.991  14.640   1.623  0.0644 -0.2227 -0.0596
15230W        W30847   4.193  14.356   3.062  0.1521  0.1523  0.1420
15231W        W30848  12.719   4.487   2.914  0.3376 -0.0219  0.1469
15232W        W30849   3.377   0.493  16.525 -0.2045  0.0797 -0.2721
15233W        W30850  15.342   6.291  12.882 -0.3216  0.1585 -0.1799
15234W        W30851   3.662   9.087   3.070 -0.0082 -0.0813  0.1400
15235W        W30852   8.383   1.891  13.281  0.3998  0.0194 -0.1402
15236W        W30853  14.058   1.581   3.670  0.2903 -0.0696  0.0711
15237W        W30854  10.690  13.502  11.961 -0.2329 -0.0439  0.2733
15238W        W30855  13.430   2.933  15.465 -0.0922 -0.1631 -0.1382
15239W        W30856  12.313   8.658  15.146 -0.3065 -0.1475 -0.0509
15240W        W30857  15.054   9.828   2.421 -0.0402  0.1172 -0.0252
15241W        W30858  13.046   7.476  13.078  0.0057 -0.3856  0.0120
15242W        W30859   7.669  11.911  16.539  0.2929  0.0539  0.1491
15243W        W30860   8.678  13.224  16.095 -0.1602  0.1623 -0.1375
15244W        W30861   4.389   7.995   0.937 -0.0237 -0.0672 -0.0501
15245W        W30862   2.218  12.477   3.671  0.2062  0.0468  0.0242
15246W        W30863  14.162   2.975  12.357 -0.0315 -0.0277 -0.2186
15247W        W30864  13.748   5.281   3.908 -0.0848  0.0701  0.0281
15248W        W30865   5.590  16.309  15.152  0.0557 -0.1965 -0.0494
15249W        W30866  15.808   9.336   0.031 -0.0307  0.3213  0.2958
15250W        W30867  14.803   3.463  13.674  0.0360 -0.1556 -0.1010
15251W        W30868  16.452   9.665  14.579  0.0189 -0.1115 -0.1146
15252W        W30869   4.040   8.334   0.832 -0.2810  0.3731 -0.0480
15253W        W30870  12.976  14.154   0.123 -0.0640 -0.0711 -0.0222
15254W        W30871   8.825  11.471  12.372 -0.2556 -0.1390 -0.0998
15255W        W30872   2.955   6.442  12.607 -0.0655 -0.0052 -0.1299
15256W        W30873  13.692   1.554  15.138  0.2349  0.1441  0.0220
15257W        W30874   0.336   0.665  16.666 -0.2448  0.2385  0.2286
15258W        W30875  14.923   2.853  11.977 -0.2241  0.1064 -0.0419
15259W        W30876  12.759  10.769   4.697  0.1098 -0.3763  0.1061
15260W        W30877   0.890   9.048   5.894  0.0925 -0.1830 -0.3700
15261W        W30878   2.360   8.529   3.099 -0.1683 -0.0973 -0.1375
15262W        W30879   4.660  10.425   4.746  0.0647  0.1597 -0.4104
15263W        W30880  16.977   5.392  14.331 -0.1970  0.0002  0.2239
15264W        W30881   9.331  17.674  11.598 -0.1769 -0.0270 -0.1057
15265W        W30882   6.552   8.808   3.986 -0.0863 -0.1635  0.3353
15266W        W30883  17.670  13.068   0.233  0.0212 -0.2068 -0.1098
15267W        W30884  17.307   8.080  13.160 -0.1781  0.0479 -0.0743
15268W        W30885  15.915   1.276   5.467  0.0902  0.0492  0.0767
15269W        W30886   7.844   9.725   3.432  0.2835  0.2332  0.2194
15270W        W30887   6.574   2.038   4.952 -0.3009 -0.4953  0.1527
15271W        W30888   6.499   0.815   1.187 -0.1772  0.2455 -0.1453
15272W        W30889   7.453  10.184  14.425 -0.1932  0.1054  0.2706
15273W        W30890   7.184   4.768  15.990  0.0040 -0.0084 -0.3204
15274W        W30891   5.832  14.592   2.001 -0.1795 -0.0134  0.2322
15275W        W30892   2.936  16.100   0.567 -0.3019  0.0624 -0.1419
15276W        W30893   1.929  10.673  14.989  0.0808 -0.1230  0.0670
15277W        W30894   2.524   8.863   4.293 -0.0922 -0.2163  0.0946
15278W        W30895  10.135   1.349  15.461  0.1044 -0.0161  0.1148
15279W        W30896  16.171  10.074  14.341  0.0634  0.0067  0.1359
15280W        W30897  11.379  12.862  15.019 -0.0987  0.0860  0.0701
15281W        W30898   9.123   9.172   4.993  0.0702 -0.0067  0.0956
15282W        W30899  17.584  11.144   5.206 -0.1895  0.0373  0.0982
15283W        W30900  14.210  12.060   2.065 -0.2653  0.0252  0.1809
15284W        W30901  10.106   9.184   6.391 -0.3876 -0.0035 -0.3870
15285W        W30902   5.074  15.378  14.109  0.0039  0.0597  0.1374
15286W        W30903   3.794   2.189   4.697  0.0207 -0.1944  0.0781
15287W        W30904  13.022   5.753   2.296 -0.1101  0.0595  0.2098
15288W        W30905   7.955   5.463   5.769  0.2267 -0.1180 -0.1614
15289W        W30906  16.566   0.013   5.658  0.0506  0.0428 -0.3203
15290W        W30907  12.053   3.188  12.216  0.1557 -0.0617 -0.1108
15291W        W30908  17.777   5.749  11.882  0.1111 -0.2254 -0.3846
15292W        W30909   8.487   1.519   4.808  0.1892  0.2013  0.0670
15293W        W30910   5.779  11.042  12.332 -0.4323  0.1454  0.0300
15294W        W30911   1.573   5.016  13.465  0.0182 -0.0451 -0.0439
15295W        W30912  14.114   0.105   0.449  0.1068 -0.0196 -0.0824
15296W        W30913   4.463   1.092  11.680  0.0520 -0.0142  0.3592
15297W        W30914  17.170   8.917  16.437  0.0687 -0.4273 -0.3241
15298W        W30915   4.027  12.602  16.661 -0.4958 -0.2873  0.1920
15299W        W30916   3.422  16.204  10.181  0.2236  0.0856 -0.1444
15300W        W30917  11.756   2.500  15.658 -0.3505 -0.2781  0.3052
15301W        W30918  13.493   7.050   0.986  0.2980  0.0946 -0.5262
15302W        W30919  14.315   6.398  10.998 -0.0569 -0.3413 -0.1173
15303W        W30920   8.726  16.553  11.812 -0.1613  0.1442 -0.0001
15304W        W30921  10.025   6.399   4.296 -0.0930 -0.2776  0.2414
15305W        W30922   1.670   9.165   4.259  0.0865 -0.1789  0.0518
15306W        W30923  13.289   5.192   4.143 -0.0083  0.0713 -0.2783
15307W        W30924  14.671  14.379   2.255  0.0370  0.1379  0.1849
15308W        W30925  12.926  16.544   0.126 -0.0855  0.3023  0.0157
15309W        W30926   8.759  17.221  11.038 -0.1795  0.1433  0.4143
15310W        W30927   5.194   7.826  11.672 -0.1856 -0.2031 -0.2543
15311W        W30928   3.771   3.746   0.591  0.0697  0.1277  0.0493
15312W        W30929  13.124  15.403  15.616 -0.2712 -0.1282  0.0771
15313W        W30930   4.597  11.706  13.879  0.0743 -0.1554  0.0195
15314W        W30931   7.073  17.623  12.271  0.0335 -0.1279 -0.1383
15315W        W30932   6.359   0.761  15.641 -0.1792 -0.2113 -0.5152
15316W        W30933  12.584   9.145   2.736  0.1592 -0.0209 -0.3180
15317W        W30934  16.314  17.151  12.299  0.0527 -0.0681  0.1589
15318W        W30935   6.544   3.180   2.822 -0.1410  0.2353  0.0415
15319W        W30936  12.867  14.565   3.751  0.3706 -0.0856 -0.1891
15320W        W30937   5.755   7.935  13.408  0.0046  0.2195  0.0207
15321W        W30938   3.921   5.562   3.651 -0.0741  0.1994  0.2887
15322W        W30939   3.865  10.260   4.645  0.0149  0.0471  0.0413
15323W        W30940  13.145   1.543  11.434  0.1369  0.0931  0.0568
15324W        W30941  10.307   7.994  15.212 -0.1481 -0.1642 -0.0597
15325W        W30942  14.310   1.452   5.171 -0.0912 -0.0738  0.0630
15326W        W30943  14.509  11.356   3.738 -0.0463  0.1951 -0.2258
15327W        W30944   2.695  10.808  16.251 -0.0799 -0.0893  0.1941
15328W        W30945  10.303   0.022   5.580 -0.3772 -0.1868  0.0616
15329W        W30946   0.980  12.988   5.732  0.0782 -0.1011 -0.4317
15330W        W30947   4.829   4.574  13.251 -0.1806 -0.2936 -0.1319
15331W        W30948   4.137   2.065   4.021 -0.1174  0.0493 -0.0606
15332W        W30949   2.368   2.855  13.127 -0.0209 -0.0979 -0.1470
15333W        W30950  17.708   5.034  15.898 -0.1907 -0.0298 -0.0478
15334W        W30951   8.765   1.397  13.192 -0.4276 -0.0889  0.1131
15335W        W30952   6.511   3.058  11.344  0.0209 -0.2161  0.4875
15336W        W30953   7.647   3.855  15.256  0.2116  0.1318 -0.3353
15337W        W30954  15.469   6.030   5.698  0.2490  0.0563 -0.2623
15338W        W30955  11.731   5.845  12.897  0.1547 -0.1044 -0.0369
15339W        W30956  13.102  10.621   1.947 -0.0200  0.0354 -0.3472
15340W        W30957  14.468   1.492   0.797 -0.2580  0.1194 -0.0563
15341W        W30958   2.965   0.695  14.005 -0.0312  0.2007  0.3692
15342W        W30959  13.027   4.537  12.733  0.0700  0.1618 -0.0342
15343W        W30960   1.163   8.685  13.394  0.1432 -0.0057  0.1885
15344W        W30961  16.923   3.401   4.977 -0.0331  0.2075 -0.0233
15345W        W30962   8.310  10.484  11.754  0.1429  0.0476  0.3812
15346W        W30963  16.471   3.876  13.994 -0.1199 -0.0545 -0.5156
15347W        W30964  16.401   9.131  15.021  0.2405 -0.0987 -0.0596
15348W        W30965   6.395   5.462   1.170  0.3138 -0.0506  0.3937
15349W        W30966   8.492   4.543   4.030 -0.0682  0.0340  0.4166
15350W        W30967  14.883   6.616  11.764  0.0945 -0.1072 -0.0243
15351W        W30968  10.519   8.982   0.769 -0.0664  0.0319 -0.1027
15352W        W30969  11.711   9.420   0.030  0.0362  0.2742  0.2967
15353W        W30970  15.721   1.207   1.021 -0.2493  0.0105  0.0331
15354W        W30971  15.542   2.641   4.834  0.0002 -0.0316 -0.0332
15355W        W30972  17.579   1.395  16.363  0.2695 -0.1803 -0.0524
15356W        W30973  15.230  16.910  13.463  0.2821  0.2902  0.5300
15357W        W30974   9.808  17.784   3.888  0.1917  0.0156 -0.0801
15358W        W30975  17.252  14.456   0.665 -0.1204 -0.1152  0.0611
15359W        W30976   5.348  17.345   4.062 -0.2271 -0.4218  0.0512
15360W        W30977   7.649  12.694   2.800  0.3326 -0.2076 -0.0485
15361W        W30978   1.613   0.623   1.962 -0.2493 -0.0040 -0.0397
15362W        W30979  17.384   9.776  14.601  0.2930 -0.0674  0.0888
15363W        W30980   8.911   7.584  12.576  0.0201 -0.1451 -0.0036
15364W        W30981  14.064   6.938  13.892 -0.1344  0.0527 -0.4414
15365W        W30982  12.007  13.718  11.481 -0.1429  0.1845  0.1489
15366W        W30983  15.667   1.549   4.353  0.0921  0.0880  0.0650
15367W        W30984   1.685  14.648  14.911 -0.2257  0.0042 -0.0285
15368W        W30985   6.263   4.068   1.016 -0.0666  0.1322 -0.1764
15369W        W30986   7.666  11.987  14.459 -0.1458  0.2049 -0.0492
15370W        W30987  11.858  13.998   0.111 -0.3186 -0.1189 -0.3232
15371W        W30988  12.298   3.384  16.260 -0.0744 -0.0465  0.2094
15372W        W30989  10.991   2.483   3.283  0.2547 -0.1703  0.2467
15373W        W30990   6.330  16.252  14.629 -0.0892  0.1628  0.0121
15374W        W30991   1.350  13.745  15.003  0.5090 -0.1259  0.1636
15375W        W30992  13.270  15.162   4.436 -0.1800 -0.0520 -0.3147
15376W        W30993   2.454   2.881   2.868 -0.1726  0.1464 -0.0831
15377W        W30994   9.388   9.694  16.819 -0.0222 -0.2203 -0.3348
15378W        W30995   1.018   0.598  11.410 -0.1098 -0.0357  0.0003
15379W        W30996   9.235  16.368  15.635  0.0344  0.1002  0.3403
15380W        W30997   7.879   6.100   0.741  0.1731  0.0870  0.0765
15381W        W30998   4.673   4.270   2.599  0.1264 -0.0654 -0.0739
15382W        W30999  17.743   5.451   0.763 -0.1395 -0.0148  0.3374
15383W        W31000   5.408   7.177  15.296  0.0376 -0.1714  0.0756
15384W        W31001   7.462   1.082  12.672  0.0328 -0.0928 -0.2619
15385W        W31002  10.270   7.255  12.393  0.1489 -0.0999 -0.1112
15386W        W31003   8.179  13.177   4.222 -0.2908 -0.3578  0.0624
15387W        W31004  11.128   2.449  14.365 -0.1736 -0.1882  0.3926
15388W        W31005  14.939   7.422   3.381  0.1179  0.1871  0.4476
15389W        W31006  11.090  16.001   3.624  0.2519 -0.0884 -0.0599
15390W        W31007  16.850   2.765   3.822  0.1988 -0.3362 -0.2002
15391W        W31008   0.322   3.339   4.480  0.0142  0.0927 -0.0474
15392W        W31009  16.894  17.183   3.129 -0.0652  0.1516  0.0405
15393W        W31010   7.003  12.301   0.467 -0.2625 -0.1173  0.1162
15394W        W31011   2.587  17.055  11.495 -0.0718 -0.2693  0.1817
15395W        W31012  13.495   1.076  10.498 -0.1658 -0.1486 -0.2533
15396W        W31013   7.834   1.431  14.264 -0.0768  0.2908  0.0699
15397W        W31014  12.548  15.976   4.827  0.1044 -0.2057 -0.0466
15398W        W31015   4.010  13.355   1.040 -0.1255  0.1752  0.1932
15399W        W31016  16.361   1.704  15.542 -0.2679 -0.0743 -0.0371
15400W        W31017   7.806   7.257   2.715 -0.0344  0.1517 -0.0637
15401W        W31018  15.540   3.851   1.744 -0.1377  0.2294  0.2028
15402W        W31019   3.428   6.212   3.895 -0.1532 -0.0678 -0.0044
15403W        W31020   7.001   9.758  15.655  0.1454 -0.0611 -0.0860
15404W        W31021   4.005   9.338  14.276  0.2299  0.1240 -0.2575
15405W        W31022   1.344   9.815   0.896 -0.0465  0.1503 -0.1034
15406W        W31023  17.825   1.179   1.774 -0.0194 -0.0486  0.0323
15407W        W31024  17.073   5.142  12.439  0.2617  0.1452  0.1565
15408W        W31025  13.370  17.749  16.529 -0.1601  0.0442  0.0320
15409W        W31026  10.935  16.327  16.444  0.0457 -0.3987  0.1783
15410W        W31027  10.716   0.165   2.562 -0.0625  0.1950 -0.0257
15411W        W31028   7.099   6.781  16.485 -0.0319  0.0465 -0.0080
15412W        W31029  14.081   3.894  13.853 -0.1824 -0.2748  0.2810
15413W        W31030   3.466  17.045  14.730  0.1118  0.0372 -0.1895
15414W        W31031   6.198   5.877   1.396  0.2286 -0.0488  0.1204
15415W        W31032   9.353   5.792  11.966  0.0535  0.2052  0.2519
15416W        W31033  11.656  15.415   1.761  0.0696 -0.0920  0.3246
15417W        W31034  16.899  14.827   0.899  0.4173 -0.0658 -0.1589
15418W        W31035  15.073  10.377   5.225 -0.0039 -0.1369 -0.1406
15419W        W31036   5.429  10.237   1.038  0.0993 -0.0399 -0.0013
15420W        W31037   0.490   3.351  13.925 -0.0426  0.0068 -0.1352
15421W        W31038   6.178  15.153  13.131  0.1908 -0.2601 -0.0397
15422W        W31039   1.630   5.525  12.532  0.2513 -0.1783 -0.0378
15423W        W31040   1.392   0.855  12.203 -0.1034  0.2758  0.0601
15424W        W31041  14.120  17.622   0.067  0.2539 -0.2244 -0.0645
15425W        W31042   4.197  10.365  16.707 -0.1126 -0.1566 -0.2173
15426W        W31043  14.167  11.508   1.545  0.4322  0.1468  0.1291
15427W        W31044   2.518  10.680   0.824  0.1556  0.0766 -0.4018
15428W        W31045  15.427  15.108  16.608  0.2033  0.1381 -0.0686
15429W        W31046   7.120   3.832  16.084 -0.0382 -0.1447  0.2280
15430W        W31047   3.245   7.935   4.034  0.0594 -0.1097 -0.0334
15431W        W31048   5.900   7.565   2.282 -0.2402 -0.1936 -0.0703
15432W        W31049   2.150   3.767   0.981  0.0341  0.2626  0.2432
15433W        W31050  13.736  15.411  11.451 -0.0081 -0.0967 -0.0016
15434W        W31051  12.046   1.398  11.316 -0.0483  0.1978  0.3141
15435W        W31052   1.477   8.700   2.765  0.0516 -0.0092 -0.2357
15436W        W31053   7.191   8.715   5.040  0.2551  0.1907  0.1068
15437W        W31054  13.163   4.691   4.862  0.0516 -0.1323  0.0534
15438W        W31055  11.785   3.914  11.591 -0.1127  0.4111  0.3196
15439W        W31056   1.019   0.313   3.381 -0.0096 -0.1730  0.2784
15440W        W31057  17.005   5.210   3.161  0.1704 -0.1525  0.1142
15441W        W31058  10.957   8.914  14.862  0.0266  0.1202 -0.3850
15442W        W31059   8.260   0.095  11.491 -0.0303 -0.0884 -0.0933
15443W        W31060  14.200  13.365  12.400  0.0806 -0.1336 -0.1929
15444W        W31061   2.746  15.206   2.252 -0.1214  0.1006 -0.3055
15445W        W31062   2.162   2.117   3.864  0.0062 -0.1483 -0.0413
15446W        W31063  13.388   8.766   3.073 -0.1754  0.2138 -0.3976
15447W        W31064  15.946  11.175  11.556  0.1487 -0.3387  0.2773
15448W        W31065   8.790   3.391   2.543 -0.1205 -0.0549 -0.0672
15449W        W31066   9.175   4.828   3.099 -0.1153  0.1102 -0.1782
15450W        W31067   5.058   5.352  10.398 -0.0118 -0.1552 -0.0856
15451W        W31068  17.669  16.599  12.881 -0.1293 -0.2801  0.0310
15452W        W31069   7.579   4.640   0.829  0.1048  0.0757 -0.0045
15453W        W31070   9.910  12.158  14.669  0.0145 -0.0411  0.0007
15454W        W31071   0.397  15.200   4.162 -0.0169 -0.0919 -0.1536
15455W        W31072  15.419   1.657  16.151  0.0908 -0.0015 -0.2104
15456W        W31073  11.340   8.980  13.009 -0.2039 -0.2723  0.4067
15457W        W31074  15.335   5.313   1.135  0.3054 -0.1164  0.0723
15458W        W31075   9.242  10.815   5.465  0.0909 -0.2430 -0.3087
15459W        W31076  12.427   4.266   4.121 -0.4647 -0.0999 -0.1818
15460W        W31077  12.486  15.098  14.012  0.1542 -0.0619 -0.4119
15461W        W31078   1.060   4.976   2.605  0.0121 -0.0561 -0.1784
15462W        W31079   6.068   7.025   5.164  0.0715  0.1677 -0.1728
15463W        W31080  13.351  12.106  11.679 -0.1874  0.0410 -0.1201
15464W        W31081   5.895   7.855   3.960  0.1418 -0.0512  0.2843
15465W        W31082   5.172   7.775  12.181  0.0344  0.1550  0.0060
15466W        W31083  10.468   0.944   3.189 -0.0678  0.2844 -0.0260
15467W        W31084  10.741  15.292  12.311  0.0273 -0.0159  0.0954
15468W        W31085   2.226  16.751   1.493 -0.3828  0.0870  0.0501
15469W        W31086   2.060   7.983   3.108 -0.0365 -0.1634 -0.5649
15470W        W31087  17.781   7.156   2.617  0.3553 -0.0079 -0.2486
15471W        W31088  16.439   9.721  15.103 -0.4033  0.2275  0.1868
15472W        W31089  14.951  11.644   2.069  0.3242 -0.0388  0.0317
15473W        W31090   9.760  14.814   4.308  0.1793 -0.0816  0.2341
15474W        W31091   5.274   7.870  16.083  0.1575 -0.0296 -0.1541
15475W        W31092  10.188   9.629  13.895 -0.0920 -0.0769  0.0837
15476W        W31093   0.978   3.903  14.296 -0.2047 -0.1899  0.4281
15477W        W31094   3.698  15.728   1.282 -0.1138  0.1889  0.0505
15478W        W31095   3.145  11.731   2.157 -0.0271  0.2586  0.1095
15479W        W31096   6.787   1.034  15.747 -0.0788  0.2074  0.0142
15480W        W31097   3.709  17.128   3.238 -0.1363  0.2528 -0.0807
15481W        W31098  15.498  11.038  15.767  0.0572  0.3712 -0.0551
15482W        W31099   1.786  11.054  16.790 -0.0058 -0.1933  0.0262
15483W        W31100  12.216   8.801  11.224  0.2522  0.0446 -0.0650
15484W        W31101   0.326   4.223   3.478  0.0013  0.1241  0.0295
15485W        W31102   9.596  15.857   3.818  0.1961  0.3385  0.0488
15486W        W31103  16.713  14.385   3.661  0.2195 -0.2035  0.1423
15487W        W31104   9.957   5.246  11.946 -0.2104  0.1501 -0.1573
15488W        W31105  11.920  16.391   3.424 -0.1469 -0.0252 -0.2260
15489W        W31106   3.107  13.962  14.456  0.0119 -0.0325  0.0135
15490W        W31107   4.713   2.019  14.791  0.1615 -0.3992 -0.2272
15491W        W31108   0.963  12.783   3.977  0.0026 -0.1154 -0.0086
15492W        W31109   2.346  10.824  16.569 -0.1504  0.1478  0.2017
15493W        W31110  10.443  12.430  16.196 -0.1328 -0.0210 -0.0112
15494W        W31111  13.310  16.760  12.600 -0.5811 -0.2760 -0.0209
15495W        W31112   0.291   5.855   2.112 -0.4240  0.0530 -0.1145
15496W        W31113   2.231   9.394   4.307 -0.0537 -0.1289 -0.2111
15497W        W31114   9.931   5.870   1.758 -0.2260  0.2608 -0.1098
15498W        W31115   1.947  17.403   3.923  0.0140  0.0774 -0.1129
15499W        W31116   8.965   2.007  11.519  0.1418  0.3928 -0.0055
15500W        W31117  13.825   1.017  16.151 -0.1462 -0.0263  0.0750
15501W        W31118  13.184  13.402  16.240  0.1787 -0.3082 -0.1713
15502W        W31119   9.808  16.215  14.712  0.0858 -0.2007 -0.2397
15503W        W31120  10.448   0.909   2.735 -0.0379 -0.0395 -0.0208
15504W        W31121   8.837   7.803  16.273  0.0971 -0.2241  0.1719
15505W        W31122  13.643  14.472   3.340  0.0402 -0.1459  0.4477
15506W        W31123  16.814   7.818  12.134 -0.1772  0.3364 -0.3285
15507W        W31124   6.012  15.495   3.919 -0.1053 -0.0223  0.1875
15508W        W31125  16.806  12.943   1.957 -0.0870  0.3698  0.1054
15509W        W31126  13.427  17.567   3.431  0.0316  0.0829 -0.0299
15510W        W31127   9.169   4.780  12.229  0.0837  0.1832  0.3714
15511W        W31128   4.493   2.518  16.128 -0.0689 -0.4011  0.2656
15512W        W31129   6.005  13.579   4.840 -0.1444  0.1148 -0.2750
15513W        W31130   5.019   2.104  12.077 -0.1434 -0.0590  0.1127
15514W        W31131  10.503   9.979   4.878 -0.1516  0.0206 -0.2896
15515W        W31132   1.287  12.079   2.802 -0.0381 -0.2611 -0.1058
15516W        W31133  11.286   0.902  12.675  0.1986 -0.0552  0.3604
15517W        W31134  17.531  10.359  14.448 -0.0767  0.2915 -0.2034
15518W        W31135  12.596  17.412   4.566  0.3381 -0.1438  0.0289
15519W        W31136   0.848  11.283  13.678  0.2333  0.0116 -0.2015
15520W        W31137   1.728  17.345   4.559 -0.2258 -0.0817 -0.0442
15521W        W31138  10.637   8.122   4.598 -0.1007 -0.0275  0.0326
15522W        W31139   6.688  14.539   2.257 -0.0055 -0.4257 -0.1171
15523W        W31140   1.191   8.947  14.278 -0.3075  0.2449 -0.2221
15524W        W31141  12.790   5.095   1.678 -0.0786  0.0208  0.0422
15525W        W31142   5.918   1.440   1.578 -0.1554 -0.0066 -0.0212
15526W        W31143   4.906  11.849  14.325 -0.0735  0.2289  0.1256
15527W        W31144   2.395   7.418  11.286 -0.1020  0.1228 -0.1331
15528W        W31145   4.641  14.871   1.770  0.1911  0.1241  0.2383
15529W        W31146  16.195   1.702   5.595 -0.0533  0.0816 -0.1041
15530W        W31147   3.563  12.840   4.663 -0.4128  0.0722  0.3189
15531W        W31148   4.796   2.414   5.315 -0.0566  0.0205  0.0238
15532W        W31149   8.409  10.735  15.693 -0.0884  0.2966 -0.2087
15533W        W31150  12.223  16.975  11.524 -0.0594 -0.1037 -0.0767
15534W        W31151  13.106   3.902   5.156 -0.0869  0.1420 -0.1755
15535W        W31152  12.949   3.689  11.926 -0.0661  0.1583 -0.4975
15536W        W31153  11.455  15.535   1.300  0.0052 -0.0424  0.3596
15537W        W31154   7.279  13.922  11.848 -0.4931  0.0028  0.1589
15538W        W31155   2.026   0.627   3.484  0.1611  0.4019  0.0653
15539W        W31156  15.971  13.968  16.156 -0.0146 -0.0196 -0.0056
15540W        W31157   8.444   0.535   1.997  0.2325 -0.0665 -0.0894
15541W        W31158   5.570   1.307   1.147 -0.2699 -0.1868 -0.2202
15542W        W31159  14.339  10.344   1.773 -0.1210 -0.0653  0.0533
15543W        W31160   9.248   1.657  10.214  0.0269  0.1687 -0.1271
15544W        W31161  10.841   1.303  11.561 -0.2177  0.0453 -0.1390
15545W        W31162  16.489   8.694   2.839 -0.2353 -0.3329 -0.1298
15546W        W31163  10.477  12.291  10.787 -0.1995 -0.0984  0.1787
15547W        W31164  14.760   3.547   5.645 -0.2144  0.1085 -0.1979
15548W        W31165   7.304  15.547  15.275 -0.0605 -0.0300  0.1950
15549W        W31166   3.034  11.912  11.734  0.0912  0.0904  0.1768
15550W        W31167  14.320  15.423  15.047  0.2739  0.1036 -0.0943
15551W        W31168   3.281   7.477   4.927  0.0594 -0.0690  0.1182
15552W        W31169  10.955   3.554   3.673  0.2173 -0.1056 -0.0429
15553W        W31170  17.136   8.436   3.166  0.0643 -0.1716  0.0543
15554W        W31171  11.252  11.896   2.063 -0.2469  0.0024 -0.0410
15555W        W31172   0.510  15.319  16.651  0.1603 -0.2434  0.1434
15556W        W31173  14.713  13.752  14.904  0.0003 -0.0598 -0.1659
15557W        W31174  14.473  15.325  16.102 -0.2203  0.1192 -0.0873
15558W        W31175   9.448  17.106  15.864  0.2165  0.0493  0.0744
15559W        W31176  13.764  13.601  13.885 -0.0686  0.1509  0.1014
15560W        W31177   9.366   0.671  12.133  0.0388  0.1711 -0.1748
15561W        W31178  10.556   1.447  16.821  0.0000  0.2724 -0.0694
15562W        W31179  12.237  17.455  12.647 -0.0742 -0.4229 -0.4075
15563W        W31180   3.550  13.693  16.092  0.1169 -0.1742 -0.0480
15564W        W31181   3.265  16.916   2.517 -0.2802 -0.1218 -0.1011
15565W        W31182  14.154   8.076   0.555  0.0318  0.0310 -0.0111
15566W        W31183   2.338  12.725   4.679 -0.2016  0.3230 -0.1878
15567W        W31184  15.617   7.668   5.163 -0.2541 -0.2804  0.3834
15568W        W31185   8.376  14.823   0.833  0.0703 -0.1420  0.4249
15569W        W31186   5.781   0.477   0.589  0.1622 -0.0150 -0.4178
15570W        W31187  15.504  11.445   2.894  0.2050 -0.3331 -0.2159
15571W        W31188   0.698   9.537  14.978 -0.1093 -0.1200  0.0613
15572W        W31189   6.141   4.133   4.827  0.0448  0.0542 -0.3790
15573W        W31190  14.569   2.418   5.134 -0.1611  0.0321  0.1162
15574W        W31191  11.444   4.191  13.560 -0.2416  0.4719 -0.2632
15575W        W31192  11.940   5.388   2.782  0.0825 -0.0232  0.1122
15576W        W31193  16.471  12.647  15.441  0.4513  0.0522  0.2157
15577W        W31194  11.879   9.814  11.945  0.0206 -0.1960 -0.0220
15578W        W31195   1.429  10.006   0.455 -0.1007  0.4560  0.0610
15579W        W31196  12.195  15.406  16.175  0.3972 -0.1201  0.0640
15580W        W31197  13.081   9.083   4.699  0.0280 -0.1861 -0.1219
15581W        W31198  12.957   3.555   5.979  0.1149  0.2228 -0.0080
15582W        W31199   8.923  12.082   5.880 -0.1577 -0.3023  0.1402
15583W        W31200  16.024   9.142   5.399 -0.0609 -0.0526 -0.3052
15584W        W31201   6.310   7.741  15.809  0.0249 -0.1066  0.1268
15585W        W31202   0.819   8.721   6.257  0.1382  0.0472 -0.0531
15586W        W31203  17.636  15.164  14.607  0.3188  0.2853  0.0309
15587W        W31204   6.490  13.368  16.455 -0.1977 -0.0806  0.1468
15588W        W31205   5.532   6.866  11.816 -0.0779  0.1740 -0.3748
15589W        W31206  13.965   1.435   3.177 -0.1291  0.1769 -0.0332
15590W        W31207   7.270   4.586  14.508 -0.1677 -0.1845 -0.4685
15591W        W31208   5.209  11.790  12.398  0.0996 -0.0700 -0.0056
15592W        W31209   5.624   6.187   0.422 -0.1122 -0.2041  0.2771
15593W        W31210   6.312   9.742  12.759 -0.2538  0.4964 -0.1135
15594W        W31211  11.883  16.550  13.496 -0.1518  0.2020 -0.3698
15595W        W31212   1.116   0.067  11.787 -0.0985  0.2147 -0.0544
15596W        W31213   3.974   6.704  13.498  0.0407  0.0850 -0.0402
15597W        W31214   6.497   4.198  15.930 -0.0244  0.0464  0.0630
15598W        W31215   4.934  16.050  14.197 -0.2827  0.0203 -0.0085
15599W        W31216  14.410   1.861   4.638 -0.0998 -0.3581  0.1776
15600W        W31217   7.501   1.872  13.497  0.0766 -0.0599 -0.2318
15601W        W31218   5.370   7.880   1.722 -0.0105  0.0443 -0.1659
15602W        W31219   8.604   5.080  14.958 -0.0770 -0.0924 -0.1735
15603W        W31220  10.255  14.070  13.165  0.0161  0.1376  0.2065
15604W        W31221  15.934   0.117  12.690  0.2895  0.1924  0.0736
15605W        W31222   7.604  16.918   0.466 -0.0904  0.0841  0.1777
15606W        W31223  13.008  10.561  16.147 -0.0707 -0.2576  0.0234
15607W        W31224  13.649  17.549  13.924 -0.2297  0.1725  0.1375
15608W        W31225  10.928   9.176  14.432  0.1600  0.0648  0.1415
15609W        W31226  10.033   4.227   1.145 -0.5124 -0.3815  0.4870
15610W        W31227  12.029   1.188  12.279  0.0105  0.4654 -0.0477
15611W        W31228  10.537   3.972   0.718  0.2567  0.1037 -0.1312
15612W        W31229  11.390  15.284   5.607 -0.0182 -0.0937  0.0430
15613W        W31230   8.878   8.325   5.471 -0.0197 -0.1526  0.0604
15614W        W31231  13.781  12.549   0.278  0.1687 -0.2696  0.2309
15615W        W31232   5.528   8.878   5.233 -0.1963  0.1092  0.1974
15616W        W31233  13.096  16.087  11.757 -0.1523  0.1121 -0.0183
15617W        W31234  16.245  16.532   3.734 -0.0116 -0.0143 -0.2643
15618W        W31235   4.728   8.472  12.374 -0.3458  0.1047  0.0307
15619W        W31236  13.100  10.305   3.610 -0.2364  0.1260 -0.0344
15620W        W31237  11.566  15.665   2.450  0.1172 -0.0433  0.1906
15621W        W31238  13.915  16.972   3.466  0.1706  0.0796 -0.0810
15622W        W31239  10.479   0.446   3.855  0.0822  0.3586  0.1635
15623W        W31240   4.679  11.021   3.575  0.0287  0.0714 -0.0368
15624W        W31241  12.797  15.412   5.146  0.0488 -0.1709 -0.0365
15625W        W31242   9.872   4.038  12.560  0.1260  0.1082 -0.0389
15626W        W31243  16.559   6.277   4.982 -0.0337  0.0772  0.1935
15627W        W31244  16.746  15.013   5.374  0.0138 -0.1311  0.2086
15628W        W31245   8.325   8.296   0.436 -0.0283 -0.3592 -0.0877
15629W        W31246   0.157   3.818   2.074  0.0634  0.0208 -0.0566
15630W        W31247  15.729   2.120   0.635  0.0502 -0.3288 -0.0083
15631W        W31248  12.030   4.571  16.641 -0.2203 -0.0241 -0.1580
15632W        W31249   2.144   8.050   5.032  0.1830  0.1296  0.0426
15633W        W31250   1.601   3.305   6.159 -0.2208 -0.1577  0.1199
15634W        W31251   6.753   8.927  15.079 -0.0429  0.1421 -0.3062
15635W        W31252  12.573  17.718  11.789  0.0571 -0.1036 -0.3172
15636W        W31253   1.975   6.446   2.197  0.4134 -0.1626  0.0556
15637W        W31254  13.802   5.509  16.283 -0.2816  0.0027 -0.0352
15638W        W31255  11.238   9.972  14.009  0.3174 -0.1977  0.1019
15639W        W31256  10.959   4.706   0.535 -0.1729 -0.0310 -0.0034
15640W        W31257   1.790  13.259  15.957  0.0218  0.4115 -0.0124
15641W        W31258  12.643  13.490  12.757  0.1147  0.0573  0.1342
15642W        W31259   3.242   6.549  16.804 -0.1519  0.0495 -0.3181
15643W        W31260   8.410   8.073  13.961 -0.0018 -0.1631  0.1485
15644W        W31261  15.342   9.425   3.368  0.0224  0.3248 -0.0273
15645W        W31262  17.686   5.194   6.150 -0.0272 -0.0114 -0.2910
15646W        W31263   7.868   0.486   5.680 -0.3922 -0.1514 -0.1071
15647W        W31264   6.893   7.329   3.220  0.1239  0.1849 -0.1748
15648W        W31265   4.563  13.677   5.161 -0.1899  0.0511  0.1369
15649W        W31266   5.240   2.449  13.949  0.1998 -0.0946 -0.0628
15650W        W31267  13.564  11.406  16.749 -0.0124  0.1685 -0.0970
15651W        W31268  13.272   1.888   3.363 -0.1064  0.0164  0.1010
15652W        W31269   4.353   0.061   5.263 -0.4442  0.1316 -0.0244
15653W        W31270   7.140  11.924  11.997  0.3467  0.2149 -0.0521
15654W        W31271   2.096   0.788  13.961 -0.0611  0.1265 -0.0184
15655W        W31272  15.297   8.313   1.243 -0.0343  0.2587  0.0187
15656W        W31273   9.331  13.085  11.035 -0.0992  0.0236  0.0921
15657W        W31274   6.445   3.439   1.771 -0.0853 -0.1193  0.0935
15658W        W31275   9.284   3.341   5.277 -0.4180  0.1556  0.4092
15659W        W31276   3.931  15.173   2.938 -0.1705 -0.5138 -0.0350
15660W        W31277  11.514   2.234   1.196  0.0740  0.1952 -0.0132
15661W        W31278   4.690   5.074  14.925 -0.1262 -0.1556  0.0978
15662W        W31279  13.163   3.791   3.085 -0.2183  0.1930 -0.0953
15663W        W31280  17.869   3.647  15.171  0.0474 -0.0977 -0.2603
15664W        W31281  15.301   3.687  15.902 -0.0588  0.1485 -0.1808
15665W        W31282  11.966  16.736  11.910  0.0766  0.0287 -0.0237
15666W        W31283   0.135   0.720   3.777 -0.0309  0.0863 -0.0895
15667W        W31284   3.009   6.754   3.129 -0.3448 -0.0559 -0.3227
15668W        W31285  16.772  13.366  16.348 -0.0889  0.0389  0.3158
15669W        W31286  10.470  12.513  12.516 -0.0001 -0.0681 -0.0773
15670W        W31287  11.649   6.312  11.960 -0.0389  0.2413 -0.1252
15671W        W31288   8.781   8.839  13.279  0.6093  0.4575  0.0517
15672W        W31289   8.149  14.389   5.136  0.1772  0.0160  0.0051
15673W        W31290   6.429   6.197   1.703  0.3496  0.0294 -0.0142
15674W        W31291  17.361  17.394  16.334  0.1738  0.0608 -0.1942
15675W        W31292  15.818  12.654   4.184  0.1979 -0.0145 -0.0089
15676W        W31293   0.807   1.588   5.458 -0.1732 -0.1275 -0.3612
15677W        W31294   7.481  17.034   0.973  0.0952 -0.0090 -0.0567
15678W        W31295  15.197   8.889  12.853  0.1143  0.0489 -0.0424
15679W        W31296   7.380   6.384  15.115  0.0249  0.2324 -0.3759
15680W        W31297   9.837  11.228   4.839  0.1291 -0.2346 -0.3278
15681W        W31298   4.341   8.124  12.006  0.0660 -0.0989  0.1018
15682W        W31299   6.640  16.910  15.184  0.0551 -0.0471  0.2163
15683W        W31300  16.658   7.282  12.094  0.2181  0.1893  0.0024
15684W        W31301   0.058   5.532  16.064 -0.1120 -0.3666 -0.3471
15685W        W31302   5.405   7.569   0.339  0.0215 -0.2313  0.0110
15686W        W31303   3.656   1.112   3.574  0.1461  0.2751 -0.0835
15687W        W31304   1.504  10.105  12.106 -0.1358  0.0945 -0.2207
15688W        W31305  10.107  12.180  12.615  0.3701  0.1725  0.0505
15689W        W31306  16.863   3.654  16.503  0.1259 -0.1955 -0.1175
15690W        W31307   6.837   2.184   1.584  0.1101 -0.1145 -0.1222
15691W        W31308   3.236   5.118   2.461 -0.0842 -0.3249  0.2044
15692W        W31309  17.655   3.104  12.674 -0.1413 -0.1237  0.0182
15693W        W31310  16.810  13.118  14.424  0.0273 -0.2867  0.0929
15694W        W31311   1.120  16.459  15.357 -0.3572 -0.0643 -0.0553
15695W        W31312   2.941   9.016   1.164 -0.4132 -0.1244  0.0464
15696W        W31313  13.390   1.992  15.015  0.0504  0.2524  0.0241
15697W        W31314   6.417  10.417   4.706  0.4475 -0.0691 -0.0200
15698W        W31315   6.755   5.765  14.349  0.0430 -0.3259 -0.2436
15699W        W31316  15.697  15.363   0.439 -0.0058  0.0527  0.2679
15700W        W31317  14.014   6.973  12.628 -0.2435  0.1607  0.2170
15701W        W31318   8.475   5.913  14.576  0.0786 -0.1901 -0.0213
15702W        W31319   9.186  11.777  12.168 -0.0270 -0.4207  0.2560
15703W        W31320   4.236  12.182  12.125  0.0412 -0.4828  0.1359
15704W        W31321  10.445  16.018   1.968  0.0153 -0.0105 -0.0603
15705W        W31322   6.035  17.368  16.701 -0.0261 -0.2451 -0.0099
15706W        W31323   3.775  15.329  15.328 -0.0345 -0.0483 -0.2794
15707W        W31324  12.196  13.656   1.537 -0.0913  0.0227  0.1749
15708W        W31325  11.665  10.630  15.080 -0.0514 -0.1484  0.0146
15709W        W31326   5.132  16.771   2.096 -0.1489  0.0605  0.0699
15710W        W31327   9.024   1.619   3.941 -0.1866 -0.4106 -0.1612
15711W        W31328  11.041  12.030   4.140 -0.0239 -0.4139  0.1613
15712W        W31329   3.242  16.344  13.894  0.1253 -0.0646  0.0367
15713W        W31330  12.595   5.660   3.108 -0.0320  0.1817 -0.1184
15714W        W31331   6.381  14.249   3.104  0.0705  0.0023  0.2974
15715W        W31332   9.980  14.187  16.114  0.0680  0.0469  0.0349
15716W        W31333   4.063   0.799  15.423 -0.0485  0.1045 -0.0609
15717W        W31334  10.345  15.642   4.748  0.2730  0.0138 -0.4529
15718W        W31335  16.889  10.225   5.652  0.0658  0.1511  0.4417
15719W        W31336  11.714  15.376  11.450  0.1595  0.1015 -0.1527
15720W        W31337  12.686   7.737  15.940 -0.0227  0.5052  0.3348
15721W        W31338   6.547   2.325   5.581  0.3084  0.0532  0.2760
15722W        W31339  17.143  13.482  13.161  0.2284  0.0824  0.3678
15723W        W31340   1.430   6.379  16.764  0.1461 -0.0560  0.1142
15724W        W31341   1.401  10.902   0.277  0.1096  0.2812  0.1650
15725W        W31342   5.356   8.617   3.355  0.1474 -0.4189  0.1455
15726W        W31343  16.386  12.267  16.245 -0.6267  0.2600  0.0643
15727W        W31344  11.479   3.111  12.203  0.2802  0.3710 -0.1276
15728W        W31345  10.805  14.932  11.523 -0.1679  0.1305  0.1869
15729W        W31346  15.831  14.474  12.448  0.1326 -0.2467  0.0372
15730W        W31347  14.670   6.714  15.690 -0.0932 -0.1985  0.2472
15731W        W31348   9.391   1.344   3.686  0.0354 -0.1628  0.2249
15732W        W31349  12.917  15.999   0.139  0.1461 -0.4102  0.0792
15733W        W31350  10.453   4.214   2.079  0.1083 -0.1251 -0.2621
15734W        W31351  10.682  17.371   1.785  0.0013 -0.2766 -0.1162
15735W        W31352   9.465  13.584   4.095 -0.1824 -0.2883  0.5187
15736W        W31353   5.491   6.737  12.529 -0.1371 -0.1953 -0.0206
15737W        W31354   2.711  12.261  12.786  0.0181 -0.0259  0.0498
15738W        W31355  11.024   7.286   5.462 -0.3291 -0.1760  0.0560
15739W        W31356   6.533  14.078   2.324 -0.0040  0.5949 -0.2241
15740W        W31357   0.985   7.074   3.254 -0.3783  0.1045  0.1261
15741W        W31358  13.710  16.083   5.576 -0.0956  0.1059  0.1793
15742W        W31359  10.405   0.416   6.181 -0.1349  0.2561  0.0039
15743W        W31360  13.906  14.120   1.522  0.1740 -0.1021  0.3910
15744W        W31361   1.125   9.009   4.090 -0.0618 -0.1062 -0.1113
15745W        W31362   5.752   1.834   2.027 -0.1205  0.1680 -0.1057
15746W        W31363  13.851   9.142  12.546  0.0075 -0.0744 -0.2552
15747W        W31364   6.220  15.005  15.381  0.1416  0.1917 -0.1249
15748W        W31365  17.164  10.516  11.682 -0.0659 -0.0268  0.1718
15749W        W31366  13.555   2.863   3.185  0.1650  0.1943  0.0269
15750W        W31367  12.811  15.638  15.971 -0.2208  0.0165 -0.0879
15751W        W31368   3.675   6.775   1.155  0.2239  0.1893  0.0958
15752W        W31369   5.867  15.332  16.747  0.0441 -0.1680  0.1544
15753W        W31370   4.117  12.538  14.266 -0.0641 -0.1074 -0.1572
15754W        W31371  14.415   3.615   2.405  0.0926  0.1292  0.0347
15755W        W31372   4.315  16.016   5.783  0.0250 -0.0889 -0.0769
15756W        W31373  14.841   1.144   4.516 -0.2281  0.2363  0.3271
15757W        W31374  17.704  10.723   1.646 -0.1028  0.0906 -0.3223
15758W        W31375  10.385   9.519  12.564  0.0234  0.1429  0.1856
15759W        W31376  17.260  15.494   2.048 -0.2512 -0.0485  0.2236
15760W        W31377  13.673  11.881  16.577 -0.0069 -0.0339  0.0206
15761W        W31378   2.330   0.974   0.569 -0.2838  0.3516 -0.1904
15762W        W31379  13.012   4.878  13.318 -0.0438  0.0797 -0.0519
15763W        W31380  17.735  16.112  13.020  0.0866 -0.0472 -0.1421
15764W        W31381  16.001  13.109  15.077 -0.0281  0.0364  0.2045
15765W        W31382  10.373   0.580  15.200 -0.1674  0.0129 -0.2285
15766W        W31383   0.318  14.657  15.094  0.1439  0.3440 -0.2151
15767W        W31384   8.037   4.846  13.937  0.1229  0.2726  0.2545
15768W        W31385   8.670   5.679   4.080 -0.0696  0.1503  0.0084
15769W        W31386  12.949   9.134   2.342  0.2896 -0.1210  0.0755
15770W        W31387  11.568   4.323   1.671  0.0595  0.3359  0.0331
15771W        W31388   7.578  12.471   4.806 -0.0934  0.2533 -0.2769
15772W        W31389  17.189  10.785   4.400  0.0147 -0.3735 -0.0985
15773W        W31390  15.667  16.720  11.753 -0.3573 -0.0188  0.1050
15774W        W31391   4.357   9.062  14.017  0.0030  0.1063  0.3055
15775W        W31392   7.358  15.644  13.013  0.1257 -0.3324 -0.3252
15776W        W31393   5.295   0.938  15.169 -0.1989  0.0308  0.0598
15777W        W31394  15.755  17.303   4.320 -0.2119 -0.1750  0.2054
15778W        W31395  11.653   1.791  16.333 -0.1190  0.1840  0.1515
15779W        W31396  16.941  13.695   0.289  0.1981 -0.0057 -0.0585
15780W        W31397   0.366  15.092   1.916  0.1922 -0.1034 -0.0458
15781W        W31398   0.040   7.409  14.915 -0.0066 -0.0850  0.3136
15782W        W31399   7.564   9.952   1.280 -0.2409  0.5000  0.2171
15783W        W31400  14.989   5.966   0.353 -0.2128 -0.4227 -0.0776
15784W        W31401   6.671  17.214   4.095  0.3309 -0.0470 -0.1185
15785W        W31402  13.345   8.437  15.324 -0.3565  0.1569 -0.2330
15786W        W31403   5.607   2.125   4.904 -0.0319  0.0748  0.2674
15787W        W31404   4.644   1.217  14.043  0.0030  0.3646  0.3078
15788W        W31405  16.004   7.535  14.710  0.2157 -0.0684  0.1736
15789W        W31406   5.991  10.503   3.358 -0.2734  0.0735 -0.1480
15790W        W31407  11.549   3.310  16.058  0.0067  0.0952 -0.1159
15791W        W31408   1.267   1.741   1.634 -0.3444 -0.1411  0.0615
15792W        W31409   5.340   9.835   1.390  0.4671  0.3172  0.2856
15793W        W31410   4.129   0.530   5.325 -0.0233  0.0776 -0.1762
15794W        W31411   6.736   7.790   2.351 -0.0147  0.1462 -0.2604
15795W        W31412  12.172   3.660  16.677 -0.2013 -0.2960  0.0507
15796W        W31413   7.288   5.475  14.178 -0.0833 -0.2114 -0.0967
15797W        W31414   3.011   9.757   3.292  0.2081 -0.3469 -0.0353
15798W        W31415   3.214   4.517  11.640 -0.1901 -0.2033 -0.2749
15799W        W31416  11.252  16.643  11.186  0.0570 -0.2908  0.0859
15800W        W31417  15.757  10.791   3.738  0.1242  0.6255 -0.0224
15801W        W31418  11.354   5.245   5.133  0.2063  0.1568  0.0055
15802W        W31419  14.795  14.557   4.320 -0.0127  0.1100  0.1657
15803W        W31420  12.913  17.592  13.159  0.2766 -0.1881 -0.0959
15804W        W31421  12.792   8.602   1.519 -0.2080  0.1790 -0.0099
15805W        W31422   9.677  13.487  12.919 -0.0693  0.2586 -0.0064
15806W        W31423  16.933   2.427   2.975  0.0224 -0.2273  0.3006
15807W        W31424   7.623   2.108   3.097  0.2041 -0.1978 -0.2989
15808W        W31425  12.820   8.444   3.635 -0.1773  0.3226  0.3691
15809W        W31426   1.151   7.247  15.852  0.1093  0.1121 -0.1795
15810W        W31427   6.712  11.972   6.282 -0.0778 -0.3272  0.0808
15811W        W31428  12.813  16.859  12.685 -0.0814  0.0613  0.0763
15812W        W31429   3.958  14.615  13.834 -0.0639 -0.0411 -0.0913
15813W        W31430  10.140   7.958   6.243 -0.0393  0.2412 -0.2112
15814W        W31431   4.886   6.835  13.848 -0.0240 -0.0302  0.0146
15815W        W31432   7.162   6.401  14.075 -0.1343  0.1207 -0.2518
15816W        W31433   4.069  12.199   4.767 -0.0136  0.0319  0.0302
15817W        W31434  10.273   7.383  13.650 -0.4408 -0.1407 -0.1009
15818W        W31435  17.747   7.741  12.336  0.4058  0.2861  0.3185
15819W        W31436   8.821  11.334  14.965 -0.0845  0.3817 -0.1243
15820W        W31437   6.580   9.121   0.377  0.0745 -0.1191 -0.0034
15821W        W31438   5.332   0.015   1.751  0.0994 -0.2087 -0.0612
15822W        W31439   5.251  12.694   2.922  0.1362 -0.0143  0.2302
15823W        W31440  10.685  17.131  16.119 -0.1226 -0.0328 -0.0237
15824W        W31441   0.439   1.197   5.482 -0.0340 -0.2362 -0.1478
15825W        W31442   9.207  10.415  14.972  0.1832  0.0546  0.3366
15826W        W31443  16.929  13.739  15.982  0.0186  0.2879  0.1162
15827W        W31444   1.273   3.928  13.392 -0.0154 -0.1180  0.0142
15828W        W31445  16.380   0.554  14.697 -0.0016 -0.0655  0.1591
15829W        W31446  17.321  17.374  13.631 -0.4798 -0.2314 -0.0968
15830W        W31447  16.218   6.229   3.537 -0.0356 -0.0301 -0.2718
15831W        W31448   5.657  11.293  14.607  0.1001  0.0140  0.3244
15832W        W31449  10.758  12.743   5.516  0.0810  0.3593  0.1238
15833W        W31450   4.590  13.391   1.714  0.1353 -0.1317  0.1094
15834W        W31451   0.194  11.909  11.459 -0.3397 -0.0883  0.0302
15835W        W31452   2.138   4.550  15.964 -0.2572 -0.0776 -0.2320
15836W        W31453   8.189   9.323   2.156  0.0541  0.1802  0.0745
15837W        W31454   6.964  14.391  13.732 -0.1820  0.2093 -0.1216
15838W        W31455   0.242  14.536   1.195 -0.0031  0.1778  0.1406
15839W        W31456  15.495  17.328  11.651  0.1546 -0.0118 -0.0785
15840W        W31457  13.408   6.206  15.744  0.0872  0.1646 -0.1539
15841W        W31458   0.754   9.851  12.235  0.3348  0.0498 -0.1683
15842W        W31459  12.922   8.403  14.565 -0.0838 -0.1999  0.0549
15843W        W31460   6.451  16.013   0.523  0.3789  0.2131  0.0748
15844W        W31461  12.915   1.647  12.267 -0.1380 -0.3370 -0.2283
15845W        W31462  16.058  17.466   3.264  0.0447 -0.1895 -0.1523
15846W        W31463  11.667  14.087  14.483 -0.2399 -0.0199  0.2759
15847W        W31464  14.026  16.865   2.592  0.1539  0.0234 -0.1252
15848W        W31465  17.844  10.393   3.410  0.0354  0.0496  0.4239
15849W        W31466   4.207  11.512  15.998 -0.3434  0.1311 -0.0776
15850W        W31467   2.681   4.829   5.344  0.0241 -0.0793  0.1429
15851W        W31468  16.206   7.710   1.609 -0.1512 -0.0681 -0.0800
15852W        W31469  10.987  12.384  16.055  0.1303  0.1560 -0.0510
15853W        W31470   0.836  15.821  12.502  0.1099  0.0411 -0.4679
15854W        W31471   4.815   2.804   0.609 -0.1454 -0.2209  0.1282
15855W        W31472   5.480  17.293  13.833 -0.1429  0.0115 -0.1359
15856W        W31473   2.235   8.009   5.485 -0.2437  0.2083 -0.2412
15857W        W31474   1.441  10.979  12.506  0.1740 -0.1558  0.2722
15858W        W31475   3.393   3.456  15.695 -0.0404  0.0529  0.0292
15859W        W31476   2.672   3.591  15.127  0.0691  0.0113 -0.1777
15860W        W31477   4.217   2.320  13.055 -0.0939 -0.0308 -0.2114
15861W        W31478   4.463   5.568   0.494  0.1586 -0.0484 -0.1714
15862W        W31479   0.958  10.394   3.666  0.2766 -0.1015 -0.0750
15863W        W31480   8.189  12.015  15.755  0.0163 -0.1283 -0.0005
15864W        W31481   9.348  13.173   2.298  0.0192 -0.0730  0.1199
15865W        W31482  14.742   6.024   5.236  0.1572 -0.1616  0.1633
15866W        W31483  17.226   3.391  14.583 -0.2389 -0.0179 -0.0024
15867W        W31484  15.007  10.749   3.007  0.1871 -0.2102 -0.0634
15868W        W31485   1.684   5.502  13.420  0.1523  0.0346  0.3235
15869W        W31486   0.927   2.499   2.042 -0.1261 -0.2554 -0.1415
15870W        W31487   9.068  12.557   1.592 -0.0894  0.1940  0.0188
15871W        W31488   2.401   8.690  12.013  0.2363  0.3188  0.2362
15872W        W31489   2.001   8.945  14.793 -0.1760 -0.1491 -0.0794
15873W        W31490  13.703   8.909   1.802 -0.3973 -0.0904  0.2706
15874W        W31491   7.495   6.438   3.732 -0.1351  0.2848 -0.0444
15875W        W31492  10.124  17.399  13.341  0.2069 -0.3123  0.0049
15876W        W31493   7.212  10.408   2.549 -0.1912 -0.0113 -0.0576
15877W        W31494  17.775   8.127   4.995  0.0522 -0.0850 -0.4859
15878W        W31495   7.842   4.976  15.896 -0.0290 -0.0408 -0.0164
15879W        W31496  10.258   7.270   5.705 -0.0446  0.0721 -0.1212
15880W        W31497  15.140  12.880   1.153 -0.0956 -0.1407 -0.0044
15881W        W31498  10.376   2.696  13.745 -0.0901  0.0426  0.0367
15882W        W31499  15.381   7.618   1.467  0.3390 -0.2769 -0.3461
15883W        W31500   3.103   6.447   6.184 -0.0207  0.0857  0.1043
15884W        W31501  16.481   8.494  14.917 -0.1515  0.0532  0.0049
15885W        W31502  10.769   0.738  13.679  0.2394  0.0198 -0.1715
15886W        W31503   9.370   7.718  16.270 -0.2058  0.1150 -0.0425
15887W        W31504  16.662   9.158  16.587 -0.0203 -0.1808  0.1648
15888W        W31505   9.083   2.459  11.458  0.2403 -0.1170  0.2337
15889W        W31506   4.404   8.441  13.435  0.1688  0.1131 -0.1858
15890W        W31507   8.860   3.972  12.902  0.1692  0.1333  0.0710
15891W        W31508   5.747   5.966  15.974 -0.1183 -0.2125 -0.2662
15892W        W31509  11.214   5.781  12.744  0.0845 -0.2413 -0.0993
15893W        W31510  14.842  14.380   0.682  0.0173 -0.1031 -0.0346
15894W        W31511  13.768   0.155   6.081 -0.1512  0.0006 -0.0980
15895W        W31512   0.457  13.313   5.081  0.0408  0.1965  0.3498
15896W        W31513   2.786  12.805   0.521  0.0256 -0.0089 -0.2652
15897W        W31514   2.259   8.876  15.309  0.0723  0.2330 -0.1334
15898W        W31515   9.199  16.920  11.016  0.1090  0.1191  0.1292
15899W        W31516   3.097  10.162   1.807 -0.0472  0.1088 -0.2614
15900W        W31517  12.948  12.073   3.046 -0.0615 -0.0843  0.0357
15901W        W31518  11.231  17.824  15.863 -0.0278  0.0745 -0.1612
15902W        W31519   6.436   4.646   5.798 -0.0090  0.0339  0.0546
15903W        W31520  11.097   4.262  16.472 -0.0134  0.1067  0.2130
15904W        W31521  16.152  13.458  16.203  0.0782  0.3216  0.3323
15905W        W31522   2.315   6.536   4.745 -0.0518  0.0330  0.0614
15906W        W31523  13.581   7.889   1.340 -0.2447  0.1260 -0.0021
15907W        W31524   5.602   9.633   2.500 -0.1591 -0.3167 -0.2322
15908W        W31525   5.453  14.581  12.850  0.1807  0.2433  0.1407
15909W        W31526   4.350   2.126  15.156  0.0911 -0.0921  0.2307
15910W        W31527  13.646   0.502   1.052 -0.1304 -0.0982  0.2330
15911W        W31528  13.915  12.381   1.277 -0.0066  0.1580  0.2243
15912W        W31529   1.400  14.244  15.904 -0.0144  0.0094  0.1363
15913W        W31530  17.063   7.112  12.313  0.1367  0.1675  0.0859
15914W        W31531  17.568   8.521   5.277 -0.2615 -0.3353 -0.1191
15915W        W31532  14.198   6.711   0.492  0.1303 -0.0706  0.0079
15916W        W31533   8.675  12.831  10.389  0.1568 -0.1489  0.0865
15917W        W31534  10.030   1.010  14.572  0.3017 -0.0999  0.0956
15918W        W31535  10.385   5.269   0.194 -0.0333 -0.0792 -0.2745
15919W        W31536   5.663   5.880   5.689 -0.1781  0.1170 -0.1079
15920W        W31537  15.601  14.459   2.044 -0.1659  0.2689 -0.0827
15921W        W31538   8.491  16.439   5.982 -0.2037 -0.2376 -0.3418
15922W        W31539  12.045   7.847  14.947  0.1976  0.1640 -0.1514
15923W        W31540  11.869   7.720   1.427  0.1199  0.3279 -0.0010
15924W        W31541   8.196  14.121  14.980 -0.2924 -0.1389 -0.1115
15925W        W31542   0.203   1.275  12.676  0.1266  0.0760 -0.1783
15926W        W31543  16.052  12.221   4.926  0.2155 -0.1278 -0.0175
15927W        W31544   6.886   6.084  13.796  0.0177  0.0244 -0.2238
15928W        W31545   5.018   2.279   0.527  0.1215 -0.3520  0.0781
15929W        W31546  17.213  12.324  13.210  0.0146 -0.3081 -0.0088
15930W        W31547  10.857   0.205  12.490  0.1528 -0.1766  0.0469
15931W        W31548   1.305   4.927  13.033 -0.0807 -0.0713 -0.0585
15932W        W31549   3.519  10.937   1.195  0.2862  0.0893 -0.1813
15933W        W31550  15.134   7.596   2.427 -0.0621 -0.1034 -0.2046
15934W        W31551   7.971   0.969  16.012  0.0245  0.0587  0.3010
15935W        W31552   0.869   8.312  15.332 -0.1688  0.2146 -0.0951
15936W        W31553   4.586  17.149  14.384  0.1850  0.1135 -0.2746
15937W        W31554  15.393  10.986   1.043  0.2069 -0.1588 -0.0770
15938W        W31555   7.281   7.233  15.798 -0.1172 -0.0184  0.0791
15939W        W31556   2.863  11.640   5.737 -0.0612  0.0949  0.1591
15940W        W31557   0.255   6.800  13.027  0.4245 -0.1949  0.0681
15941W        W31558  16.533  15.980  15.671 -0.0352  0.1418 -0.2156
15942W        W31559   3.724  14.562  12.120  0.1990 -0.1281  0.0374
15943W        W31560  16.980   8.395  16.278  0.0617  0.2413 -0.0412
15944W        W31561  17.351   4.128   4.622  0.2282  0.1151  0.3161
15945W        W31562   5.627  15.888  12.138 -0.0441  0.0332 -0.0551
15946W        W31563   8.898   4.711   0.405  0.0491  0.1856 -0.2849
15947W        W31564   9.333  16.326   5.106 -0.1061  0.0413  0.0855
15948W        W31565  16.586  15.581   1.375  0.1972 -0.0548  0.0865
15949W        W31566   4.986  17.671   2.164 -0.2996  0.1036  0.1790
15950W        W31567   2.794   2.866   3.214 -0.2481  0.0714 -0.0792
15951W        W31568  11.126  16.053  16.018 -0.1462 -0.0529  0.0816
15952W        W31569   0.451  11.198  12.195  0.0664  0.2712  0.0835
15953W        W31570   6.672   7.370  14.233  0.1859  0.1885  0.2605
15954W        W31571  15.978   7.841  12.252  0.3051 -0.0070 -0.3292
15955W        W31572   0.909   2.564  13.597 -0.1043  0.1547  0.0267
15956W        W31573   9.130   8.628   0.370 -0.1234 -0.1801  0.3767
15957W        W31574  15.722  11.347   0.761 -0.0519  0.1903 -0.0396
15958W        W31575   9.858  14.290   4.363  0.1366  0.2079 -0.2762
15959W        W31576   3.864   2.707   0.451 -0.2465  0.0975 -0.0864
15960W        W31577   7.940  12.697   5.134 -0.2721 -0.0731  0.6201
15961W        W31578  15.859  11.266  15.953 -0.0881 -0.1159 -0.1713
15962W        W31579  17.561   8.312   0.215  0.0759  0.1905 -0.0563
15963W        W31580  12.455   3.121  11.339 -0.0394 -0.0906  0.1282
15964W        W31581   5.644  13.083   4.686 -0.4954 -0.2290 -0.1639
15965W        W31582  11.857   7.260   0.407 -0.4832 -0.0763 -0.1155
15966W        W31583   3.022   2.171  16.512 -0.3159  0.0936 -0.0220
15967W        W31584  15.923  14.206   2.957  0.2244  0.1027 -0.3058
15968W        W31585  14.706   4.446  13.106 -0.2471 -0.3272  0.0711
15969W        W31586  15.006  12.175   5.399  0.0942 -0.0639  0.1438
15970W        W31587  16.348  12.784  11.260 -0.2503  0.0677  0.2653
15971W        W31588   5.604   0.740   2.111  0.2398  0.0456  0.1425
15972W        W31589   5.824  14.587   4.783 -0.1056 -0.0720  0.0250
15973W        W31590   9.908   8.925   5.390  0.0459  0.1048  0.0290
15974W        W31591  14.829  14.392   2.819 -0.0724 -0.0560 -0.6250
15975W        W31592   1.602   5.154  15.357 -0.0969  0.3336  0.2482
15976W        W31593  17.454   6.108   4.753  0.0300  0.0920 -0.0925
15977W        W31594   5.862   7.720  16.721 -0.0933 -0.2565 -0.2389
15978W        W31595   6.746   1.877   4.203 -0.2862 -0.1250 -0.2256
15979W        W31596   2.599   4.700  14.314 -0.2672 -0.0788  0.4414
15980W        W31597  17.677  17.313  15.000 -0.2088  0.1116  0.2045
15981W        W31598   4.803   7.643   2.862  0.3934 -0.0410  0.0440
15982W        W31599   7.094  10.302   0.088 -0.0514 -0.3090  0.0499
15983W        W31600   3.878   0.885  16.723  0.0540  0.0465 -0.0407
15984W        W31601   2.884   4.586  13.032  0.0753 -0.0895  0.0364
15985W        W31602   7.738  11.648  12.011  0.0076 -0.0117  0.2564
15986W        W31603  10.204   5.011  12.323 -0.2819  0.0364  0.0170
15987W        W31604   0.605   7.874  15.362 -0.0312 -0.1051 -0.0526
15988W        W31605  12.493   1.201   2.801 -0.2422 -0.0366 -0.2343
15989W        W31606   7.755  12.542   3.855 -0.0242 -0.1032 -0.0610
15990W        W31607   6.356  10.357   2.866 -0.2555 -0.3766  0.4398
15991W        W31608   3.610  13.964   1.592  0.1584  0.1541  0.2093
15992W        W31609  12.724   8.588  13.053  0.0338 -0.0297 -0.2090
15993W        W31610  10.604  13.434   3.773  0.1741  0.0267  0.1101
15994W        W31611  14.392  11.542  15.228 -0.2549  0.0248 -0.0014
15995W        W31612  12.711  13.108  13.174 -0.1946  0.0443 -0.1551
15996W        W31613   0.871  12.795  12.711 -0.1381  0.0736  0.0385
15997W        W31614   8.959  14.715   5.801 -0.0174 -0.2093 -0.2003
15998W        W31615  15.939  13.099  13.573 -0.4050  0.1444  0.0361
15999W        W31616   1.615  15.591  15.725 -0.0511 -0.1104  0.1008
16000W        W31617   2.790   3.359  12.734  0.4163 -0.4050 -0.1995
16001W        W31618   3.003  10.588   1.044  0.0582  0.0552  0.0164
16002W        W31619   8.459  13.091  14.042  0.0195  0.1186 -0.0646
16003W        W31620   0.850  17.022  14.913  0.1230 -0.2499 -0.2331
16004W        W31621  10.761   5.847  13.774  0.0258  0.2515 -0.0986
16005W        W31622   2.406   1.196  13.634 -0.2184 -0.3568 -0.0195
16006W        W31623   5.183   2.871   4.465 -0.1158  0.0047 -0.2824
16007W        W31624   4.230  13.565  14.447 -0.1029  0.2293  0.1873
16008W        W31625   5.309  10.758  15.723 -0.0830  0.0872  0.1475
16009W        W31626   7.757  10.442   5.416  0.1674 -0.3444  0.0422
16010W        W31627   0.330   7.469  12.300 -0.2025 -0.1470  0.1868
16011W        W31628   1.273   3.056   1.064 -0.0500  0.1920 -0.3241
16012W        W31629  16.845   3.249   3.717  0.0246 -0.0778  0.0775
16013W        W31630   5.125  15.045   1.714 -0.2674 -0.3405 -0.4095
16014W        W31631   9.756   9.989  16.338  0.2274  0.2302  0.0471
16015W        W31632   3.887   0.205   2.788 -0.0165  0.2217  0.0033
16016W        W31633  14.282  11.258   4.562  0.2393 -0.0607 -0.1161
16017W        W31634  15.281  17.343   2.194 -0.1729 -0.1593  0.1225
16018W        W31635   3.108   4.070  13.428 -0.1323  0.0485  0.1142
16019W        W31636  15.732  10.045   6.156  0.0716 -0.2989  0.1109
16020W        W31637  13.922   1.558   1.753 -0.0294 -0.0997 -0.0687
16021W        W31638   0.079   8.613  13.565 -0.0723  0.0482  0.0968
16022W        W31639   8.636  10.140   3.763 -0.1929 -0.0371  0.1450
16023W        W31640  16.134   4.023   2.318  0.2757 -0.2230  0.0196
16024W        W31641   2.099   1.072   4.614  0.2324  0.0044 -0.1336
16025W        W31642  16.110  15.265   4.482 -0.1124  0.0407 -0.2692
16026W        W31643  13.950  14.448  14.290 -0.2077  0.2061 -0.1724
16027W        W31644   2.372   0.757   0.040  0.0180  0.1032 -0.1319
16028W        W31645  10.970   7.919   3.684 -0.3612 -0.2131 -0.1620
16029W        W31646   4.774  16.760   2.497  0.0027 -0.1671 -0.2360
16030W        W31647   8.112   1.068   3.433  0.3254 -0.1616 -0.1909
16031W        W31648   5.236   7.983   5.609  0.2608 -0.0082 -0.0215
16032W        W31649   4.649  17.183   4.755 -0.2474 -0.1748 -0.1929
16033W        W31650   1.102  11.621  15.712  0.0214  0.0224 -0.2981
16034W        W31651  10.100   7.567  15.223  0.0152  0.1029  0.2902
16035W        W31652   2.255  14.388  11.634  0.1122  0.1152 -0.2917
16036W        W31653   3.230   4.879  15.493  0.1397  0.0294 -0.1220
16037W        W31654  15.824   3.685  13.548 -0.3054 -0.1645 -0.1112
16038W        W31655  13.773   5.869  14.877 -0.3618 -0.2335  0.0183
16039W        W31656   4.080   0.318  11.237  0.2713 -0.1504  0.1292
16040W        W31657  15.308   2.662  16.265 -0.1989 -0.0664 -0.0417
16041W        W31658   5.385   2.482   3.873  0.0271  0.2134  0.0513
16042W        W31659  16.501  11.606  11.806  0.1389 -0.2311 -0.3001
16043W        W31660   6.293  13.994  14.927  0.1159 -0.0468 -0.1421
16044W        W31661  17.712  12.580   5.098  0.2905  0.0334  0.0749
16045W        W31662  12.426   0.484   0.619  0.1832  0.0727  0.0314
16046W        W31663   9.413   2.011   0.935  0.1539  0.1806 -0.1225
16047W        W31664  12.639  14.958   1.791 -0.2755  0.0278 -0.1588
16048W        W31665  15.062  16.329   5.130 -0.1290  0.2904  0.1634
16049W        W31666  15.777   6.792  11.658  0.0859 -0.1063  0.0719
16050W        W31667   9.208  17.733   2.832 -0.0276 -0.1704  0.2498
16051W        W31668  11.520   1.275  13.299 -0.2567  0.0514 -0.3134
16052W        W31669   3.291  10.008   5.817  0.2283  0.2294 -0.0677
16053W        W31670  14.748  15.324   0.510 -0.0240  0.0326 -0.0840
16054W        W31671   5.096   6.528  12.656  0.1136  0.0764 -0.2708
16055W        W31672   4.954  11.176  12.582  0.1489 -0.0077  0.1559
16056W        W31673  15.512  13.738   0.479 -0.2126 -0.1190  0.0223
16057W        W31674  10.604  17.267   0.512 -0.1158  0.1923  0.1424
16058W        W31675  16.460   2.234   4.406  0.0377 -0.0578  0.2051
16059W        W31676  14.084   2.734   3.397 -0.0285 -0.2762  0.0749
16060W        W31677   5.624  16.289  11.784 -0.3487  0.1906  0.2449
16061W        W31678  15.569   0.512   1.735 -0.1295 -0.3537 -0.0591
16062W        W31679  13.170   3.739   2.579 -0.1949 -0.1114  0.1153
16063W        W31680  14.660  12.737  16.398 -0.2002  0.0546 -0.0667
16064W        W31681  16.166  15.273  16.477 -0.1420  0.1337 -0.1315
16065W        W31682   4.211   5.234   1.557 -0.0712  0.0400  0.1930
16066W        W31683  13.349   8.150   1.006 -0.1479 -0.3833 -0.1825
16067W        W31684   5.289   2.919  12.075  0.1135  0.0340  0.2637
16068W        W31685   4.771   5.699   5.023 -0.0620 -0.0809 -0.0009
16069W        W31686  15.810   3.987   0.834 -0.1385 -0.1396  0.1396
16070W        W31687   2.759  17.216  11.948  0.0735 -0.1672  0.2993
16071W        W31688  17.813   9.105   0.240 -0.1608  0.0134  0.1415
16072W        W31689   2.938   1.630  15.874  0.0386  0.1233 -0.1508
16073W        W31690   4.957   9.506  16.008  0.1882  0.1480  0.2975
16074W        W31691  16.312   9.620   3.550  0.1196  0.0191 -0.1778
16075W        W31692  17.826   0.161   2.833  0.3462 -0.0657 -0.2811
16076W        W31693   9.502  16.593  14.489  0.1905  0.2479  0.0910
16077W        W31694   3.943  10.200  13.440  0.1509 -0.1387  0.2291
16078W        W31695  15.647  17.032   1.995  0.1757 -0.0646 -0.0338
16079W        W31696   8.391  10.828   0.441  0.0339  0.0283 -0.0730
16080W        W31697  10.099   1.198   0.797 -0.1263 -0.0776  0.0856
16081W        W31698  12.656   6.058   4.408  0.1472  0.1034  0.2624
16082W        W31699  15.307   9.830  13.855 -0.1870  0.1957  0.4607
16083W        W31700   4.460  11.368   4.999  0.1043 -0.1445  0.3356
16084W        W31701  12.925  15.974  13.979  0.1277 -0.0101 -0.1628
16085W        W31702  15.428   3.757   2.742 -0.4349  0.0995 -0.0418
16086W        W31703   9.006   5.481   0.031  0.3526 -0.0524  0.0001
16087W        W31704  12.767  12.594  15.668 -0.4596  0.2366 -0.0265
16088W        W31705  10.334  14.356  14.950  0.2052 -0.0606 -0.0934
16089W        W31706   6.472   2.839   2.395 -0.0007 -0.2242 -0.2355
16090W        W31707   6.067  14.849   3.818  0.2836  0.2066  0.0648
16091W        W31708  14.643   9.225  10.866  0.5063  0.2457  0.0740
16092W        W31709   6.567  16.440   0.315  0.0809  0.0251 -0.1727
16093W        W31710  16.424  10.658  15.396 -0.0057  0.0765  0.1311
16094W        W31711  14.100  10.623  13.554  0.0065 -0.2110 -0.2873
16095W        W31712  17.690  16.366   2.347  0.1279 -0.2242  0.1418
16096W        W31713   5.575  12.972   1.993 -0.1707  0.0016  0.1283
16097W        W31714  14.755   8.418  11.792  0.0588 -0.0519  0.2342
16098W        W31715   5.725  17.618  11.030  0.1543 -0.1333  0.0789
16099W        W31716  13.007  14.647  14.859  0.0655 -0.3887 -0.3066
16100W        W31717   6.975   0.916   2.463  0.0316 -0.0906  0.2537
16101W        W31718  17.731   4.238  16.451  0.0176  0.0468 -0.0607
16102W        W31719   2.827   7.488   3.436  0.0478  0.4215 -0.1483
16103W        W31720  16.771   3.180  11.763 -0.0356  0.1670 -0.0141
16104W        W31721   3.205   1.175   0.376  0.1115 -0.2337 -0.1010
16105W        W31722   0.560  10.927   2.004 -0.1326  0.1051 -0.2049
16106W        W31723   1.522   2.076  15.714  0.2843  0.0551  0.0774
16107W        W31724  10.088   8.354  13.705  0.0271  0.1029  0.2103
16108W        W31725  10.511   8.771   2.484 -0.0375 -0.2077  0.0385
16109W        W31726   8.714  12.705  16.766 -0.0857 -0.0502 -0.3535
16110W        W31727  10.017  13.960   2.373  0.0001  0.2745 -0.0903
16111W        W31728  12.037   6.043  13.714  0.1807 -0.0740  0.0422
16112W        W31729  16.875   1.281   3.420 -0.1513  0.0020  0.0851
16113W        W31730   6.164  13.111  11.359  0.0281 -0.0808 -0.0044
16114W        W31731  11.137  12.489   1.343  0.1379  0.2561  0.2844
16115W        W31732   3.118   3.143  14.367  0.2862 -0.1016  0.4236
16116W        W31733  11.337   3.315   3.451 -0.2979  0.0701 -0.2509
16117W        W31734   7.672   9.026   3.665  0.1867  0.1481 -0.1530
16118W        W31735   3.881  14.574   4.433  0.1892  0.0209  0.3410
16119W        W31736  11.025  15.865   2.083 -0.0652 -0.2426  0.1301
16120W        W31737   7.245  13.876   1.978 -0.2152 -0.1624 -0.0540
16121W        W31738  11.575  17.732  15.432 -0.0060 -0.2852 -0.1419
16122W        W31739  13.833  15.087  13.255 -0.2827 -0.0137  0.0609
16123W        W31740  10.282   4.523  16.352 -0.2353 -0.0666  0.0075
16124W        W31741   4.082   6.221   1.514 -0.0257  0.1647  0.1290
16125W        W31742  10.646   6.801   2.969  0.0696  0.1030 -0.0500
16126W        W31743   5.350  13.006   0.075 -0.2258 -0.0566  0.2074
16127W        W31744  16.629   8.657   3.378 -0.2771 -0.0184 -0.0997
16128W        W31745  12.198   0.866   3.505 -0.1934 -0.1228 -0.1619
16129W        W31746  11.701  17.700   4.063 -0.2439 -0.1521 -0.0771
16130W        W31747   7.465   1.534   1.705  0.0409  0.2412  0.0527
16131W        W31748   3.506   2.336   1.673 -0.0276 -0.0827 -0.1802
16132W        W31749   6.503   7.119   5.473 -0.2642 -0.2722 -0.2653
16133W        W31750   0.694   5.466  12.280 -0.2902 -0.2506  0.3066
16134W        W31751   7.058  13.598   2.777  0.0625  0.4944 -0.0709
16135W        W31752  12.922   7.027  15.402  0.1161  0.2778  0.1988
16136W        W31753   8.312   0.440  14.971  0.2661 -0.1707 -0.0196
16137W        W31754   9.275   7.736  12.879  0.0753 -0.1030  0.1421
16138W        W31755   2.477  13.566   1.104  0.3531  0.3270  0.1265
16139W        W31756  17.341   1.225   2.653 -0.1072  0.0724 -0.0029
16140W        W31757   8.714   9.195  16.445  0.2603 -0.2454  0.0543
16141W        W31758   1.246  10.196  13.479 -0.3904 -0.1830 -0.0636
16142W        W31759   1.850   0.581  14.403  0.0863 -0.1342 -0.0270
16143W        W31760  17.335  12.929  16.632  0.1616  0.5497 -0.0192
16144W        W31761   8.036  15.902   5.414  0.4554  0.1938  0.1965
16145W        W31762  16.250   7.089   2.990 -0.1415 -0.0760 -0.1266
16146W        W31763   3.339  16.217  12.060 -0.1321 -0.3826  0.2179
16147W        W31764   7.348   8.635   0.768 -0.1087 -0.1411 -0.1440
16148W        W31765  15.388   6.869   6.086 -0.3052  0.1230  0.2126
16149W        W31766   1.661   4.976  14.455  0.0652 -0.1178 -0.4080
16150W        W31767  14.651   5.431  12.359  0.2414 -0.0113 -0.1860
16151W        W31768  17.103  15.736  14.516 -0.0634 -0.1496 -0.3116
16152W        W31769  16.377   8.433  15.692 -0.3133 -0.3602 -0.3031
16153W        W31770   5.545  13.450   2.658  0.1306  0.0258 -0.2770
16154W        W31771   8.014   6.217   0.293 -0.0506 -0.0452  0.1755
16155W        W31772  16.525  13.505  14.714  0.2996  0.0083  0.1691
16156W        W31773   1.575  15.702  14.812 -0.4694 -0.1785  0.0544
16157W        W31774   1.604   5.356  11.261  0.0206 -0.2185  0.0766
16158W        W31775   2.774   9.910  14.098  0.2031 -0.2570  0.1283
16159W        W31776   0.649  16.121   3.681  0.2285  0.0459 -0.0933
16160W        W31777  12.918  10.929   5.560 -0.0038 -0.2384  0.0675
16161W        W31778  13.244   0.284  12.444 -0.0634 -0.0475  0.0625
16162W        W31779  15.743  12.960  11.811  0.0024 -0.2435 -0.1223
16163W        W31780   2.870  16.754   3.268 -0.4350 -0.0123  0.2728
16164W        W31781   3.884   8.688   3.408  0.3387 -0.1441 -0.1776
16165W        W31782  11.777  12.456  15.718  0.0676 -0.0376 -0.0700
16166W        W31783   4.963  12.324   1.289 -0.1692  0.1590  0.0823
16167W        W31784  15.904  16.397  12.714 -0.0576 -0.0053 -0.1876
16168W        W31785   9.167   6.438  13.556 -0.2439  0.0062  0.0119
16169W        W31786   5.935  17.857   5.632 -0.1653  0.1609 -0.2060
16170W        W31787  14.436  14.900   3.523 -0.2150  0.3398 -0.1453
16171W        W31788  12.645  12.249  12.574 -0.2314 -0.0060  0.1657
16172W        W31789   7.070  16.838  14.358 -0.0419 -0.1073  0.0280
16173W        W31790   6.226   5.794   1.927  0.0900 -0.0611 -0.0355
16174W        W31791   9.782   7.492  14.208  0.3275  0.1798  0.1671
16175W        W31792   9.674  16.970  16.303  0.3025 -0.3060  0.1667
16176W        W31793   6.270  13.985  13.954  0.2459 -0.0208  0.1901
16177W        W31794   5.407  13.547  16.760  0.0249  0.0161  0.1140
16178W        W31795  13.327  17.683   5.067  0.1701 -0.0052 -0.0156
16179W        W31796  12.297   8.976   5.439  0.2730 -0.3645  0.3521
16180W        W31797   2.281  14.103  14.702 -0.0258 -0.0031  0.1127
16181W        W31798  16.478   4.837   1.380  0.0368 -0.2767  0.1772
16182W        W31799  14.133  17.022  14.646  0.1047 -0.1313  0.1125
16183W        W31800   8.062  17.061   2.909 -0.4027  0.1232  0.0580
16184W        W31801  15.098   2.510   3.493  0.0918 -0.1890 -0.0668
16185W        W31802   7.192  12.752  14.360  0.1223 -0.0407  0.3514
16186W        W31803   3.633   1.616   3.709  0.1082 -0.0509 -0.2397
16187W        W31804  11.928  12.657  14.051  0.2614 -0.0414 -0.2019
16188W        W31805  12.293   1.697   1.668  0.3876 -0.1102  0.2131
16189W        W31806   1.793  13.485   4.403 -0.2349  0.0051 -0.0893
16190W        W31807   7.186   1.312  15.762  0.2631 -0.1082  0.1407
16191W        W31808   8.983   6.929  15.151  0.1189  0.0062  0.0872
16192W        W31809   8.327   7.989  14.883 -0.0420  0.1863  0.2955
16193W        W31810   2.667  16.460   0.860 -0.0262 -0.1909 -0.1129
16194W        W31811  11.643  17.078  16.036  0.0801  0.2301 -0.0883
16195W        W31812  10.825   4.129   6.519  0.6689  0.2379 -0.0290
16196W        W31813   3.293   6.608  15.607 -0.0825 -0.2431  0.3014
16197W        W31814   2.759  13.969   0.947 -0.0508  0.0001  0.1211
16198W        W31815   3.186  17.405  13.953 -0.0584  0.2323  0.0061
16199W        W31816  14.999   1.059   5.790  0.1394 -0.0160 -0.0358
16200W        W31817  14.771   9.824  13.968  0.3117  0.1890 -0.1603
16201W        W31818  17.721   7.159   4.276  0.1041  0.3673  0.3697
16202W        W31819   8.487  17.116   2.605  0.0143 -0.1015  0.1871
16203W        W31820  12.414   2.154   0.777 -0.1480  0.0731 -0.1608
16204W        W31821   8.767  12.032  15.431 -0.2976 -0.1172 -0.0538
16205W        W31822   1.324   4.252  16.281 -0.0189  0.1715  0.1698
16206W        W31823   0.201   0.686  11.731  0.0243  0.0764  0.1482
16207W        W31824   7.104   5.488   4.197 -0.4213  0.1767 -0.1644
16208W        W31825   7.920   8.984   4.249 -0.1062 -0.5337 -0.0544
16209W        W31826  10.308  17.228   3.737  0.3480 -0.1670  0.0329
16210W        W31827   5.950  11.549   4.033  0.2681 -0.1622 -0.1135
16211W        W31828   5.891   2.983  16.346 -0.0094  0.1070 -0.2965
16212W        W31829   6.134   7.416  12.291 -0.0767  0.0803 -0.1261
16213W        W31830  16.732   7.885   0.393  0.2115 -0.1701 -0.0736
16214W        W31831  15.125   5.759   4.602 -0.3539  0.0091 -0.1968
16215W        W31832   9.862  16.181   4.650  0.3148 -0.0202  0.1964
16216W        W31833  11.986  11.583  11.588  0.1484 -0.1101 -0.0909
16217W        W31834   4.313  15.190  11.586  0.1936 -0.1047  0.0203
16218W        W31835   5.809   2.472  16.418 -0.0019 -0.1193  0.1353
16219W        W31836  15.756   7.435   1.837  0.0142 -0.0146  0.2105
16220W        W31837  16.810   0.808   3.636  0.0275  0.0682  0.0805
16221W        W31838   9.613   2.607   3.522  0.2043 -0.1692 -0.0448
16222W        W31839   0.717  12.764  12.190  0.2265 -0.0227  0.1795
16223W        W31840  14.309  11.984   1.557 -0.0234 -0.1478  0.4343
16224W        W31841   7.240  10.981   5.750 -0.1367  0.1077 -0.1378
16225W        W31842  12.683   3.214   3.195 -0.1327  0.2102  0.0773
16226W        W31843  17.113   7.444   3.202 -0.0113  0.2406  0.0336
16227W        W31844  11.796  15.090  15.129 -0.0412  0.2091 -0.1327
16228W        W31845  13.290   2.086  14.470  0.0241  0.0956 -0.1085
16229W        W31846  11.124  16.235   1.230 -0.0448  0.1325 -0.2766
16230W        W31847  17.339  16.277  12.793  0.0544 -0.2595 -0.0453
16231W        W31848  11.169  12.209  13.721  0.1553  0.1976 -0.2335
16232W        W31849  16.796   8.244   2.833 -0.0189  0.0643 -0.3339
16233W        W31850  14.435   3.183   2.177  0.2034 -0.1515  0.2854
16234W        W31851   4.301  10.818  13.741 -0.0226 -0.1105  0.1740
16235W        W31852   5.417   5.184   6.207 -0.1094 -0.0217  0.1347
16236W        W31853   5.930  14.044  11.643 -0.0917 -0.1384 -0.1813
16237W        W31854   9.841   4.916   2.721 -0.6315  0.0023 -0.1537
16238W        W31855   8.373   9.537   5.282 -0.0340  0.2175 -0.2211
16239W        W31856   1.147   7.719  13.773  0.0804 -0.1402  0.1843
16240W        W31857  13.680  12.086  14.011 -0.1328 -0.0137 -0.5887
16241W        W31858  12.209  16.269   2.079  0.2792  0.0331  0.1671
16242W        W31859   4.066   0.310   3.803  0.0108  0.1938  0.0735
16243W        W31860  12.877   9.567   1.398  0.0621 -0.2702 -0.3642
16244W        W31861  12.652   3.879  16.801  0.0129 -0.2174  0.1382
16245W        W31862   0.523  15.537  12.776  0.0965  0.3439 -0.1530
16246W        W31863   7.794   3.910  12.811  0.3810  0.0678 -0.1998
16247W        W31864  10.771   2.538  12.202  0.1524 -0.2975 -0.2576
16248W        W31865   7.195   4.731   4.462 -0.0662  0.2084 -0.0463
16249W        W31866  11.836  15.742  15.862  0.0423 -0.1565  0.0509
16250W        W31867  14.164  13.555  15.610 -0.0480 -0.0801  0.0808
16251W        W31868  10.074  11.049  11.058  0.0968 -0.0087  0.2050
16252W        W31869  13.149  14.852   3.001 -0.1397  0.0536 -0.1559
16253W        W31870  13.091  14.251  16.433  0.3492 -0.2108  0.0029
16254W        W31871   9.398   7.175   1.365 -0.0050  0.4561 -0.0196
16255W        W31872  10.993   6.957   6.765  0.1348  0.1417  0.2887
16256W        W31873   9.867   9.746  15.930 -0.0913  0.0407  0.2024
16257W        W31874   7.011   7.667  14.570  0.3536  0.0740  0.1005
16258W        W31875  10.649   7.382  15.044  0.1070  0.0571 -0.1883
16259W        W31876   2.928  12.715  13.391  0.3561 -0.2258  0.3180
16260W        W31877   2.234   5.036   6.146 -0.0341 -0.2349 -0.1563
16261W        W31878  11.961   1.207   1.553 -0.0269 -0.3972 -0.1801
16262W        W31879   7.048   4.553   1.858  0.0186 -0.3151 -0.1765
16263W        W31880   8.662  15.071   5.541  0.1437  0.2453 -0.2667
16264W        W31881   2.664   6.018   2.994 -0.0781  0.0789  0.3425
16265W        W31882  13.474   6.618   2.684  0.2267  0.1121 -0.0432
16266W        W31883   6.293   3.929  12.896 -0.0880  0.0436  0.1717
16267W        W31884   4.424  10.056   2.478  0.0859 -0.0468 -0.1119
16268W        W31885   6.621   6.179   5.593 -0.2307 -0.0979  0.2695
16269W        W31886  14.521   8.291   0.300  0.2026 -0.2088  0.1319
16270W        W31887  17.592  10.380   5.964 -0.0770  0.1012 -0.1738
16271W        W31888   4.408  10.898  15.682 -0.0681  0.2963  0.0063
16272W        W31889  17.480   5.804  10.629  0.0368 -0.2745  0.4367
16273W        W31890  14.167  14.322   1.903 -0.0976  0.0152  0.0559
16274W        W31891   5.720   4.666   4.618 -0.0179 -0.2593  0.0029
16275W        W31892   5.802  15.066   4.301 -0.1417  0.1518  0.2856
16276W        W31893  13.598   0.756   1.907  0.0774  0.4609 -0.0650
16277W        W31894   2.959   5.785   5.051  0.2186 -0.0868  0.1462
16278W        W31895   0.015  17.846  10.045 -0.1012  0.0362 -0.3412
16279W        W31896   7.692   0.824   4.413  0.1774  0.2907  0.0269
16280W        W31897   8.837   8.824   5.791 -0.4721  0.1341  0.0303
16281W        W31898   3.311  16.276  15.718  0.1309 -0.2333 -0.2026
16282W        W31899   2.898  12.417  14.449  0.1181 -0.0225 -0.0132
16283W        W31900  12.938  11.590   0.528  0.1697 -0.3241  0.1356
16284W        W31901   4.813   0.213  14.628 -0.0009  0.1731  0.0415
16285W        W31902   6.974   7.057   5.105  0.1711  0.0311 -0.2760
16286W        W31903   5.224   6.511   3.872 -0.1404 -0.1007 -0.2119
16287W        W31904  13.632   9.769   4.272 -0.1085 -0.0502 -0.1350
16288W        W31905  13.493   8.801   5.905  0.1091  0.0118 -0.0456
16289W        W31906  17.456  14.551   4.433  0.0255  0.3554 -0.1031
16290W        W31907  12.564   2.245  13.811  0.1105 -0.0066  0.0265
16291W        W31908  17.504  11.589  12.845  0.1352  0.0843  0.0062
16292W        W31909   7.532   5.050  13.717  0.1959  0.0366 -0.1654
16293W        W31910   8.937  10.071   2.961 -0.1431  0.1584 -0.0293
16294W        W31911  14.740  13.965   3.045  0.1590  0.3109 -0.2056
16295W        W31912   2.126  12.530  13.538  0.0902 -0.0721 -0.3153
16296W        W31913  11.669   1.621  14.520 -0.2279  0.2700  0.0371
16297W        W31914  11.108  12.276  11.610 -0.1234 -0.1668 -0.0457
16298W        W31915   5.590   8.465  12.853 -0.1026 -0.0783 -0.0967
16299W        W31916  11.094   5.258  12.704  0.1872 -0.1257  0.2306
16300W        W31917   3.743  17.494  12.830 -0.0074  0.0768 -0.0029
16301W        W31918  11.952  10.013   0.776  0.1454  0.0380  0.1145
16302W        W31919  16.448   6.046  14.696  0.1953  0.1376  0.1736
16303W        W31920   8.691   8.814  12.050  0.0731  0.1262  0.1071
16304W        W31921   1.676   4.853   4.848 -0.1614 -0.3416  0.0324
16305W        W31922   5.160  16.400  11.656 -0.1104  0.2926 -0.1000
16306W        W31923   3.515  10.213  13.743  0.0316 -0.0101 -0.1438
16307W        W31924   1.547   9.474   6.314  0.1864  0.0830  0.1962
16308W        W31925  13.179   0.436   0.121 -0.3482 -0.0170 -0.1761
16309W        W31926   3.565   3.873  15.531 -0.2198 -0.3590  0.0516
16310W        W31927   8.957  16.409   3.112  0.3046  0.0046  0.4325
16311W        W31928   5.701   8.646  11.969 -0.1758  0.1686  0.0071
16312W        W31929  15.041   9.356  13.084 -0.2200  0.0170 -0.2218
16313W        W31930   4.619   2.333   0.957 -0.0536  0.1725  0.0163
16314W        W31931  16.561  12.850   5.102  0.2099  0.0087 -0.0764
16315W        W31932   1.725   7.610   3.197  0.0629  0.1303  0.1575
16316W        W31933  12.918   8.693   5.033 -0.0225  0.1230 -0.0602
16317W        W31934   7.675   9.925  11.791  0.0520  0.2460 -0.0187
16318W        W31935   4.594   0.359  12.129  0.1593 -0.0994 -0.1717
16319W        W31936   0.921  14.107   0.835 -0.0777  0.1429  0.0114
16320W        W31937  16.536  16.559  16.336  0.1234 -0.0305 -0.0637
16321W        W31938   6.212  16.594   2.121  0.3658 -0.0418  0.0436
16322W        W31939   4.924   6.192   5.114  0.1752  0.1109  0.0206
16323W        W31940   0.067  14.044  15.475 -0.0457  0.0376  0.0500
16324W        W31941  16.210   4.990  12.454  0.0052 -0.2290  0.0010
16325W        W31942  17.475   9.010  15.620 -0.1029  0.0779  0.1946
16326W        W31943   1.580  15.567   0.598  0.2993  0.1056 -0.1830
16327W        W31944   5.477   2.306   1.740 -0.0552 -0.1762  0.2370
16328W        W31945  12.391  16.370   4.599 -0.2937 -0.0435  0.1002
16329W        W31946   5.107   3.963   3.261  0.1493  0.0166  0.1264
16330W        W31947   4.232   7.750   5.455 -0.1918  0.1450 -0.1550
16331W        W31948  16.940   3.837  15.239  0.2919 -0.1340 -0.2498
16332W        W31949   6.895  16.183   3.146  0.2316  0.0071 -0.0433
16333W        W31950  15.667  12.959   4.927 -0.3429  0.0071  0.0021
16334W        W31951   5.779   3.647  12.137  0.0325  0.0292  0.2223
16335W        W31952   4.714   7.088   1.696 -0.1191  0.1679 -0.0462
16336W        W31953   4.313  13.814  15.689 -0.3468  0.0646  0.1752
16337W        W31954   0.785   1.752  16.277 -0.0385  0.0993  0.0804
16338W        W31955  14.609   1.219   6.654 -0.0848  0.1400 -0.2372
16339W        W31956  16.629   9.038   1.564 -0.2020  0.2495 -0.0487
16340W        W31957  12.621   2.069   3.209  0.1917  0.1969  0.0826
16341W        W31958   8.875   7.259   0.702 -0.1995 -0.1220  0.3839
16342W        W31959   2.342   4.902   3.794 -0.0292  0.2377 -0.1701
16343W        W31960   3.917   0.036  16.442  0.1071  0.2278  0.1280
16344W        W31961   4.538   7.242  15.207  0.0617 -0.3704 -0.1361
16345W        W31962   6.920   5.113  15.525 -0.0968  0.0708  0.3425
16346W        W31963   4.076  16.008  14.490  0.1704 -0.0157  0.3942
16347W        W31964   6.493   7.667   5.580 -0.2328  0.1967  0.0037
16348W        W31965   4.945   7.152   3.445 -0.0297 -0.2728  0.1107
16349W        W31966   2.549   9.956   3.457  0.4279  0.0523  0.1303
16350W        W31967  14.563   0.488   3.280  0.2316 -0.2050  0.0638
16351W        W31968  16.620  13.017   1.454  0.1820 -0.2072  0.2287
16352W        W31969   7.402   6.352   1.520  0.0503 -0.0868  0.1577
16353W        W31970  12.233   1.135  11.728  0.2160  0.0907  0.1673
16354W        W31971   3.515  13.784  12.909 -0.0444  0.0456  0.1252
16355W        W31972   7.296   6.536  14.523  0.0767 -0.2490 -0.2389
16356W        W31973  11.835   4.372  15.821  0.0807 -0.0022 -0.0642
16357W        W31974   9.904   9.519   1.350 -0.0073  0.1345 -0.0564
16358W        W31975  10.311   8.793  13.111 -0.0426  0.1265  0.0318
16359W        W31976   9.683   7.728  16.681 -0.0616  0.0837  0.0573
16360W        W31977  14.067  14.629  15.597  0.4011  0.1834  0.2460
16361W        W31978  14.506  15.957  15.333  0.1599 -0.3539  0.2021
16362W        W31979  12.923   2.954   0.026  0.1855 -0.0639 -0.2637
16363W        W31980  15.534   6.473   4.211  0.1102 -0.2407 -0.0819
16364W        W31981   0.815   3.200   1.154 -0.1182  0.1521 -0.0288
16365W        W31982  11.703  13.690  16.014  0.0234  0.2557 -0.0147
16366W        W31983   7.717   7.247  12.707 -0.1486 -0.3935  0.1785
16367W        W31984   6.363  16.717   2.556 -0.1817  0.3261  0.0253
16368W        W31985  10.191   3.561   5.853 -0.1947 -0.0436 -0.0039
16369W        W31986  11.656   9.895   2.347  0.1049 -0.1670 -0.0214
16370W        W31987   0.691  16.917   3.745 -0.0256  0.1156  0.0184
16371W        W31988   1.929   1.763  12.435  0.0117  0.2403 -0.1493
16372W        W31989   5.546  11.585   5.526 -0.2667 -0.0544  0.0704
16373W        W31990  10.120   5.058   4.738  0.0428  0.1020  0.0256
16374W        W31991   7.254   7.232  16.758 -0.2798  0.2561 -0.1342
16375W        W31992  15.241   2.368   0.597  0.2765 -0.1098 -0.0918
16376W        W31993  16.167   6.097   4.079  0.2777 -0.1109  0.0556
16377W        W31994  11.743   5.981  14.615  0.1582 -0.0453  0.3112
16378W        W31995   6.083  15.781  15.411  0.0241  0.0349 -0.1004
16379W        W31996   8.444   2.920   2.057 -0.1537 -0.2577 -0.0259
16380W        W31997   0.167   3.466  16.159  0.0150  0.1980  0.0262
16381W        W31998  10.241  15.292  14.856 -0.0616 -0.1641 -0.2308
16382W        W31999  15.842   0.059   1.958  0.0773  0.0067  0.1720
16383W        W32000   5.450  14.389   1.766 -0.2991 -0.3435  0.1584
16384W        W32001   2.067   0.242  14.046  0.1095 -0.0012  0.0003
16385W        W32002   4.973   9.158   4.850 -0.1845  0.0816 -0.1838
16386W        W32003   3.332   3.843  12.301 -0.4526  0.0619  0.1832
16387W        W32004   0.306   0.181  15.306  0.1657  0.3129 -0.0319
16388W        W32005   9.189   3.622   3.701 -0.1188 -0.0592  0.0455
16389W        W32006  17.838  11.642  13.282 -0.1388 -0.0463  0.1780
16390W        W32007   3.555   4.051  11.428 -0.1863 -0.2106  0.0370
16391W        W32008   9.510   2.397   5.426 -0.0319  0.2059 -0.0600
16392W        W32009   2.375  13.805   0.647  0.0530 -0.0975 -0.1848
16393W        W32010   0.676   7.523  13.134  0.1924  0.0122  0.1364
16394W        W32011  16.227  10.974  12.723  0.3738  0.0043  0.2086
16395W        W32012   0.890  16.480  11.930 -0.1645  0.1087  0.2281
16396W        W32013   3.404   9.410  16.739  0.2201 -0.2898 -0.0430
16397W        W32014  14.971  17.714  12.446  0.0196  0.1994 -0.0503
16398W        W32015  10.824  16.339  12.379  0.2752  0.0230 -0.2715
16399W        W32016   8.824   2.331  14.777  0.2400 -0.1416 -0.1374
16400W        W32017   6.321   8.566  14.379 -0.1220  0.2001  0.0624
16401W        W32018  17.105   8.657  14.315 -0.2150 -0.0403 -0.0353
16402W        W32019  17.157   0.526  11.423  0.1582  0.1724  0.1190
16403W        W32020   1.443  10.449  16.081  0.0320  0.0044  0.0857
16404W        W32021   3.391  10.891   4.772  0.0419  0.3641  0.1296
16405W        W32022   8.337   3.257   5.519 -0.0551  0.2474 -0.0331
16406W        W32023   8.222  13.608   5.519  0.0010  0.0337  0.0814
16407W        W32024  12.596  13.220  12.303 -0.0346 -0.0551 -0.0434
16408W        W32025  13.966  16.677  15.014 -0.1111  0.1283 -0.0660
16409W        W32026   7.144   3.988  14.463 -0.0957  0.1683 -0.1955
16410W        W32027  12.427  14.231  11.611 -0.2124 -0.2582 -0.1966
16411W        W32028   8.175   8.331  16.687 -0.2259  0.4294 -0.0918
16412W        W32029   1.283   6.303   5.697 -0.2100  0.0502  0.0146
16413W        W32030  16.389  16.272  12.522 -0.2183  0.1804 -0.0250
16414W        W32031   9.402   4.479  13.900 -0.0277  0.1480  0.2062
16415W        W32032  15.440   0.527   5.050 -0.1213  0.3939 -0.1165
16416W        W32033  17.779   1.526  14.708  0.1828  0.1893 -0.3480
16417W        W32034  16.460   1.380   3.092 -0.1071  0.1835 -0.3656
16418W        W32035   3.719  11.586  16.792  0.0542  0.0643  0.2478
16419W        W32036  10.963   9.160  16.826  0.1939 -0.2487  0.2625
16420W        W32037  16.141   8.187  14.134 -0.3710 -0.1155  0.0984
16421W        W32038  13.795   8.309   1.014  0.1104 -0.0882 -0.0518
16422W        W32039   9.632  14.762  16.000  0.1244  0.0659  0.0346
16423W        W32040   3.511   6.787   2.253  0.1355 -0.0293  0.1045
16424W        W32041   9.733   8.817   3.432 -0.0188  0.0972  0.2163
16425W        W32042  14.204  10.001   3.678  0.1375  0.3036  0.2070
16426W        W32043   2.064   5.212   5.339 -0.1223  0.2921  0.1633
16427W        W32044   6.696  10.246  12.610  0.0704 -0.0771  0.0025
16428W        W32045  17.853  10.309   5.548 -0.0136  0.0169  0.1368
16429W        W32046   3.404  12.777   3.225  0.2786  0.0106  0.0655
16430W        W32047  12.484   2.192  14.307  0.0937 -0.0278 -0.1178
16431W        W32048  15.933   7.499   4.681 -0.1676  0.2233  0.1215
16432W        W32049   2.796  11.812  12.560  0.2528 -0.0637 -0.2246
16433W        W32050  12.213   7.424  15.167 -0.0210 -0.0004 -0.3733
16434W        W32051  10.109   1.298   2.720  0.0056  0.0055 -0.1360
16435W        W32052  16.114   8.511  16.598  0.0011 -0.0993  0.2765
16436W        W32053   3.874  15.185   0.554  0.2179 -0.0993 -0.0842
16437W        W32054  12.051   0.819   0.722  0.0293  0.0146  0.0392
16438W        W32055  15.985   9.611   0.496  0.0805  0.0346 -0.1174
16439W        W32056   9.998  17.602  11.311  0.1980 -0.0548 -0.0901
16440W        W32057  12.461  12.733   3.047 -0.1306 -0.1770 -0.5940
16441W        W32058   1.635  11.821   2.579  0.0564 -0.2446  0.1496
16442W        W32059   4.673  14.060   1.977 -0.0375  0.2366  0.0667
16443W        W32060  17.063   2.501  12.282 -0.0350  0.0216  0.0795
16444W        W32061   6.214   5.222  15.832  0.0543  0.0731  0.1323
16445W        W32062  11.930  12.733   3.099  0.0698 -0.1348  0.1656
16446W        W32063  14.946  17.031   1.239  0.1010  0.2370 -0.1001
16447W        W32064   9.910   1.003   3.119 -0.0396  0.1155 -0.0327
16448W        W32065   4.787  11.529   1.174  0.0775  0.2065 -0.0841
16449W        W32066  16.607   0.748   0.238 -0.1356 -0.1562 -0.2219
16450W        W32067  16.718   6.479   3.440  0.2103  0.2515 -0.4079
16451W        W32068   1.781   6.933  13.645 -0.0245  0.2203  0.2445
16452W        W32069  13.543  11.945   4.313 -0.2250 -0.3124 -0.2394
16453W        W32070  13.091   4.932   5.568 -0.0176 -0.1245  0.2203
16454W        W32071   3.645   1.283  11.991 -0.1328  0.0865 -0.0349
16455W        W32072  10.956  13.668   5.430  0.0010 -0.0312  0.2011
16456W        W32073   3.649   9.671  13.847  0.0942 -0.0972 -0.1289
16457W        W32074  12.484   1.095  11.320 -0.0817 -0.2831  0.2476
16458W        W32075  16.540   0.046   1.437 -0.1520  0.1542 -0.1322
16459W        W32076  17.483   4.791   5.172  0.1702 -0.1584  0.1399
16460W        W32077  16.685   5.282   3.697 -0.1446 -0.3262  0.0687
16461W        W32078  17.500  11.504  15.859 -0.1315 -0.1834  0.4396
16462W        W32079   3.180   8.471  13.658  0.0288  0.4473  0.1662
16463W        W32080   3.267   6.184   2.277  0.0954 -0.0262 -0.3142
16464W        W32081   7.860  10.903   3.050 -0.0452  0.2379  0.1378
16465W        W32082  16.712   4.673   4.102  0.3343 -0.0198  0.1568
16466W        W32083   9.534  17.072  14.401  0.0219 -0.1992 -0.0805
16467W        W32084  10.631  14.724  12.572  0.1396 -0.1009 -0.0302
16468W        W32085  13.251  16.749  14.190 -0.4656 -0.0381  0.1381
16469W        W32086  15.663   6.726   0.019  0.0887 -0.2201  0.3210
16470W        W32087  12.407   2.482   3.594  0.1032  0.0319  0.0769
16471W        W32088  15.552   1.851   2.300 -0.2879 -0.0913  0.1890
16472W        W32089  13.871   5.869   1.589 -0.2948  0.2766  0.1359
16473W        W32090   5.846   6.270   2.168 -0.2455 -0.1089 -0.1888
16474W        W32091  17.413   2.183   2.366 -0.1201 -0.0940 -0.1720
16475W        W32092  13.675   2.768   4.639  0.1067 -0.0798 -0.1314
16476W        W32093  14.814  17.097  14.760 -0.0189 -0.0521 -0.2546
16477W        W32094   3.796   7.861   0.862 -0.1416 -0.0966  0.2075
16478W        W32095  12.086  10.967  14.929 -0.1175 -0.2313  0.0134
16479W        W32096   8.774   1.691  12.787  0.1941 -0.1877  0.0205
16480W        W32097   1.443  13.197   5.654 -0.1461 -0.0533  0.6413
16481W        W32098   3.206   1.920   2.012 -0.1451  0.1632 -0.2293
16482W        W32099   4.084   0.043   1.839 -0.0862  0.2956  0.0383
16483W        W32100   1.229  10.835   3.694  0.0584 -0.0601 -0.0078
16484W        W32101   8.811   8.234  11.970 -0.0771  0.0414 -0.1014
16485W        W32102   0.820   1.187  13.418 -0.0595  0.3951  0.3380
16486W        W32103  10.955  16.667   2.372  0.3389 -0.1401  0.3230
16487W        W32104   9.862   5.818  15.397  0.0508  0.0363  0.0788
16488W        W32105  12.935   3.609  13.563  0.3460 -0.0025  0.2852
16489W        W32106  15.244   4.523  15.794  0.3787 -0.0221 -0.0074
16490W        W32107  12.689  11.918  13.795  0.1674 -0.0818 -0.1312
16491W        W32108  12.971   9.460  15.006  0.0449  0.1842 -0.1234
16492W        W32109   6.174   3.101  15.959  0.0150  0.0853  0.0668
16493W        W32110   9.484   1.365   3.159 -0.3765 -0.0100 -0.3732
16494W        W32111  14.019   5.612   2.053 -0.0051  0.1139  0.0727
16495W        W32112   3.503   7.280   5.971  0.0857 -0.0824  0.0885
16496W        W32113   7.498   4.303  15.330  0.0226  0.1767 -0.0782
16497W        W32114   2.840   1.433   4.046 -0.0255 -0.1675 -0.1652
16498W        W32115   3.080   9.551  13.381  0.0224 -0.0144 -0.1441
16499W        W32116  14.274  15.347  15.606  0.2091 -0.1227  0.3887
16500W        W32117   8.705   3.228  13.882  0.0132  0.2418 -0.0145
16501W        W32118  17.404   1.932   5.827 -0.1464  0.1716 -0.0991
16502W        W32119  13.457   4.261   5.061  0.5889  0.1098 -0.2435
16503W        W32120   5.394   3.398   4.503  0.0430  0.0197  0.3330
16504W        W32121   1.252  13.624   2.542 -0.5653 -0.0946 -0.0405
16505W        W32122   5.653   0.741   6.026 -0.1799 -0.0609  0.0499
16506W        W32123   3.732   7.249   0.975 -0.0860 -0.1030  0.1619
16507W        W32124   2.685  11.383   0.011 -0.3735  0.1423 -0.3952
16508W        W32125   9.121   4.000  14.310  0.2303 -0.1507  0.2087
16509W        W32126  12.806   0.416   0.954 -0.1299  0.2032 -0.1344
16510W        W32127   4.280  14.276  16.538 -0.0846 -0.1694  0.2055
16511W        W32128   0.475   0.830  14.523  0.0115  0.0542  0.0237
16512W        W32129   1.784   9.504   1.054  0.2613 -0.0364  0.0966
16513W        W32130   2.743   1.509   1.832 -0.0372 -0.2434 -0.2682
16514W        W32131   4.557  13.868   1.519 -0.0837  0.0108 -0.0756
16515W        W32132  11.702  16.397  11.645  0.1052 -0.2235 -0.2340
16516W        W32133  10.212   5.885   5.453  0.0843 -0.0444 -0.1461
16517W        W32134   1.631   2.064   0.872  0.1941  0.0809 -0.0657
16518W        W32135   0.138   2.346  14.317  0.0331 -0.0412 -0.4100
16519W        W32136   5.393  15.977   4.188 -0.0888  0.1232 -0.1436
16520W        W32137   2.932   5.105   1.027  0.0100  0.0569 -0.0329
16521W        W32138   3.952   9.625   3.539  0.3197  0.1031 -0.0865
16522W        W32139  15.359  16.201   0.994  0.1744 -0.0924 -0.0880
16523W        W32140   6.054   4.806   2.274  0.1067  0.0806  0.0414
16524W        W32141   5.496   4.992  12.086  0.1668 -0.0399  0.0331
16525W        W32142   7.691   4.968   6.055 -0.0004 -0.3968  0.3150
16526W        W32143  13.548   3.023  15.986 -0.1326 -0.0459  0.1697
16527W        W32144   8.617  13.494   1.940 -0.2004 -0.0560 -0.3214
16528W        W32145   7.505  13.545  13.104 -0.0941 -0.0960 -0.2324
16529W        W32146  14.479  11.814   4.378  0.0881  0.0486 -0.1732
16530W        W32147  10.239  17.264   4.513  0.0967  0.1179  0.1679
16531W        W32148  11.590  17.342   1.972  0.0832 -0.0359 -0.2133
16532W        W32149  14.230   8.778  14.984  0.1145 -0.2125 -0.2229
16533W        W32150   2.003   0.400  15.235 -0.0724 -0.0615  0.2197
16534W        W32151  10.389   7.138  15.834 -0.2517  0.0952 -0.2586
16535W        W32152  10.566  11.262   3.834  0.1421  0.0638  0.2114
16536W        W32153  10.241  11.877   4.219 -0.0515  0.2094  0.1383
16537W        W32154   4.060   9.122   0.308  0.1126 -0.0411 -0.0666
16538W        W32155  15.652  11.105   4.662 -0.0863 -0.3197 -0.0385
16539W        W32156  13.019   1.893   2.910  0.1994 -0.1825  0.0500
16540W        W32157   0.394   8.163  13.642 -0.0388 -0.0124  0.0085
16541W        W32158   1.657  11.161   0.640 -0.1123  0.3646  0.0762
16542W        W32159  16.508  17.307  11.820  0.3789 -0.0634  0.0078
16543W        W32160   6.894   5.198   1.232  0.0406 -0.1245 -0.0576
16544W        W32161   6.560  10.830   1.690 -0.1188 -0.2106  0.0705
16545W        W32162  16.075   3.608  14.904  0.2235 -0.1820 -0.1352
16546W        W32163  14.981  10.585   0.205  0.1163  0.2351 -0.1064
16547W        W32164   9.465  14.587   0.674 -0.1523 -0.1533  0.3575
16548W        W32165   3.469   9.630   0.524 -0.1933  0.2301 -0.3062
16549W        W32166   7.284  14.498  16.233  0.1088  0.1916  0.0178
16550W        W32167   6.478  11.863   1.865  0.1839 -0.3612 -0.2888
16551W        W32168  10.030   9.912  14.251  0.1725  0.0855 -0.0352
16552W        W32169   7.125  16.785   4.979 -0.3357 -0.0196 -0.0574
16553W        W32170   0.931  14.101  13.275 -0.2100 -0.2591 -0.3006
16554W        W32171  17.808  17.250   3.365  0.0401  0.0246 -0.1316
16555W        W32172   1.716   5.573   2.491 -0.1520 -0.1618  0.0251
16556W        W32173   7.169   3.553  15.265  0.0800 -0.0770 -0.1686
16557W        W32174   9.290  12.152  15.550 -0.1319  0.0906  0.1364
16558W        W32175   1.640  12.481  13.349 -0.0951 -0.2233  0.4106
16559W        W32176  16.494  11.385  13.727  0.0266 -0.0110 -0.2522
16560W        W32177   8.686   2.090   4.957  0.1592  0.4563  0.0684
16561W        W32178   7.002  15.946  10.083 -0.1997  0.0768 -0.1222
16562W        W32179  12.072   5.046  14.395 -0.1775  0.0407 -0.1290
16563W        W32180   8.449   7.256   4.986  0.3142 -0.3986  0.2209
16564W        W32181   1.571  10.952  14.792  0.3326 -0.1101 -0.0085
16565W        W32182   8.939   3.577   6.039 -0.3942 -0.0330 -0.0136
16566W        W32183  15.102   7.033   4.843 -0.2112 -0.1278  0.4294
16567W        W32184   3.071  14.135  12.934 -0.2336 -0.3325  0.0116
16568W        W32185   5.290   2.537   5.092 -0.1369 -0.0664 -0.0611
16569W        W32186  13.099  17.440   3.761 -0.3999 -0.0442 -0.0178
16570W        W32187   9.657   8.867   2.934  0.1349  0.2056  0.0694
16571W        W32188  17.015  11.226   4.201  0.0943 -0.0867 -0.0321
16572W        W32189   2.734  11.847   1.784  0.3949  0.0782 -0.0778
16573W        W32190   3.731   4.237   0.214  0.0160  0.0795  0.0478
16574W        W32191  12.005   9.084  16.517  0.0066  0.0169  0.0738
16575W        W32192   8.852   8.989   0.638 -0.3027  0.2483  0.1016
16576W        W32193  16.650   8.677   3.874 -0.0504 -0.0017 -0.0127
16577W        W32194   5.042  11.603  12.905 -0.0967 -0.0211  0.0268
16578W        W32195  13.024  14.096   0.897  0.1603 -0.1325 -0.0894
16579W        W32196   2.212  14.584   1.233 -0.0116 -0.2038  0.0464
16580W        W32197   8.867   9.656  16.683  0.0822 -0.0699  0.0493
16581W        W32198   4.632  10.070  16.143 -0.0656 -0.3203 -0.0856
16582W        W32199   3.937  16.821   5.858 -0.2443  0.3347 -0.0472
16583W        W32200  16.855   2.079  14.815  0.3275  0.3404  0.3076
16584W        W32201   0.118   0.182   3.627 -0.0526  0.0482  0.4712
16585W        W32202   2.515  16.293  14.186 -0.1098 -0.1093 -0.2842
16586W        W32203   9.217   2.389   5.902 -0.0329 -0.2154  0.0401
16587W        W32204  15.346  11.038   0.140 -0.0733 -0.1457 -0.0248
16588W        W32205  13.303  10.098   1.287  0.0416 -0.1766  0.1649
16589W        W32206   8.932  15.590  15.197 -0.0369 -0.0498  0.0536
16590W        W32207  11.397  14.536  14.664  0.0518 -0.0939  0.2455
16591W        W32208   4.170   4.228   0.033  0.1897 -0.2085  0.2580
16592W        W32209  16.856  11.074  13.665 -0.1436 -0.1861 -0.1181
16593W        W32210  16.800   5.980   2.748 -0.0929  0.1165  0.1643
16594W        W32211   8.097  17.082   0.542 -0.4077  0.0896 -0.0552
16595W        W32212   4.381   7.360   5.207 -0.2621 -0.2899  0.0016
16596W        W32213   7.787   3.887   3.663  0.2509 -0.0331 -0.2822
16597W        W32214   2.264  17.328   5.641  0.1907  0.0695 -0.1845
16598W        W32215  10.743  17.869   4.047  0.0537  0.3052  0.1823
16599W        W32216   1.754  14.126  16.278 -0.0034 -0.2157  0.2567
16600W        W32217   7.888   3.707   0.565  0.0066 -0.0104  0.0848
16601W        W32218  10.719  16.776   1.017  0.0984 -0.1392  0.0049
16602W        W32219  10.259   4.585   4.974 -0.0442  0.1967  0.1968
16603W        W32220   8.793   4.876  13.254  0.1943  0.0030 -0.2263
16604W        W32221   8.446  17.009  11.328  0.0940 -0.0479  0.0599
16605W        W32222  17.281   1.666   4.798 -0.0477  0.1128 -0.1449
16606W        W32223   5.583   3.739  14.793  0.3941 -0.1790  0.1455
16607W        W32224   1.611   3.914  11.951 -0.0010  0.1587  0.3244
16608W        W32225   5.728   6.651   4.488  0.0102  0.1932 -0.0239
16609W        W32226   9.719  11.114  15.517 -0.1840 -0.2628  0.1282
16610W        W32227   3.393   6.819   0.731  0.1112 -0.1412 -0.0378
16611W        W32228   6.975   3.288   2.053 -0.2574  0.2216  0.1031
16612W        W32229  15.203   3.735  16.410 -0.2642 -0.0165 -0.0899
16613W        W32230   2.105   0.804   1.855 -0.0900  0.1485  0.1537
16614W        W32231   3.530   2.007  13.809  0.0076 -0.2480  0.3182
16615W        W32232   4.051   7.944  14.619 -0.0596 -0.0057  0.2092
16616W        W32233   8.621  13.348  15.263 -0.0306  0.1101  0.1576
16617W        W32234   3.700   4.779   4.382 -0.1385 -0.0408 -0.3165
16618W        W32235  15.352   0.445   2.150  0.1651 -0.2829 -0.2307
16619W        W32236  13.359   9.633   3.424  0.1594 -0.0833 -0.0291
16620W        W32237  11.977  14.971   0.791  0.2526  0.0614  0.0286
16621W        W32238  13.294   9.379   3.883  0.0254  0.0908 -0.0888
16622W        W32239  17.001  13.098   5.138 -0.1449  0.0461 -0.2518
16623W        W32240  10.374  16.403  14.050  0.1701  0.0848  0.0295
16624W        W32241  10.632  13.017   3.344  0.0072 -0.1693  0.0785
16625W        W32242   7.731  11.642   1.728  0.2370  0.1895 -0.4279
16626W        W32243   6.166  10.776  15.798 -0.0533 -0.1358 -0.3272
16627W        W32244   9.862  10.634  15.572 -0.0766  0.2675  0.2278
16628W        W32245   7.114  12.912   5.017  0.0229 -0.0026 -0.0250
16629W        W32246   4.480   9.598  13.188  0.1581 -0.0780 -0.1397
16630W        W32247   4.195   4.892   5.980 -0.0421 -0.2636  0.0202
16631W        W32248  10.701  14.674   2.083 -0.0587 -0.0532 -0.0888
16632W        W32249  15.207   0.015  13.320 -0.1582  0.1032  0.0914
16633W        W32250   6.708   3.023   4.705 -0.1919 -0.2356 -0.0738
16634W        W32251   7.917   2.614  12.557  0.0583  0.1306  0.0995
16635W        W32252   2.223   3.631   0.496  0.0414  0.0436  0.2767
16636W        W32253   9.830  12.650   0.590 -0.1691  0.0930 -0.0712
16637W        W32254  17.296  17.432   1.280  0.3010  0.1660  0.2195
16638W        W32255  12.569   6.892  15.054 -0.0331  0.3009 -0.0516
16639W        W32256   0.820  14.601   4.531  0.0319 -0.1240 -0.0953
16640W        W32257   3.027   6.983   5.327  0.1980  0.0197  0.0436
16641W        W32258  13.900  15.403  12.474 -0.0823 -0.1472 -0.0563
16642W        W32259   5.807  12.377  12.738  0.1130 -0.2759 -0.3278
16643W        W32260  17.574  15.563  11.661 -0.1114  0.0806  0.1010
16644W        W32261   8.221   5.410  12.504 -0.1975 -0.0998 -0.0763
16645W        W32262   1.567   9.013  13.215  0.1472  0.1135 -0.0103
16646W        W32263   4.924   5.322  13.673 -0.1740  0.1882 -0.0787
16647W        W32264  17.428  10.000   5.664 -0.0885 -0.1422 -0.1683
16648W        W32265  11.633  11.443  16.454 -0.2154 -0.2195  0.0212
16649W        W32266  10.749   1.527   1.136 -0.0376  0.0406 -0.0572
16650W        W32267  15.908   0.571   5.157  0.1989 -0.3753  0.1286
16651W        W32268   4.658  17.613   0.073  0.0779  0.1737  0.2786
16652W        W32269  17.513   1.240   5.315 -0.0972 -0.2344 -0.0358
16653W        W32270   7.887  15.399  12.794  0.1956  0.1642  0.1541
16654W        W32271   2.174   6.838   3.838  0.1899  0.0200 -0.0805
16655W        W32272   8.289  15.102  12.150  0.0568 -0.0652  0.1258
16656W        W32273  11.817   0.281  14.219  0.0681 -0.1369 -0.3843
16657W        W32274  16.111   7.019  13.876  0.0516 -0.2486  0.1905
16658W        W32275   7.824   1.110  13.120 -0.1144  0.0383  0.2289
16659W        W32276  15.465   1.174  15.676 -0.0134 -0.2583 -0.0294
16660W        W32277  11.048  15.062   3.740 -0.0312 -0.1094  0.2323
16661W        W32278   7.430   3.444   5.391  0.0702 -0.0199 -0.3297
16662W        W32279  15.456   8.500  14.787  0.3807 -0.0443  0.1272
16663W        W32280   4.587   9.501  13.879  0.1689  0.1162 -0.1000
16664W        W32281   4.239   4.604  13.037  0.1637  0.1654 -0.2981
16665W        W32282  12.071  12.568   6.441  0.1618  0.0661  0.2331
16666W        W32283  11.091   6.555   5.181 -0.0087  0.3263  0.1746
16667W        W32284   0.102  15.516   0.081 -0.0464  0.2010  0.0771
16668W        W32285   5.971   4.001   1.927  0.0298  0.1005 -0.0212
16669W        W32286   3.267  17.503  15.304 -0.0557  0.2214  0.0141
16670W        W32287   6.962  13.450   0.399 -0.3240  0.1179 -0.2372
16671W        W32288   1.866   5.849  16.003 -0.0643  0.1691  0.3392
16672W        W32289  16.810  12.510  13.439 -0.0703  0.3026  0.2300
16673W        W32290   8.028  15.557  16.556 -0.1217  0.1293  0.0886
16674W        W32291  11.460   1.842   2.767 -0.2395 -0.0550 -0.0934
16675W        W32292  14.656   6.932  13.984 -0.0229  0.0226 -0.1714
16676W        W32293   4.301  11.453   2.647 -0.1817 -0.3871  0.0871
16677W        W32294  10.139   8.883  15.564 -0.0723  0.1996 -0.1361
16678W        W32295   0.505   9.590   3.388  0.0692 -0.0781  0.2356
16679W        W32296   0.264  17.478   3.113 -0.3295 -0.0765  0.1695
16680W        W32297   2.512  12.827   1.445 -0.0815 -0.2883  0.1117
16681W        W32298   2.294   2.799   1.399  0.0884 -0.2434 -0.1411
16682W        W32299   9.110  16.476  14.180  0.1839 -0.1678  0.0951
16683W        W32300   4.045   7.924  12.455 -0.2762 -0.1958 -0.1076
16684W        W32301  15.800  11.309   3.251  0.0469  0.2461  0.0917
16685W        W32302  15.205   0.050  15.035 -0.0570 -0.1784  0.0431
16686W        W32303   0.226  16.139   2.059 -0.1756  0.1776 -0.2284
16687W        W32304   4.012   2.270   3.516 -0.0677 -0.1684 -0.0581
16688W        W32305   7.589   6.995  14.472  0.0720  0.0026 -0.0944
16689W        W32306  12.211  16.171   3.746 -0.1598  0.2584  0.1315
16690W        W32307   7.848   0.599  16.341 -0.1674 -0.2991  0.1603
16691W        W32308  13.738   1.235   2.239 -0.2577 -0.2067  0.1152
16692W        W32309  11.394   8.321   3.917  0.0442 -0.0189  0.0946
16693W        W32310  14.612   0.474  16.683 -0.2423 -0.0122  0.3801
16694W        W32311   1.760   5.223   6.310 -0.3366 -0.3583  0.1533
16695W        W32312   9.440  12.990  14.411  0.0654  0.2908  0.3861
16696W        W32313   4.050  16.585  12.463  0.3280 -0.0236 -0.1633
16697W        W32314   6.927  10.135  14.323  0.4282  0.2390 -0.0692
16698W        W32315   7.487   6.609   1.021  0.0055  0.3358 -0.2887
16699W        W32316   1.692  13.279  12.119  0.0716 -0.0893  0.2348
16700W        W32317  11.579   2.204   4.365 -0.2001  0.2973  0.2645
16701W        W32318   2.472   2.478  13.388  0.0076  0.0143 -0.1860
16702W        W32319  10.341  15.144  12.636  0.1187  0.0370  0.3965
16703W        W32320   9.950   8.201   1.074 -0.1644  0.0286  0.0575
16704W        W32321  10.580   3.118   5.284  0.0931 -0.3767  0.0951
16705W        W32322  13.710   8.679   2.239 -0.0619  0.0303  0.0348
16706W        W32323  17.785   9.776  15.099  0.2254 -0.0202  0.2167
16707W        W32324   8.410  11.700  15.350 -0.0282 -0.1767  0.0638
16708W        W32325   5.651  15.114   3.822 -0.0858  0.1695 -0.0479
16709W        W32326   4.654   2.226   4.827 -0.1444  0.0595  0.0121
16710W        W32327  17.490   0.126  13.764  0.1251  0.0571  0.2640
16711W        W32328  17.695  14.020   3.698 -0.1609 -0.1152 -0.1917
16712W        W32329   4.554  10.447   3.553  0.3898 -0.1420 -0.3461
16713W        W32330   4.260  16.600  11.504  0.1450  0.4235 -0.0419
16714W        W32331   1.694  15.443  12.051 -0.0523  0.0696 -0.0995
16715W        W32332  14.327  13.658   6.361  0.1423 -0.2637  0.3044
16716W        W32333   5.165   6.424  14.994  0.1247 -0.0915  0.4544
16717W        W32334   5.508  15.585  10.961  0.2711 -0.0870 -0.0286
16718W        W32335  15.213   2.954  13.186 -0.0288 -0.1148 -0.4819
16719W        W32336   1.350   0.855   5.615 -0.0794 -0.0021 -0.0795
16720W        W32337   9.499   6.747  15.367 -0.1145  0.0108 -0.0042
16721W        W32338   2.247   0.727  12.837 -0.0559 -0.1312 -0.0167
16722W        W32339   7.737  14.687   1.591 -0.0176 -0.2294  0.1679
16723W        W32340  15.305  12.754  11.742  0.1218  0.0879 -0.0645
16724W        W32341   8.888   6.843   2.937 -0.0642  0.3558 -0.2300
16725W        W32342   6.386  10.585  13.010  0.0193 -0.1811  0.0105
16726W        W32343  11.450   2.407  11.847 -0.0674 -0.2999 -0.0004
16727W        W32344   7.857  10.364  15.437 -0.1179 -0.1039 -0.2647
16728W        W32345  11.081   3.472  15.852 -0.2425 -0.0365 -0.0922
16729W        W32346   1.909  16.890   4.510 -0.3645  0.1035  0.0109
16730W        W32347  17.111  14.416   4.922 -0.0096 -0.0464  0.1279
16731W        W32348  11.171  15.543  12.645  0.1863  0.2433 -0.1548
16732W        W32349   7.318   7.748   2.328 -0.0192 -0.0387  0.1985
16733W        W32350   9.541  14.487   3.075 -0.1262 -0.0464 -0.1385
16734W        W32351  11.561   8.575   2.905 -0.3687 -0.3079 -0.1145
16735W        W32352  16.365   2.602   3.643 -0.4066 -0.1483  0.0189
16736W        W32353   5.186  15.114  13.655 -0.1953 -0.0465 -0.3442
16737W        W32354   2.014  15.606  14.709  0.0609 -0.0922 -0.0547
16738W        W32355   5.838  17.662  16.358  0.2208 -0.1172 -0.0258
16739W        W32356  10.237   4.893   1.580 -0.0573 -0.0307 -0.2605
16740W        W32357   7.909   3.458   2.849 -0.1919  0.0085 -0.0302
16741W        W32358   9.732  11.187  13.823  0.0536  0.0571  0.0709
16742W        W32359  11.160  13.695  11.674  0.1904 -0.1558 -0.0023
16743W        W32360  17.516  11.722   0.363  0.3191 -0.2922  0.1510
16744W        W32361   0.296  17.118  14.838 -0.1197  0.0294  0.0554
16745W        W32362   2.330   6.282   0.924 -0.1487  0.2054  0.0458
16746W        W32363   7.979  10.337   4.558  0.1201  0.1701  0.1750
16747W        W32364  12.495   3.228  16.664  0.0042 -0.0217  0.0786
16748W        W32365   8.782   0.429  13.321  0.2301  0.2988 -0.3082
16749W        W32366   7.536  14.369  13.841  0.1960 -0.0147  0.2339
16750W        W32367  13.705   3.909  16.801 -0.0685  0.0021 -0.0144
16751W        W32368   7.018  13.234   3.160 -0.0153 -0.1401  0.1701
16752W        W32369  10.516  13.146  11.627  0.0730 -0.2552  0.0276
16753W        W32370   3.289   2.530   1.167  0.0025  0.0632 -0.0652
16754W        W32371   6.160  17.247   0.741 -0.2202  0.0227 -0.1487
16755W        W32372   5.312   1.723   3.269 -0.0625 -0.2387 -0.0836
16756W        W32373   1.670  13.179   0.804 -0.1549 -0.0160  0.2548
16757W        W32374  14.566  13.436  13.523 -0.0686 -0.0083  0.2587
16758W        W32375  17.127  14.390  13.859 -0.2108 -0.0801 -0.4906
16759W        W32376  13.942   1.758  12.139 -0.0942 -0.2024  0.0475
16760W        W32377   8.764  12.902  15.014 -0.4629  0.0008  0.3340
16761W        W32378   5.007   6.860   3.009 -0.0611  0.0030 -0.2713
16762W        W32379   3.872  16.467  12.971  0.1478  0.0955  0.4145
16763W        W32380  11.836  16.053  13.204 -0.0212  0.2631  0.0888
16764W        W32381   2.435  12.290  14.626  0.2293 -0.2271  0.2805
16765W        W32382   4.317   6.628  12.573 -0.0625 -0.0545  0.1325
16766W        W32383   4.044  11.245  11.740 -0.0985  0.1934 -0.3017
16767W        W32384  13.630  11.781  12.920  0.1099  0.1078 -0.1825
16768W        W32385  12.922   1.120   5.349 -0.1113  0.0785  0.2497
16769W        W32386   8.034   8.688   5.612  0.4064  0.1079 -0.0494
16770W        W32387  13.676  10.026  13.096 -0.2195  0.1112 -0.0198
16771W        W32388  14.602  11.254  15.577 -0.1618  0.0708  0.3606
16772W        W32389  10.296   0.995   4.753  0.2981  0.0068 -0.0760
16773W        W32390   1.108  10.082  16.000  0.1335  0.1549 -0.1306
16774W        W32391  15.294  10.923   3.801 -0.1418 -0.2834 -0.0888
16775W        W32392  10.692   1.594   6.359  0.0801 -0.0880 -0.1692
16776W        W32393  12.497   8.750   6.292 -0.0212 -0.1649 -0.1425
16777W        W32394   2.047  14.621  12.273  0.1196 -0.1223  0.2082
16778W        W32395   8.814  10.024   0.689 -0.0174  0.1122 -0.0367
16779W        W32396   5.805   2.543   6.475 -0.0127  0.1583  0.1968
16780W        W32397   5.720  12.718  14.459  0.0397  0.0484 -0.1986
16781W        W32398  16.936  15.715   2.472  0.0585  0.0109 -0.1118
16782W        W32399   6.101   6.682  15.581  0.2241 -0.0531 -0.1296
16783W        W32400   0.455  15.838  15.784  0.0557  0.0265 -0.0044
16784W        W32401   9.594   7.973  14.512  0.1964 -0.2521 -0.0110
16785W        W32402  13.060  10.237  14.779  0.0981  0.0772 -0.0956
16786W        W32403   4.319   5.533   4.692 -0.0113  0.1425  0.0038
16787W        W32404  15.119   5.198  14.357  0.1896 -0.2292  0.1537
16788W        W32405  11.621  15.799  16.308  0.0150  0.1562 -0.0494
16789W        W32406  14.224   5.119  16.699  0.1648 -0.2561  0.1848
16790W        W32407   7.701   0.599   0.330  0.0363  0.0164 -0.2393
16791W        W32408   4.321   2.000   5.910  0.0701 -0.0315 -0.2493
16792W        W32409   7.611   1.157   1.971 -0.1548  0.3361 -0.0384
16793W        W32410   9.855   7.660   4.975  0.4200 -0.2765 -0.0062
16794W        W32411   3.903   8.036  11.760 -0.1200 -0.1600 -0.1056
16795W        W32412   2.821  11.447  11.497  0.2665 -0.2301  0.0424
16796W        W32413  16.792   9.383  14.243  0.0572 -0.1371  0.0580
16797W        W32414   8.191  10.251   0.068  0.0044 -0.3692  0.1709
16798W        W32415  12.869  13.160  15.121 -0.0862  0.0318 -0.2690
16799W        W32416   9.210  17.306  12.382 -0.2118 -0.2309  0.2639
16800W        W32417  10.511   9.468  16.606 -0.0219 -0.2611 -0.2979
16801W        W32418  12.308  15.544   4.941 -0.1040 -0.0488  0.1802
16802W        W32419   7.906   7.325  14.420  0.2246  0.1315 -0.2034
16803W        W32420  16.122   2.702  16.618  0.1331 -0.0250  0.4086
16804W        W32421  13.931  15.397   1.895  0.2740 -0.1111  0.0700
16805W        W32422   0.636  14.543  13.156 -0.2765 -0.0941 -0.0426
16806W        W32423   8.168  17.473   1.455  0.0401  0.0330  0.0545
16807W        W32424  10.745  17.753   4.594 -0.2345  0.1381 -0.0254
16808W        W32425  16.675  12.905  13.781 -0.3894  0.0359 -0.0165
16809W        W32426   9.626  16.400   2.065  0.2519 -0.3433  0.1683
16810W        W32427   7.996  16.787   4.856 -0.0090 -0.0777  0.0949
16811W        W32428  16.927  12.648   0.512 -0.1094 -0.0674  0.0803
16812W        W32429  13.618   9.834   4.744  0.0263  0.4023  0.1424
16813W        W32430   5.284  16.936   3.674 -0.1412 -0.5353  0.0351
16814W        W32431   5.488   1.744   6.051  0.1008  0.2315  0.1745
16815W        W32432   6.296  15.152   5.158 -0.1026 -0.1209  0.2778
16816W        W32433  14.054   1.718  11.638  0.0486 -0.1840 -0.2322
16817W        W32434   6.422   1.073  13.550  0.0313  0.1534  0.0342
16818W        W32435  10.980   9.413  16.386  0.1822 -0.1804 -0.0776
16819W        W32436   0.549  12.553   2.241 -0.0702 -0.0681  0.0458
16820W        W32437  16.196   2.361   0.766  0.0555 -0.0659 -0.1470
16821W        W32438   8.534   6.820   3.802 -0.0288 -0.3215 -0.0498
16822W        W32439   6.852   0.823  12.541  0.2097 -0.2064 -0.1191
16823W        W32440  15.567   6.527   1.822 -0.2075 -0.1404  0.2511
16824W        W32441   4.583   6.056  15.976 -0.0604  0.2464 -0.0657
16825W        W32442  17.639   5.765   2.040 -0.1181 -0.1172 -0.1380
16826W        W32443   6.767  14.001   4.681  0.1388  0.0094  0.2000
16827W        W32444   7.316  17.381   0.668 -0.0043 -0.0668  0.3590
16828W        W32445   3.272  11.231  15.924  0.0333 -0.1286  0.4913
16829W        W32446  11.961   2.997   0.426  0.0401 -0.1515 -0.1897
16830W        W32447  10.155   7.057   0.108  0.1453  0.0907 -0.1596
16831W        W32448   0.839   8.320  16.809  0.0764  0.1916  0.1672
16832W        W32449  10.072  12.656   3.569  0.2531 -0.0130 -0.1259
16833W        W32450  17.308  17.003   0.257  0.2516  0.2766  0.2228
16834W        W32451   6.872  14.515   4.633  0.1983  0.0667  0.0385
16835W        W32452  12.159   4.436   1.009 -0.1130  0.0681 -0.2625
16836W        W32453   8.604   4.461  12.905  0.2182  0.0754  0.0469
16837W        W32454   9.970   9.058   1.613  0.0558 -0.1005  0.2822
16838W        W32455   0.723   6.505   0.705  0.1117 -0.0024 -0.0045
16839W        W32456  16.466   4.756   2.632  0.2434 -0.1583 -0.1169
16840W        W32457  13.631   6.994   4.601  0.2447  0.1475 -0.2023
16841W        W32458   1.638   2.816   2.940 -0.0237 -0.0564  0.0701
16842W        W32459   8.649   7.191   6.364  0.3144 -0.3044  0.0675
16843W        W32460  12.613   7.008  16.424 -0.3177 -0.0173  0.0544
16844W        W32461  10.856   8.458  14.611 -0.1934 -0.2864 -0.1434
16845W        W32462  14.456  16.470   4.657 -0.1596  0.1315  0.1533
16846W        W32463   2.619   7.496  14.101 -0.1225  0.0862 -0.3468
16847W        W32464  10.857  10.142   4.377 -0.0738 -0.2372 -0.1074
16848W        W32465  16.666   2.686   4.293  0.1891 -0.0526 -0.1108
16849W        W32466   4.980   1.238  13.232 -0.0947  0.0366 -0.1696
16850W        W32467   5.402   5.004  15.605 -0.2242  0.1840  0.1185
16851W        W32468   7.629   4.790   4.166 -0.0111  0.0633  0.1454
16852W        W32469   3.561   5.093   3.005 -0.0512 -0.2317 -0.1385
16853W        W32470   2.007   8.462  15.096 -0.3795 -0.1044  0.2270
16854W        W32471  15.679   1.040   2.925 -0.0293  0.0960  0.2526
16855W        W32472   0.573  16.443   2.307  0.1777 -0.2193  0.1109
16856W        W32473  12.852  14.003  15.649  0.0212 -0.0635  0.1618
16857W        W32474  16.505   7.868  13.851  0.2930  0.1327  0.1275
16858W        W32475   0.830  14.282  14.391 -0.1538  0.0844  0.2245
16859W        W32476   7.425   7.233   3.138  0.0201  0.1547  0.0312
16860W        W32477   0.280   9.818   3.821 -0.0917  0.1638 -0.2418
16861W        W32478  10.723   5.831  12.475  0.0474 -0.1085  0.1322
16862W        W32479  10.580  12.397   4.856 -0.0422 -0.0880 -0.0517
16863W        W32480  12.035   2.445   2.061 -0.1945  0.0381 -0.2030
16864W        W32481   1.529   6.487   2.575  0.3656  0.1937  0.1376
16865W        W32482  14.382  17.414   4.131  0.1243  0.1652  0.0886
16866W        W32483   4.290   4.341  15.289 -0.2186 -0.0370  0.0916
16867W        W32484   5.087  11.574   0.741 -0.1360 -0.1183 -0.2922
16868W        W32485   1.018   3.795   2.305 -0.0455  0.1610 -0.0849
16869W        W32486  17.334  15.332   1.596  0.0516 -0.1265  0.0978
16870W        W32487  13.509  15.898   4.689  0.0032 -0.0506  0.3099
16871W        W32488   3.073   7.014  12.363 -0.3422 -0.0425  0.1030
16872W        W32489   7.720  15.194  14.470  0.0553 -0.2083 -0.3114
16873W        W32490  15.340   1.789  13.818 -0.1494  0.0956  0.0828
16874W        W32491   9.843   8.874   3.984  0.1557 -0.0182  0.1415
16875W        W32492   2.870   5.396   4.004  0.0972 -0.0940 -0.4007
16876W        W32493   6.023  16.214   5.550  0.1189  0.2900 -0.6594
16877W        W32494   8.272  14.568  16.424  0.2674  0.0427  0.0422
16878W        W32495   5.194  13.217   3.100  0.0362  0.0664  0.1577
16879W        W32496   7.594  14.298   0.198 -0.0878  0.4020 -0.1119
16880W        W32497   6.266  13.824   4.449  0.0172  0.1205 -0.1911
16881W        W32498  12.521  17.229  16.337 -0.2838 -0.0323 -0.0240
16882W        W32499  11.112   2.455   0.900 -0.1139  0.0112  0.2416
16883W        W32500  10.209  11.353  15.437 -0.1671  0.0164  0.1387
16884W        W32501   0.435  15.102  16.107 -0.0421  0.4239  0.1233
16885W        W32502  17.459   3.886  14.527  0.1382  0.6093 -0.0298
16886W        W32503   9.355  11.871   3.663 -0.3844 -0.1549 -0.1688
16887W        W32504   4.668  14.724  14.817 -0.2407  0.2035 -0.0091
16888W        W32505  15.386  11.914  14.250  0.0612  0.0146  0.1625
16889W        W32506   3.736  14.306  15.118  0.0036 -0.1130 -0.4940
16890W        W32507   3.548   7.198   5.337 -0.2184  0.0793 -0.1413
16891W        W32508   6.040   0.310  15.656 -0.1077  0.0260  0.5562
16892W        W32509   3.680  10.297   1.754  0.0330  0.0320  0.0235
16893W        W32510   9.908  17.078  11.318 -0.3962  0.2838 -0.1420
16894W        W32511   7.573   0.345  13.933  0.1488  0.0969 -0.4433
16895W        W32512  12.229  12.880  13.158 -0.3325 -0.2996  0.2996
16896W        W32513   8.273   8.880  13.219  0.0844 -0.0136  0.1894
16897W        W32514   4.799   7.980  16.351  0.2927  0.1321 -0.3950
16898W        W32515   2.839  13.831   5.246 -0.3100  0.3321 -0.0415
16899W        W32516   2.140  13.353  13.236  0.1912  0.1085  0.1351
16900W        W32517  11.897  13.399  14.287 -0.1471 -0.0425 -0.0439
16901W        W32518  15.882   3.965   2.762 -0.1367 -0.0018 -0.2084
16902W        W32519   4.941   7.303   4.305 -0.1898  0.1898 -0.2304
16903W        W32520   6.773  12.228   5.443  0.0449  0.2159  0.1244
16904W        W32521  15.211   8.650   0.303 -0.1036  0.0197 -0.1662
16905W        W32522   8.278   3.669  12.237 -0.0761  0.4414 -0.5018
16906W        W32523  12.286   6.597  12.580  0.0100  0.2392  0.0925
16907W        W32524   5.633   3.099   1.856 -0.0989 -0.1823  0.3821
16908W        W32525   7.814   1.807   5.308 -0.1129 -0.0330  0.0788
16909W        W32526   1.785  15.168  13.907  0.0119 -0.2071  0.0530
16910W        W32527   9.718   7.411  13.225  0.1981 -0.3422 -0.0284
16911W        W32528   8.213   7.199  12.698  0.0788  0.3533 -0.2497
16912W        W32529   6.379  13.508   5.218 -0.1655 -0.0579 -0.2482
16913W        W32530   9.204   4.853   0.864  0.0362  0.2643 -0.1490
16914W        W32531  15.527   2.204  13.567 -0.1327 -0.3302 -0.0129
16915W        W32532   6.790  16.234  14.858  0.2337  0.1160  0.2419
16916W        W32533  11.168   3.846  15.529 -0.0230 -0.2305  0.0136
16917W        W32534   1.765  16.760  13.030 -0.2404 -0.2421  0.0241
16918W        W32535  15.800   5.390  11.856  0.3354  0.0111 -0.0837
16919W        W32536   3.609  10.249  12.347 -0.2656 -0.1463  0.1417
16920W        W32537   3.143   6.230   3.056 -0.0156 -0.1484  0.3498
16921W        W32538  11.698   7.170   4.815 -0.4170 -0.4016  0.0863
16922W        W32539  13.921   0.604   3.725 -0.2093  0.3214 -0.2347
16923W        W32540  16.060  14.280  14.812 -0.1313  0.3265  0.2768
16924W        W32541  10.225  15.599   0.681 -0.1118  0.0170 -0.2640
16925W        W32542   9.011   8.070  15.827 -0.0454  0.3172  0.1441
16926W        W32543   5.707  17.123  14.309  0.0228 -0.1304 -0.0919
16927W        W32544  12.001  15.948  16.642  0.1743  0.1727 -0.2631
16928W        W32545   7.257  16.531   3.064  0.0227  0.0894  0.2515
16929W        W32546  14.261  12.654  12.984  0.0510 -0.0369 -0.4284
16930W        W32547   6.217  16.896  14.010  0.1553  0.2610  0.0662
16931W        W32548  12.844   6.796   5.236 -0.0614  0.1431  0.2951
16932W        W32549  16.126   5.593   4.376  0.0871 -0.0598 -0.2571
16933W        W32550   3.410  12.900   0.458 -0.2199 -0.1021  0.1018
16934W        W32551  14.136   1.786   2.256  0.3464 -0.1369  0.3460
16935W        W32552   2.895   2.212  14.639  0.1134 -0.1923  0.0116
16936W        W32553   6.229  11.602   2.196  0.1204 -0.0286  0.0955
16937W        W32554   2.311  16.128   3.701  0.2708 -0.2849  0.0493
16938W        W32555  10.265   8.732   3.246  0.0294 -0.4315 -0.0262
16939W        W32556  12.190  16.435  11.590 -0.4912 -0.1041 -0.1488
16940W        W32557  12.271   5.511  13.708  0.1349 -0.0232 -0.1466
16941W        W32558   3.568   5.369  15.405  0.1628 -0.0629  0.0942
16942W        W32559  14.560   1.507  14.196 -0.1904  0.1278 -0.0293
16943W        W32560  14.136   3.630   4.888  0.0598  0.1122  0.0529
16944W        W32561   1.983  15.949   4.046  0.0881 -0.1101 -0.1413
16945W        W32562   4.584  11.847  15.752 -0.0216 -0.0027 -0.0284
16946W        W32563   0.724   3.982  15.809  0.0630 -0.0238  0.2668
16947W        W32564   2.828   3.158  12.236 -0.2087 -0.0705 -0.1068
16948W        W32565   9.869  17.163  12.976  0.3324  0.4333  0.1693
16949W        W32566  12.927  13.593   0.749  0.0016 -0.2848  0.3029
16950W        W32567   7.732  14.394   3.036  0.3424  0.0351  0.0532
16951W        W32568   0.223  10.227   5.087  0.2150 -0.0456  0.3701
16952W        W32569   9.014  15.993   0.591  0.2903  0.3658  0.2228
16953W        W32570  10.799  12.781  16.260  0.0649 -0.0224 -0.0296
16954W        W32571   4.045   4.951  16.500 -0.3127  0.2458 -0.0806
16955W        W32572   3.608  12.430   0.658  0.0597 -0.1231  0.2147
16956W        W32573   6.648   8.035  15.061  0.2826  0.4818  0.3742
16957W        W32574   8.082  10.136   3.697  0.1043 -0.1579  0.0956
16958W        W32575  16.974   8.125   4.655  0.3906 -0.0273 -0.2518
16959W        W32576   3.228   3.313  12.453  0.0478  0.0073 -0.0313
16960W        W32577   4.182   3.041  16.219  0.2187 -0.0727  0.0154
16961W        W32578  15.741   8.695   0.077 -0.2769  0.1208  0.0353
16962W        W32579   5.266  10.252  15.390  0.0557 -0.2290 -0.2449
16963W        W32580  16.484   9.218  12.083  0.0514  0.0607  0.0428
16964W        W32581  15.835   1.121   4.136  0.0772 -0.2477 -0.0285
16965W        W32582  11.087   3.442  12.694 -0.1626 -0.1244  0.3243
16966W        W32583  13.262   3.728   1.192 -0.0776 -0.2325  0.1138
16967W        W32584  10.980  14.901   2.815  0.0811  0.2027 -0.0999
16968W        W32585   3.272   0.884   5.907  0.0683 -0.2711  0.0295
16969W        W32586  13.052   4.120   3.500 -0.2502 -0.1226 -0.2229
16970W        W32587   4.521   1.908  14.321  0.2257  0.0872 -0.1373
16971W        W32588   5.915  11.373  13.630 -0.0590 -0.0389  0.1552
16972W        W32589  14.984   1.091   3.144  0.0676  0.1262  0.3337
16973W        W32590  16.200   8.618  13.735 -0.1588  0.0588 -0.1547
16974W        W32591   1.966   4.560  12.655  0.2974  0.1392 -0.2733
16975W        W32592   4.571  13.407   0.147 -0.0617  0.0520  0.1601
16976W        W32593   0.140  15.374   0.971 -0.0249  0.0958  0.0545
16977W        W32594   3.853   0.144  14.888 -0.2217 -0.1015 -0.1851
16978W        W32595  11.458   4.661   3.069  0.3252 -0.0691 -0.1108
16979W        W32596   4.815  10.739   0.457  0.0477  0.0200  0.1451
16980W        W32597  15.263  13.628  14.808  0.0971 -0.1544  0.0467
16981W        W32598   7.472  10.482   0.468  0.0322 -0.1239  0.2113
16982W        W32599   7.051   1.907   2.017 -0.0974 -0.1519 -0.1207
16983W        W32600   6.454   9.390   3.107 -0.2109 -0.0252  0.3157
16984W        W32601   4.615   4.438  11.972 -0.0224  0.1037  0.1931
16985W        W32602   8.780  17.141  14.367  0.0765 -0.2366 -0.0573
16986W        W32603  17.834   5.090   3.464  0.0577  0.0167  0.0657
16987W        W32604   4.981  16.086  11.224  0.0869 -0.0390  0.0086
16988W        W32605   8.813  11.216  13.387  0.1074 -0.1230 -0.1546
16989W        W32606   5.412  10.379   1.553 -0.0577 -0.1712  0.1495
16990W        W32607  13.053   6.844   2.838  0.2056 -0.1359 -0.1237
16991W        W32608  17.823   0.769   2.059 -0.2686 -0.0253 -0.3319
16992W        W32609   9.158  10.858   4.701  0.0605 -0.2316  0.3277
16993W        W32610   3.330  13.046   5.049 -0.2706  0.0719  0.0627
16994W        W32611  13.174   5.845  13.349 -0.1402  0.1489  0.2750
16995W        W32612  15.943   7.074  15.930  0.0691  0.0507  0.0190
16996W        W32613   2.604  12.339   4.133 -0.1370  0.0087  0.0705
16997W        W32614   2.879  16.693   0.439  0.1430  0.0673 -0.3053
16998W        W32615  14.401  10.322  16.388 -0.0547  0.0273  0.2342
16999W        W32616   9.822  15.729   5.417  0.0992 -0.0556  0.0894
17000W        W32617   8.577  13.273   1.476  0.1773  0.1804  0.3659
17001W        W32618  14.304   4.519   3.650 -0.1748  0.0395  0.0291
17002W        W32619   7.588   6.717  12.754  0.0053  0.0725  0.1750
17003W        W32620   7.037  15.790  15.793 -0.2695  0.1955 -0.1432
17004W        W32621   4.163  10.315   3.313  0.0382  0.0537  0.2121
17005W        W32622  15.017  11.885   3.676 -0.2101  0.0080 -0.2095
17006W        W32623   0.766   5.650  13.357  0.4773 -0.1410 -0.0829
17007W        W32624  15.548   0.371   5.510 -0.3138  0.1074  0.0595
17008W        W32625   1.778   1.624  10.718  0.2094 -0.1766  0.2276
17009W        W32626   6.130  15.212  12.545 -0.1394 -0.1391 -0.0397
17010W        W32627   0.809   6.024  12.334  0.0667 -0.2097  0.1359
17011W        W32628   5.045   6.978   2.133 -0.1913 -0.1968  0.0278
17012W        W32629  10.351   2.719   5.058 -0.3353 -0.3042  0.1442
17013W        W32630   3.696   1.928   3.330 -0.2166  0.4807  0.0738
17014W        W32631   2.377   9.734   3.861 -0.0025 -0.2639 -0.0372
17015W        W32632   7.153   8.176   3.523  0.1781  0.1066  0.0592
17016W        W32633   5.997  11.146  11.890  0.0044  0.0216  0.0782
17017W        W32634  13.915  16.159  15.983 -0.0560  0.1423  0.2301
17018W        W32635  14.414   4.471   4.177 -0.4650 -0.0517 -0.0099
17019W        W32636   0.327   2.949  15.945  0.0657  0.1213 -0.0362
17020W        W32637  13.610   1.735   2.123  0.1203  0.1553  0.1059
17021W        W32638  11.445  11.583   2.440 -0.0920  0.0762  0.1052
17022W        W32639   7.141  10.524  12.504  0.2372  0.1991 -0.0050
17023W        W32640  14.401   4.147  16.389  0.0430  0.0647  0.1096
17024W        W32641   5.791   8.487   2.394  0.3130 -0.1532  0.1675
17025W        W32642  12.353  17.400   5.179  0.0818 -0.2036 -0.2627
17026W        W32643   7.281  17.514  12.738 -0.0632 -0.0125 -0.0118
17027W        W32644   7.142   0.569   1.295 -0.0498 -0.0691 -0.3338
17028W        W32645  10.675   0.462  14.168 -0.1746  0.0588 -0.2361
17029W        W32646   5.369  17.814   3.805 -0.0039 -0.2196 -0.1429
17030W        W32647  10.554   9.177  14.772 -0.1251 -0.0782 -0.1178
17031W        W32648  12.303   5.398   2.402 -0.1649 -0.1899 -0.2678
17032W        W32649   9.711   4.107   1.531  0.1371 -0.0133 -0.1030
17033W        W32650  17.352   0.221   1.881  0.2236 -0.0574  0.0903
17034W        W32651   7.351  11.120  16.152  0.1340  0.2207  0.1294
17035W        W32652   9.019   8.254   2.363 -0.2674  0.1835  0.5810
17036W        W32653   5.472   1.505   5.574 -0.0704 -0.4157 -0.0249
17037W        W32654  16.751   0.108   4.191 -0.1343 -0.0513 -0.2398
17038W        W32655   4.038   4.303   5.287 -0.0437  0.2543  0.1748
17039W        W32656  14.419   1.287  14.657 -0.0896 -0.0140  0.0445
17040W        W32657  14.640   8.994   3.663  0.0745  0.0733  0.1349
17041W        W32658   9.368  10.566   6.105  0.2103 -0.1409 -0.2673
17042W        W32659   0.798  16.215  15.713  0.0723 -0.2787 -0.0894
17043W        W32660  16.995   9.271   1.998 -0.3435  0.3634  0.0609
17044W        W32661   8.386  10.975   2.925  0.0393  0.0232  0.0694
17045W        W32662   0.264  11.449   3.371 -0.1997 -0.2910  0.0675
17046W        W32663   3.783   0.360  14.396  0.0203 -0.0785 -0.0133
17047W        W32664   5.645  15.777   5.507  0.3472  0.2169 -0.1136
17048W        W32665  13.873   2.226  12.809 -0.0610  0.1751  0.1596
17049W        W32666  10.099   2.611   2.771 -0.0868  0.0486 -0.0081
17050W        W32667  13.271  12.878  15.340  0.1962 -0.1427  0.0633
17051W        W32668   6.382   8.529   3.280  0.0703  0.1686  0.0675
17052W        W32669   3.544   7.371  15.703  0.0789 -0.0204  0.1322
17053W        W32670   3.636   7.100  13.574  0.1765  0.0234 -0.1450
17054W        W32671   5.516   1.519  14.936 -0.1192  0.0863  0.1923
17055W        W32672   1.808   5.715  11.019  0.0153  0.2820  0.0205
17056W        W32673   4.435  16.360   4.992  0.0412 -0.0718 -0.1024
17057W        W32674  10.976  16.762  13.279  0.0594 -0.0944  0.1647
17058W        W32675   8.315   5.470  14.871  0.1916 -0.1348  0.0814
17059W        W32676  17.607  12.271   0.731  0.2231 -0.1797  0.0599
17060W        W32677   8.780   9.523   4.299  0.0355  0.1757  0.0181
17061W        W32678  12.729   3.783   1.739 -0.0669  0.1960  0.0490
17062W        W32679  16.808   0.333   1.032 -0.2020 -0.3857 -0.1129
17063W        W32680   2.368  12.469  13.109 -0.1216  0.0211  0.0385
17064W        W32681  11.665   4.439  12.380  0.2594  0.1236  0.0618
17065W        W32682  12.446  16.117   5.737 -0.0375 -0.0464 -0.1960
17066W        W32683   6.791  14.119   1.891  0.1852 -0.1802 -0.0522
17067W        W32684   9.336   5.094  15.094 -0.0534 -0.0874  0.2123
17068W        W32685  15.940   2.141   5.319  0.0158 -0.1529 -0.0361
17069W        W32686   0.055  14.853   0.907 -0.1509 -0.1976 -0.0303
17070W        W32687  15.080  15.311   5.036 -0.0917  0.0317  0.0494
17071W        W32688   5.071  14.844  15.208  0.4289 -0.0121 -0.2579
17072W        W32689   8.427  10.158  14.875 -0.0554 -0.4999  0.0372
17073W        W32690   7.247  13.401  12.011  0.2309 -0.1880  0.1684
17074W        W32691  10.248  13.106  15.581  0.0085  0.4310  0.0602
17075W        W32692  16.789  16.107  13.536 -0.1303 -0.1363 -0.0223
17076W        W32693   7.160  17.209   5.283  0.1900  0.2224  0.0846
17077W        W32694  13.092   3.493   1.615 -0.0389  0.0032 -0.3544
17078W        W32695  14.703  10.927  12.277 -0.2791 -0.1794 -0.0082
17079W        W32696   4.871   9.882  14.639 -0.0496 -0.1494 -0.2149
17080W        W32697  10.950  10.305   3.673  0.2809  0.0820  0.0814
17081W        W32698   5.299   7.730   3.689 -0.0148  0.0581 -0.2412
17082W        W32699   5.507   0.319  10.814 -0.4100  0.1908 -0.3817
17083W        W32700  15.585   5.126   2.009 -0.0852  0.0583 -0.0731
17084W        W32701   1.217   2.953   3.697 -0.0883 -0.2692 -0.1371
17085W        W32702   0.156  15.678   1.870 -0.0350 -0.1098  0.1233
17086W        W32703  14.822   5.530  14.112 -0.0993 -0.0023 -0.1842
17087W        W32704   4.684   2.169  12.622 -0.0097  0.0031 -0.0261
17088W        W32705   1.051   8.188   1.503 -0.0877 -0.1212  0.0880
17089W        W32706  14.941   1.828  16.377  0.0673  0.1215  0.1159
17090W        W32707  14.760   2.334  11.746  0.0714  0.0817 -0.0158
17091W        W32708  10.897  17.570  12.161  0.0199  0.0580  0.1308
17092W        W32709   5.201   0.421   0.018  0.6175 -0.0023 -0.2015
17093W        W32710  12.923  13.140   0.396 -0.1770  0.0458  0.1145
17094W        W32711   8.406   1.031  11.812  0.0696 -0.0771  0.0946
17095W        W32712   0.715   5.684   6.483  0.0650 -0.1114 -0.3324
17096W        W32713  15.222  11.619   1.625  0.1271 -0.1005 -0.0778
17097W        W32714   3.172  13.183  15.899  0.0124 -0.0461 -0.2361
17098W        W32715   1.069  12.120  15.394 -0.2063  0.2158  0.1429
17099W        W32716  13.826  11.293   4.894 -0.0343 -0.3414 -0.0128
17100W        W32717   4.991   3.242   4.211  0.2292 -0.5199 -0.3005
17101W        W32718   2.001   4.010   5.571 -0.3106  0.1166 -0.1575
17102W        W32719   9.955   2.226   3.578 -0.2206 -0.1269  0.0189
17103W        W32720   8.803   3.126   3.482  0.0891  0.0488 -0.3648
17104W        W32721  16.798  13.026  15.420 -0.0505 -0.0358 -0.6114
17105W        W32722  10.800  17.696  12.758  0.1603 -0.0273  0.0997
17106W        W32723  13.275   7.260  16.672 -0.4180 -0.2156 -0.3082
17107W        W32724  13.427  16.861  15.813  0.1043 -0.1156 -0.0351
17108W        W32725  11.834   2.490  14.901  0.0039  0.0290  0.0347
17109W        W32726   4.543  10.975  12.131 -0.1026  0.2141 -0.1312
17110W        W32727  13.771   3.792   1.096  0.2446  0.0008  0.0837
17111W        W32728   2.703   0.164  11.198  0.0260 -0.0229  0.3600
17112W        W32729   3.663   0.453  15.321 -0.0998  0.2235  0.0932
17113W        W32730   8.434  13.392  15.714  0.0014  0.0468  0.0846
17114W        W32731  11.760   3.510  11.872 -0.0019  0.3055  0.2703
17115W        W32732  10.938   7.739  14.918 -0.0174  0.0780 -0.0622
17116W        W32733   3.957   8.175   6.198 -0.0315 -0.0243 -0.2214
17117W        W32734   8.262  15.764  15.582  0.0736 -0.1915 -0.0535
17118W        W32735  17.636   7.504  11.872 -0.2815 -0.0073 -0.0078
17119W        W32736  15.103   5.054  16.485 -0.1616 -0.0515  0.1501
17120W        W32737   3.445   5.235  11.611  0.1590  0.0936  0.0554
17121W        W32738   4.395   5.755  16.357 -0.0570  0.2563 -0.0362
17122W        W32739   3.882  13.571  12.078 -0.3126  0.0598  0.0165
17123W        W32740  15.482  15.964  11.007  0.1818 -0.0497  0.1596
17124W        W32741  14.248   2.194  11.831  0.1012  0.1599  0.2467
17125W        W32742  14.679   7.077   5.878 -0.0722 -0.4033 -0.4105
17126W        W32743  10.881  10.101   2.609  0.0197  0.2080 -0.1616
17127W        W32744   1.153  12.688   5.356 -0.2525 -0.1547  0.0210
17128W        W32745   6.285   6.655  14.408  0.1703 -0.1825  0.1251
17129W        W32746   4.199  16.423   0.418 -0.1559  0.2950 -0.2907
17130W        W32747  16.060  12.753  16.428 -0.1422 -0.0130  0.1980
17131W        W32748   1.352   0.642  14.377 -0.0697  0.0103  0.0523
17132W        W32749  13.468   3.945  15.776 -0.1514 -0.0340 -0.0926
17133W        W32750   3.287   9.918  14.194  0.1949 -0.1766  0.3250
17134W        W32751   3.639   5.959   0.217 -0.1671  0.0724 -0.1914
17135W        W32752   7.145   7.965   0.673 -0.0897  0.1213 -0.1407
17136W        W32753   8.912   9.602   5.327  0.1441  0.1779 -0.1196
17137W        W32754   4.945   7.264  12.125  0.3290  0.0613  0.1868
17138W        W32755   1.279  11.190  16.649  0.1262  0.1546  0.3342
17139W        W32756   7.564  16.052   5.480  0.3996  0.3112  0.2649
17140W        W32757   1.722  15.074   0.577 -0.0888  0.1511  0.2272
17141W        W32758   4.252   1.952   0.126 -0.0026  0.0908  0.1131
17142W        W32759  11.041   4.913   2.872 -0.2014  0.1507  0.2375
17143W        W32760   3.234  11.277   3.448 -0.0108 -0.1879  0.3130
17144W        W32761   7.657  13.412   5.597 -0.1481 -0.0525 -0.1778
17145W        W32762  16.758   8.107  14.913 -0.0406 -0.1019  0.2274
17146W        W32763   3.582  11.027  15.602 -0.4418  0.1400 -0.0110
17147W        W32764   9.606  15.989  12.598  0.3093 -0.0109  0.4237
17148W        W32765  16.953   3.152  16.597  0.3051 -0.1627 -0.1031
17149W        W32766   8.547   8.784  12.753  0.1195  0.3314  0.1351
17150W        W32767  11.192   2.088  16.035 -0.1370 -0.0212 -0.1973
17151W        W32768  10.969   7.162   1.288  0.0594  0.1547 -0.0396
17152W        W32769  15.413   3.617  12.067 -0.0527 -0.0161 -0.1402
17153W        W32770   9.710  11.361  16.696 -0.2495 -0.0954 -0.1175
17154W        W32771  15.010   8.211  12.676  0.0545 -0.1206 -0.1285
17155W        W32772   3.217  11.557  12.607 -0.1351  0.1324  0.1296
17156W        W32773  17.535   5.318   5.228 -0.0819  0.3522 -0.0806
17157W        W32774  16.202  14.596  15.826  0.1102  0.2187  0.1162
17158W        W32775   0.826   9.971  13.312  0.1319  0.0796 -0.0332
17159W        W32776  16.093   4.478  13.200  0.1940  0.0675 -0.2717
17160W        W32777   1.163   9.564   0.546 -0.0250  0.2411  0.0100
17161W        W32778   6.787   1.546  16.112  0.1221 -0.0678  0.0425
17162W        W32779   2.817  15.354   0.191 -0.1112  0.2176 -0.1166
17163W        W32780   0.023   0.950  12.251 -0.0949  0.0386 -0.4033
17164W        W32781   4.449   3.310   1.681  0.1625  0.0195 -0.3787
17165W        W32782  15.490   2.208   5.128  0.1141  0.1415 -0.1385
17166W        W32783  11.814   9.677  14.078  0.1185  0.0453  0.0738
17167W        W32784   5.802   6.991   3.526  0.0756 -0.1032 -0.0365
17168W        W32785  11.098  17.535  11.230 -0.0942  0.0555 -0.0443
17169W        W32786   6.933   2.207  12.998  0.1426 -0.2266  0.0076
17170W        W32787  12.707  10.128   6.034 -0.0026 -0.0418 -0.2971
17171W        W32788  16.882   1.637  13.141  0.1208 -0.1571  0.2635
17172W        W32789  11.291   2.510  13.635  0.1058  0.1896 -0.1135
17173W        W32790  10.223   8.727  16.108 -0.3078 -0.1286  0.0705
17174W        W32791  13.254   1.325   1.239 -0.1066  0.2782 -0.2102
17175W        W32792   8.562  11.381   4.479  0.0407  0.2880 -0.2974
17176W        W32793   2.479  16.996   5.968 -0.3133  0.1186  0.2002
17177W        W32794  13.115   4.728   4.289  0.1404  0.0466  0.0246
17178W        W32795   9.855  16.519  11.348  0.0091 -0.2684  0.1275
17179W        W32796   5.742   7.999  12.911 -0.1546 -0.1270 -0.2040
17180W        W32797   9.838  17.652  13.011  0.1672 -0.0587 -0.1487
17181W        W32798  16.686   5.322  15.237  0.0120 -0.0278 -0.1351
17182W        W32799  14.100  15.868   3.650  0.1548 -0.0150  0.0437
17183W        W32800  10.015   8.064   5.752 -0.0828  0.0137 -0.2210
17184W        W32801  16.429  15.684   2.244  0.3866  0.1099 -0.0525
17185W        W32802  10.150  10.120   0.439  0.1347  0.5187  0.2028
17186W        W32803   9.462  16.793   1.766 -0.0521  0.3203 -0.0319
17187W        W32804  13.239   0.260  11.431  0.2591  0.2323 -0.1124
17188W        W32805  17.788   5.931  13.968 -0.3493 -0.3812 -0.0582
17189W        W32806  14.337  14.644  14.734 -0.4092  0.0165 -0.0426
17190W        W32807  11.205   0.098   5.801  0.0501  0.3056 -0.0089
17191W        W32808   2.048   9.584   2.121 -0.1371  0.1127 -0.0503
17192W        W32809   9.380  10.729  12.247  0.2554  0.1802 -0.0446
17193W        W32810   9.543   6.615   3.222  0.2720  0.2488  0.0477
17194W        W32811   6.859   6.710   0.552 -0.0823  0.1959 -0.2011
17195W        W32812  14.119   9.112   3.618 -0.0381  0.1321  0.0157
17196W        W32813   0.281  17.626   1.766 -0.0440  0.1461 -0.0274
17197W        W32814   8.925   6.474   2.626 -0.0397 -0.0633  0.0625
17198W        W32815  11.310   1.322   0.811 -0.0167 -0.0551  0.0431
17199W        W32816   8.152  15.218  14.826  0.0613  0.0184 -0.1884
17200W        W32817   4.295   2.488   2.711  0.5565 -0.3281  0.1643
17201W        W32818  17.554   1.369  15.142  0.0354  0.2327  0.1741
17202W        W32819   1.927   7.627   1.378  0.2511  0.0674  0.1142
17203W        W32820  16.085  15.763  12.654 -0.0097  0.3215 -0.0593
17204W        W32821  10.647  16.623  13.704 -0.2531  0.0888 -0.0939
17205W        W32822   2.470  17.336   1.053  0.2143  0.1425 -0.0701
17206W        W32823   6.982   7.454   1.992 -0.0933 -0.1999  0.2928
17207W        W32824  14.854   8.577  14.253  0.2675 -0.1102 -0.0239
17208W        W32825  11.063   9.196  15.756  0.0726 -0.1132  0.5023
17209W        W32826  17.438  13.477   1.897 -0.2584 -0.1124  0.2578
17210W        W32827   2.703  15.103   1.732  0.1564 -0.1629 -0.0546
17211W        W32828  16.959  16.631   0.152  0.0850 -0.2427  0.2444
17212W        W32829  10.360  10.557  12.601 -0.1032  0.1292 -0.2467
17213W        W32830   9.796   7.390  16.127 -0.0120  0.0007  0.3148
17214W        W32831  17.042  12.884  12.431  0.1290  0.1120  0.0483
17215W        W32832   2.293  11.637  15.387 -0.0001  0.1570 -0.2652
17216W        W32833  12.556  10.614   0.460 -0.0885  0.2075 -0.1365
17217W        W32834   0.880  10.769  15.113  0.1161  0.2832 -0.0489
17218W        W32835   5.412   1.487  11.438 -0.2362  0.0447  0.0381
17219W        W32836  12.296   1.790   4.141  0.3706  0.0530  0.1347
17220W        W32837  14.619   4.701  12.452 -0.1900  0.1520 -0.0337
17221W        W32838  17.818   5.391   1.282 -0.2741 -0.0234 -0.0952
17222W        W32839  15.839   6.974   1.584 -0.0233 -0.0486  0.0828
17223W        W32840  15.172   7.519   4.985 -0.2008 -0.1463  0.1973
17224W        W32841  15.178   5.758   4.093  0.1267 -0.1103  0.1154
17225W        W32842   2.230   9.939   4.320  0.0647 -0.0955 -0.0080
17226W        W32843   2.404  15.646   0.415  0.1333  0.1068 -0.0786
17227W        W32844  15.952   2.733   3.197  0.3162 -0.2551 -0.0997
17228W        W32845  12.942  10.065  15.328  0.0267 -0.2058 -0.0619
17229W        W32846  13.288  12.145   1.928  0.2834  0.3181 -0.0425
17230W        W32847  15.026   2.874  10.502 -0.0653  0.1960 -0.1153
17231W        W32848   2.237   1.262   2.234  0.2833 -0.0478  0.2539
17232W        W32849   8.949  14.529   3.740  0.0940 -0.0321 -0.0605
17233W        W32850   6.355   9.628   3.644  0.2332  0.0712 -0.0457
17234W        W32851   2.804   9.558  15.691 -0.0896  0.1292 -0.4258
17235W        W32852  12.389   4.284   2.358 -0.1593 -0.3089 -0.3264
17236W        W32853   1.004   7.783  15.030 -0.0139 -0.0617 -0.0197
17237W        W32854   2.132  12.510  15.602  0.1053  0.2328  0.0277
17238W        W32855   3.277   5.989  14.004 -0.0795 -0.4278 -0.3181
17239W        W32856  12.500  11.989  16.488 -0.1008 -0.0511 -0.1839
17240W        W32857  10.519   2.650   1.747  0.0497 -0.2055  0.0660
17241W        W32858   7.816   9.935   4.233 -0.1689  0.0848 -0.0909
17242W        W32859   0.562  11.467   5.842 -0.0497  0.1331  0.2402
17243W        W32860  15.152  14.159  14.861  0.0733  0.0034  0.2089
17244W        W32861  14.272   8.563   3.498 -0.2131 -0.0638  0.1200
17245W        W32862   4.526   5.186  16.421  0.1034 -0.1367  0.1663
17246W        W32863  17.286   3.739   2.448  0.0094  0.0363 -0.1152
17247W        W32864   8.548   9.196  12.458  0.0205  0.1599 -0.1404
17248W        W32865   1.841  12.346   4.092  0.1943 -0.1745 -0.0852
17249W        W32866   2.224   5.693  13.237  0.3739  0.2960 -0.2089
17250W        W32867   3.486   3.169   2.023  0.0807 -0.2225 -0.3624
17251W        W32868   8.335  11.532  12.171 -0.0163  0.3320  0.0099
17252W        W32869  15.677  14.332   2.543 -0.0313 -0.2718  0.2945
17253W        W32870   0.604  15.493   3.327  0.1768  0.1298  0.1570
17254W        W32871  15.654  14.301   4.149 -0.3791  0.0656 -0.2193
17255W        W32872   0.488  11.497   1.736  0.2048  0.1179 -0.1314
17256W        W32873  10.636   8.810  15.248 -0.1663  0.1664 -0.1201
17257W        W32874   1.676  10.680   3.437 -0.0342 -0.0913 -0.0387
17258W        W32875  10.253   4.665  14.292  0.0285 -0.1065  0.0711
17259W        W32876  15.213  14.396  16.182  0.0682  0.1983 -0.1638
17260W        W32877  15.219   9.062   3.022  0.1629 -0.1482  0.1800
17261W        W32878  13.253   5.891   4.348 -0.1926  0.0271  0.0676
17262W        W32879  16.947  16.242  14.438 -0.3162  0.2507 -0.1091
17263W        W32880  13.859   1.889   3.347  0.1397  0.1460 -0.3757
17264W        W32881  13.240  14.730  16.245  0.2118  0.3104 -0.1060
17265W        W32882   2.953   8.966   4.665 -0.0527 -0.0702 -0.1005
17266W        W32883  11.197  11.610  12.274  0.2255  0.2627  0.2615
17267W        W32884   5.729   0.137  16.062 -0.0649  0.0862 -0.1970
17268W        W32885   5.548   8.659   2.816 -0.0845  0.0689 -0.2752
17269W        W32886  16.099   5.011   2.255 -0.1832 -0.0837  0.1830
17270W        W32887   6.363   0.066  14.521 -0.0858 -0.0369 -0.2720
17271W        W32888  11.653   6.808   4.112 -0.0387 -0.2179  0.2890
17272W        W32889   3.670   7.835   3.612 -0.1400 -0.4049  0.1703
17273W        W32890  14.695   1.008   5.002  0.1131  0.2126  0.0145
17274W        W32891   1.973  15.237   2.880 -0.0883  0.1403  0.0903
17275W        W32892  13.597   8.387   1.490 -0.0979 -0.1432 -0.0077
17276W        W32893  10.930  14.333  13.806 -0.1769  0.0206 -0.3376
17277W        W32894  14.515   8.500   2.000 -0.0336  0.0084  0.2744
17278W        W32895  15.172   1.192  12.021  0.1481 -0.0880 -0.2896
17279W        W32896   9.139  10.790   0.389  0.1892 -0.0874 -0.0039
17280W        W32897  14.865   4.233  11.146  0.0791 -0.3081 -0.1445
17281W        W32898   5.085  11.588  15.803 -0.0743 -0.0108  0.1338
17282W        W32899   6.750   1.218  14.444  0.2613  0.1813 -0.3351
17283W        W32900   6.718   1.453   2.238 -0.0941  0.0373  0.0587
17284W        W32901   0.135  12.485   1.580 -0.0581  0.1083  0.3846
17285W        W32902   6.120  11.854   4.379 -0.0471  0.1580  0.0032
17286W        W32903  13.909  13.147  11.524 -0.0826 -0.1602 -0.0874
17287W        W32904  16.770   8.351   1.057 -0.2000 -0.1111  0.1082
17288W        W32905  14.978   4.113   2.506 -0.2033  0.3002  0.0813
17289W        W32906  13.656   0.780  11.954 -0.0435  0.0012 -0.0366
17290W        W32907  14.710   5.477   2.952  0.0544  0.2396 -0.0976
17291W        W32908   9.762  15.786   2.955  0.0903 -0.1571 -0.2847
17292W        W32909  12.109   8.780  13.790 -0.0457  0.4019 -0.0759
17293W        W32910  10.272  17.740  10.931  0.0150 -0.0366 -0.1244
17294W        W32911   1.318   0.935  13.885  0.0554  0.2313 -0.2558
17295W        W32912  11.154  13.688   2.116  0.0691  0.2078 -0.0023
17296W        W32913   6.452  11.416   5.708  0.0235 -0.1487 -0.2442
17297W        W32914   4.097   6.342   1.027  0.1216  0.0301  0.0308
17298W        W32915   0.925  15.648  16.553  0.0633  0.0167 -0.1408
17299W        W32916   1.959   7.631  16.338  0.0348  0.1954  0.0561
17300W        W32917   8.470  12.901  11.678  0.2612 -0.0751 -0.0668
17301W        W32918   4.296   6.948   4.959 -0.0439  0.1875 -0.2067
17302W        W32919   3.313  10.489  14.924  0.1296 -0.2534 -0.1753
17303W        W32920  17.820   3.906   2.550  0.1251  0.0720 -0.1604
17304W        W32921  16.018  15.718   4.614 -0.0647  0.1574  0.3055
17305W        W32922  15.877   9.577  12.573  0.1349 -0.3630 -0.2110
17306W        W32923   6.683   6.788  15.581  0.0455  0.0731 -0.0173
17307W        W32924  17.478  16.726   4.801 -0.0329  0.0117 -0.2697
17308W        W32925  14.694  15.257  15.378 -0.0061  0.2850 -0.1995
17309W        W32926  15.876   5.310  16.106 -0.2886 -0.0389  0.1812
17310W        W32927   1.994  16.114  12.232  0.2059  0.0837 -0.1033
17311W        W32928  16.783   1.990   4.728 -0.1405 -0.1705 -0.0544
17312W        W32929  16.243  15.420   1.028 -0.0961 -0.0687  0.0126
17313W        W32930  14.531  11.320   2.459  0.0984 -0.0454  0.1557
17314W        W32931   2.560  14.751   2.476  0.3078 -0.0464 -0.1035
17315W        W32932  13.625   7.908   3.231  0.0495  0.0991  0.0463
17316W        W32933   7.232   9.336   2.233 -0.0441 -0.0781  0.2898
17317W        W32934   0.918  12.812   1.964 -0.1162  0.0646  0.0013
17318W        W32935   4.085  10.618  12.278 -0.1427  0.2601 -0.2225
17319W        W32936   2.162   0.013   3.863 -0.2412 -0.0071  0.1616
17320W        W32937  12.949   7.622  15.385 -0.1018  0.1885 -0.2341
17321W        W32938   6.948  17.305  15.651 -0.0055  0.1184  0.1610
17322W        W32939  17.736  15.237   0.555 -0.1295 -0.1804 -0.1765
17323W        W32940   6.175  16.392   0.762 -0.1336  0.1098  0.0385
17324W        W32941  10.118  10.246   3.160  0.2076 -0.1261  0.0620
17325W        W32942   8.599   4.808   3.592 -0.0223  0.0775  0.0628
17326W        W32943   6.283  17.522  13.374  0.3511 -0.0323 -0.0659
17327W        W32944  16.321   7.420  16.703  0.0444 -0.0816 -0.0713
17328W        W32945   4.004   0.396  15.829  0.0140 -0.3282  0.1612
17329W        W32946  15.318  14.890   2.423  0.0981  0.1566 -0.1130
17330W        W32947  14.234   8.732   0.400  0.0297 -0.2184 -0.2733
17331W        W32948   2.995  16.181   1.099  0.1855  0.1533  0.1577
17332W        W32949  16.924   3.665  13.756  0.0317  0.0337  0.0446
17333W        W32950   9.790  10.819   0.094 -0.0553 -0.3065  0.1716
17334W        W32951  16.071  10.311   4.213 -0.0589 -0.0049 -0.0312
17335W        W32952  15.215  12.386  16.487 -0.1748 -0.0949  0.0397
17336W        W32953  13.113   9.506  15.898 -0.0857 -0.2066 -0.0695
17337W        W32954   6.778  13.133   5.855 -0.1102  0.1897 -0.2055
17338W        W32955   0.725   3.160   0.202 -0.1112  0.0860 -0.3207
17339W        W32956  15.748   1.619  15.627  0.4110  0.2578 -0.0648
17340W        W32957  12.625   6.437   4.103  0.0694  0.0214  0.4082
17341W        W32958  15.963  12.793  15.473  0.1293  0.1661  0.1024
17342W        W32959  11.057  16.269  15.118 -0.0173 -0.1064  0.0043
17343W        W32960   7.995   2.262  15.674 -0.1102 -0.0656  0.0181
17344W        W32961  13.855   2.654  13.014  0.1263  0.0546 -0.0870
17345W        W32962  16.955  14.079   2.000 -0.0191  0.1138 -0.1308
17346W        W32963  13.813   0.798   4.244 -0.0892  0.0507  0.3300
17347W        W32964  14.923  11.948  12.757 -0.0782  0.1540  0.0645
17348W        W32965  14.779  14.079   4.131 -0.1205  0.0538  0.4712
17349W        W32966  16.312   3.333   3.945  0.3750 -0.2275 -0.1892
17350W        W32967  15.895   2.106   3.738 -0.2846  0.0469 -0.0841
17351W        W32968  16.919   4.310   4.386  0.0858 -0.3056  0.2949
17352W        W32969   8.805  12.374  16.370 -0.2541  0.1894 -0.0258
17353W        W32970   5.743  11.842  14.839  0.0388 -0.0980  0.0312
17354W        W32971   6.640  11.798  14.428  0.1967  0.1823  0.3385
17355W        W32972   5.813  12.650   4.880 -0.0424 -0.0724 -0.0336
17356W        W32973   0.357  12.663  12.538  0.2279 -0.1264 -0.1072
17357W        W32974   7.815  15.677  13.222 -0.4035  0.1684 -0.2683
17358W        W32975  12.547   5.795  12.365 -0.2139 -0.0474  0.0597
17359W        W32976  17.156   8.730  15.954 -0.1277  0.0457  0.0941
17360W        W32977   6.363  14.479   2.627  0.1011  0.1308 -0.0032
17361W        W32978   7.551  17.862   6.087 -0.3101  0.2509 -0.0208
17362W        W32979   0.861   2.281   3.944 -0.1210  0.1673  0.0232
17363W        W32980   0.857  10.429   2.172  0.2371  0.0196 -0.3992
17364W        W32981  14.773  16.665   2.441 -0.2887 -0.1999 -0.2132
17365W        W32982   0.963  17.046  11.686  0.0273 -0.1290 -0.0757
17366W        W32983   8.691  15.684   1.430 -0.0693  0.1443  0.0866
17367W        W32984  11.102  16.287   0.136  0.0982  0.1033 -0.0823
17368W        W32985   3.006  15.542   2.619  0.2286 -0.1867 -0.0327
17369W        W32986  13.045   7.353  12.574 -0.0881  0.1793 -0.2296
17370W        W32987   0.537  10.644   3.977  0.3930 -0.2642 -0.1558
17371W        W32988   6.893   0.367  15.689  0.1229 -0.0947 -0.0265
17372W        W32989   3.458  12.290  12.106  0.0958  0.3255  0.0502
17373W        W32990  11.592  14.902  16.720 -0.1799  0.0618  0.2437
17374W        W32991   9.297   1.487  15.216  0.0842  0.4471 -0.2770
17375W        W32992  14.091  10.766  13.068  0.2748  0.2558  0.0056
17376W        W32993   5.950  13.600  11.368 -0.0380  0.1452  0.0657
17377W        W32994  13.431  16.261   2.603  0.1309 -0.0883 -0.0396
17378W        W32995   9.905   9.374  12.562  0.1098  0.0593 -0.0073
17379W        W32996  16.278   8.168  14.616 -0.2184  0.0324 -0.0712
17380W        W32997   8.654  10.364  13.697  0.2459 -0.1805  0.3031
17381W        W32998   6.487   1.700  11.609 -0.0536 -0.2878  0.0740
17382W        W32999   2.820  17.688  12.844 -0.1682 -0.0899  0.1082
17383W        W33000  14.630   5.817   4.729 -0.1258 -0.1622  0.0664
17384W        W33001   4.665   3.381  15.732  0.2373 -0.0826  0.1095
17385W        W33002   7.507  17.494  11.723 -0.0758 -0.2203 -0.0404
17386W        W33003  17.481  16.021  15.510  0.0289  0.1794  0.3649
17387W        W33004  10.663   5.006  12.901  0.1282 -0.2541 -0.2363
17388W        W33005  16.216  10.214  12.055 -0.0298  0.0241  0.1478
17389W        W33006   8.035  12.964   2.964 -0.2324  0.1834 -0.0485
17390W        W33007   5.532   6.327  13.530 -0.1132  0.2772  0.1917
17391W        W33008  14.338   6.330   0.871  0.1274 -0.2992  0.0760
17392W        W33009  10.370  11.053   3.341  0.1107  0.0484  0.0605
17393W        W33010   6.152   5.250   5.160 -0.1933  0.2985  0.0203
17394W        W33011   7.743   0.705   1.669 -0.2521  0.2682  0.6436
17395W        W33012   1.291   3.567   1.195  0.0342  0.1878 -0.1533
17396W        W33013  14.406  17.434  14.854  0.1455 -0.3135 -0.1710
17397W        W33014   4.447  16.441  15.099 -0.0494 -0.0013  0.2816
17398W        W33015  16.675   7.282   1.846 -0.1785 -0.1207  0.0607
17399W        W33016   4.646   0.365   3.761 -0.3079  0.0663 -0.0674
17400W        W33017   6.117   9.104  14.371  0.0239  0.0243  0.2985
17401W        W33018   5.153  17.680  13.821 -0.0521  0.1471 -0.2661
17402W        W33019  10.537   1.384  12.527 -0.0881  0.0766  0.0054
17403W        W33020   4.409   0.319   3.292 -0.2429 -0.1977 -0.0916
17404W        W33021   0.306   9.833   1.777  0.2623  0.1223  0.2070
17405W        W33022   2.331   2.215  11.812 -0.1417  0.2858 -0.1613
17406W        W33023   8.162  11.849  13.063 -0.0978 -0.2533  0.0854
17407W        W33024   5.115  11.830   1.339  0.0454  0.1467  0.0275
17408W        W33025   2.706  13.164   5.315 -0.0759  0.1095  0.1013
17409W        W33026   7.707  12.877  15.383 -0.1024 -0.1619 -0.1422
17410W        W33027   0.676  12.878   5.258  0.2898 -0.0047  0.0449
17411W        W33028   8.406  12.233   2.187  0.0754 -0.0630  0.1023
17412W        W33029  16.460  14.919  16.280 -0.1306 -0.1082 -0.2610
17413W        W33030   0.134  11.972   4.346  0.0649 -0.2227  0.0270
17414W        W33031   6.332  10.965  12.283  0.0414  0.0423  0.2240
17415W        W33032  15.125  15.329   3.995 -0.0100  0.4203 -0.1132
17416W        W33033   6.675   0.594  16.108 -0.2470 -0.0799 -0.0018
17417W        W33034  16.687   6.411   2.578 -0.0200 -0.0274  0.0808
17418W        W33035  17.050  16.654  16.311 -0.1678 -0.1043 -0.0986
17419W        W33036   0.531  17.840   1.427  0.1884  0.0050  0.0178
17420W        W33037   1.503  12.486  16.227 -0.1150 -0.0847 -0.0556
17421W        W33038   2.519   0.763  14.954  0.0879  0.0412 -0.1428
17422W        W33039   9.485  14.559   4.009 -0.2483  0.2375 -0.2160
17423W        W33040   0.814   1.957  15.758 -0.1426 -0.0214  0.0473
17424W        W33041  16.366   3.104  12.743  0.2493 -0.1680 -0.0504
17425W        W33042   2.796   1.756   3.300  0.1858 -0.2364  0.0031
17426W        W33043  13.036   4.416  14.348 -0.0012  0.0535  0.1678
17427W        W33044   1.381  12.596   4.830 -0.0368  0.2651 -0.0064
17428W        W33045   8.802  12.325   5.375 -0.0049  0.1490 -0.0722
17429W        W33046  10.703  12.784   1.273 -0.0969  0.0553  0.1336
17430W        W33047   9.686  10.962  16.426 -0.0897 -0.1033 -0.1887
17431W        W33048   9.108   1.575  11.240  0.0910  0.0750 -0.0568
17432W        W33049  14.615   1.465  15.094 -0.0424  0.0394 -0.2040
17433W        W33050   0.469  15.772   4.931  0.0200  0.2996  0.1382
17434W        W33051  13.474  17.084  13.833  0.2304 -0.0922 -0.2602
17435W        W33052   2.197  13.832   4.325 -0.3757 -0.3001  0.3066
17436W        W33053  16.693   1.154  16.330 -0.2398 -0.2264  0.1833
17437W        W33054  10.190   0.463   5.292 -0.2151  0.1170 -0.1209
17438W        W33055  11.684   7.327  12.300 -0.0551  0.1815  0.0371
17439W        W33056   5.373  14.364  16.687  0.1037  0.0238 -0.1035
17440W        W33057   0.995  14.530   0.533  0.1094  0.1920  0.1997
17441W        W33058  17.031   6.166   5.195  0.0950  0.0675  0.0862
17442W        W33059   5.664   1.301  12.269 -0.1449 -0.0984  0.0692
17443W        W33060   9.598  13.162   4.328  0.0122 -0.2985  0.3249
17444W        W33061  15.400   7.675  14.707 -0.1466 -0.2049  0.2363
17445W        W33062   9.381   8.808   5.539  0.0076 -0.0799  0.0133
17446W        W33063   0.427   6.049   5.236 -0.1590  0.0054 -0.1176
17447W        W33064   5.727  10.344   3.704 -0.0573 -0.0500  0.0053
17448W        W33065  11.490   5.959  13.681 -0.2363  0.0837 -0.0411
17449W        W33066  10.154   2.041  12.012 -0.0011  0.3301 -0.1255
17450W        W33067   9.593   9.495  16.326 -0.1511 -0.0215 -0.1798
17451W        W33068  12.201   8.124   5.518 -0.0711 -0.0198  0.0244
17452W        W33069   8.706  10.537  16.109 -0.0566 -0.1975 -0.0810
17453W        W33070   4.064  12.031   4.309 -0.0150 -0.0712 -0.2791
17454W        W33071   7.819   2.995  13.848 -0.1118  0.2730  0.1148
17455W        W33072  13.561   5.085  15.499 -0.0463  0.1936  0.0463
17456W        W33073   9.261   5.316  11.609  0.0961  0.4243  0.0716
17457W        W33074   1.769  15.985   5.501 -0.0354  0.2882 -0.0728
17458W        W33075   0.797   8.159  12.496  0.0365  0.2069  0.1761
17459W        W33076  17.174   8.832  11.719  0.0856  0.0287 -0.1279
17460W        W33077   5.880  15.477   0.932 -0.0294 -0.0540  0.0392
17461W        W33078  13.042  12.822   0.833 -0.2428 -0.2513  0.1021
17462W        W33079   4.524   3.243   5.557 -0.0504 -0.0164 -0.1691
17463W        W33080   7.463  15.141   0.901 -0.0514 -0.0998 -0.1203
17464W        W33081  11.230   7.580  12.086 -0.0248 -0.0079 -0.1368
17465W        W33082  10.874   8.933   5.496  0.0430 -0.2354 -0.1164
17466W        W33083   5.890  14.299   5.879 -0.3728 -0.1560 -0.0621
17467W        W33084  15.308   3.956   4.365  0.0342 -0.4122  0.0987
17468W        W33085   2.562  17.829  16.351  0.1801 -0.1305  0.1268
17469W        W33086  10.770  14.495   4.683 -0.4489 -0.2181  0.2223
17470W        W33087  15.151   2.405   2.133  0.1670  0.0121  0.0481
17471W        W33088  13.582  10.422   5.916  0.0637 -0.0266 -0.0872
17472W        W33089  15.057  11.370   3.783 -0.0873  0.1157  0.2994
17473W        W33090  10.288  17.690  12.817  0.3976  0.2252  0.2017
17474W        W33091   3.889  11.900   2.261  0.0670 -0.0014 -0.1001
17475W        W33092   0.253   0.417   2.187 -0.2705 -0.3517  0.2149
17476W        W33093  13.743   3.205  13.238 -0.1486 -0.1507  0.0656
17477W        W33094   9.869   1.701   0.667  0.0997 -0.1054  0.1792
17478W        W33095  17.685  14.800  13.281  0.1783  0.0926 -0.2139
17479W        W33096   8.283   5.139  15.726  0.1468 -0.1052 -0.1424
17480W        W33097  12.925   6.906   3.407 -0.1098 -0.2817 -0.1371
17481W        W33098   9.296  16.446  13.444  0.0554  0.0206  0.2097
17482W        W33099   3.222  16.160  15.246  0.0710  0.1244 -0.2137
17483W        W33100  14.722  14.400  16.374 -0.0937  0.3050 -0.2799
17484W        W33101   0.638  12.887   3.558  0.0861 -0.1003  0.0870
17485W        W33102   3.688   4.160  14.903  0.0727  0.0611 -0.1422
17486W        W33103  10.959   3.304   2.164  0.2457  0.0526 -0.1176
17487W        W33104  11.995   6.674   6.880 -0.4307 -0.0271 -0.1859
17488W        W33105   5.207  14.025   1.974  0.3516  0.2164 -0.1175
17489W        W33106  10.714   1.528  12.988  0.1961 -0.2800  0.0931
17490W        W33107  17.389   3.750  15.511 -0.0206 -0.0378  0.2121
17491W        W33108   7.098   0.024  15.999  0.0080 -0.0511  0.1510
17492W        W33109  16.443   5.220   6.357 -0.3660 -0.3298  0.2311
17493W        W33110   7.156  12.514  11.689  0.2762 -0.2506  0.2458
17494W        W33111  13.521   3.239   3.769  0.0047 -0.1460  0.1553
17495W        W33112   8.024   4.418  11.510 -0.1241 -0.1790  0.1924
17496W        W33113   6.424   3.149   5.562 -0.2394 -0.1519 -0.3237
17497W        W33114  12.869   1.137  12.252  0.2648  0.0539  0.0825
17498W        W33115  11.986   1.459   2.018 -0.1745  0.0344  0.0590
17499W        W33116  13.554   5.957   1.010 -0.2758  0.2084  0.0413
17500W        W33117   2.556  17.476  11.174  0.3640  0.0087  0.3070
17501W        W33118   1.963  14.295  13.509  0.1079  0.0166  0.3226
17502W        W33119  12.978   8.863   2.749 -0.1029  0.1005  0.0012
17503W        W33120   2.259  14.051  16.466  0.0900 -0.4068  0.0392
17504W        W33121  12.028  10.407   0.491 -0.1875 -0.0466 -0.3546
17505W        W33122   9.759  12.983   3.321 -0.4654 -0.1332 -0.3295
17506W        W33123   1.910  10.723   4.420 -0.0188 -0.0437  0.0054
17507W        W33124   2.298   1.893  15.374  0.1873 -0.1209 -0.1171
17508W        W33125  10.844   9.351  12.798  0.0442 -0.0789 -0.0277
17509W        W33126  10.282   8.221   1.454 -0.3061  0.0229  0.1298
17510W        W33127   1.079  15.488  14.865 -0.1202 -0.1402  0.0169
17511W        W33128   0.252   4.552  12.033  0.0165  0.1433  0.2257
17512W        W33129  11.556   2.229   0.703 -0.1934 -0.0393  0.0781
17513W        W33130  15.857  13.920   4.854 -0.1207  0.0223  0.2404
17514W        W33131  10.025   3.092   2.942 -0.0641 -0.1332  0.0694
17515W        W33132   2.276   7.636   0.059 -0.0476  0.1678  0.1777
17516W        W33133  11.618  12.509   0.282 -0.1763 -0.0566  0.1110
17517W        W33134   2.825   3.438  16.368  0.1639  0.0630 -0.0037
17518W        W33135   3.221  10.520  12.603 -0.2838 -0.0135 -0.3864
17519W        W33136   4.145  11.771  15.535  0.0407  0.4037 -0.0845
17520W        W33137   5.422   2.547   0.760  0.0510  0.0931 -0.0425
17521W        W33138   2.902  12.157  13.869  0.2319 -0.0153  0.0338
17522W        W33139   5.652   7.384   2.684 -0.1172 -0.0254 -0.0188
17523W        W33140  17.770   2.046   0.131 -0.1761  0.0463  0.2401
17524W        W33141   7.114   5.480   2.573  0.2443 -0.1599  0.0220
17525W        W33142  16.521  10.594  11.747 -0.0486 -0.1495  0.2384
17526W        W33143  17.781   3.734  13.518  0.0159 -0.2099  0.3107
17527W        W33144   7.091  10.970   5.214  0.0440 -0.0537 -0.0270
17528W        W33145  15.763   9.171   3.572 -0.1804 -0.0899 -0.1120
17529W        W33146   6.842  16.254  15.713  0.1193 -0.5089 -0.1015
17530W        W33147  13.202   8.367   2.802  0.2449 -0.1098 -0.1580
17531W        W33148   5.124   8.994   0.567  0.1915 -0.1311  0.1290
17532W        W33149   3.054  16.652  16.025 -0.0588  0.0529  0.0129
17533W        W33150  12.411   8.647   2.760 -0.2965  0.2504  0.1675
17534W        W33151  14.355   5.527  16.115  0.0179 -0.3727  0.0644
17535W        W33152  13.107   7.715  14.732 -0.1456  0.0791 -0.0104
17536W        W33153   0.635  11.430   4.117 -0.1084  0.0438 -0.0472
17537W        W33154  12.917  17.634   4.312 -0.2120  0.1480  0.1142
17538W        W33155   3.632   8.283   3.407  0.0465 -0.2421 -0.0422
17539W        W33156  11.511   5.953  15.029 -0.3450  0.0514 -0.2301
17540W        W33157   9.813   8.228   4.914 -0.3179  0.0931 -0.0999
17541W        W33158   7.288   0.386   0.423 -0.1823  0.1815 -0.1978
17542W        W33159  16.724   8.913  14.090 -0.0682  0.2267 -0.1245
17543W        W33160   5.396   1.302  16.488 -0.1606  0.0246  0.0393
17544W        W33161   7.126   6.717   1.462 -0.0641  0.1779 -0.2516
17545W        W33162  15.698  12.944   3.751 -0.2147  0.1362 -0.4089
17546W        W33163  16.619  16.283   3.546 -0.2665 -0.1608 -0.0411
17547W        W33164  13.287  11.161   3.385 -0.0912  0.0519 -0.0051
17548W        W33165  12.665  15.292   0.661  0.1802 -0.1417  0.2703
17549W        W33166   7.091  16.840   6.024 -0.1933 -0.0954  0.0360
17550W        W33167  11.291   9.100  14.020 -0.0972 -0.4257  0.0021
17551W        W33168  14.034   2.678  16.688  0.0239 -0.1589  0.1072
17552W        W33169  14.496   5.833   0.130 -0.2850 -0.1464  0.1885
17553W        W33170   4.137  11.813   1.132 -0.0166 -0.0070 -0.0987
17554W        W33171   1.687  11.988   0.057  0.3772  0.1653  0.2070
17555W        W33172   1.635  14.950  12.247  0.0946 -0.4063 -0.0224
17556W        W33173  14.899  15.865   3.741 -0.0035 -0.0396 -0.1102
17557W        W33174   2.884  15.990  16.108 -0.4130 -0.3779 -0.2855
17558W        W33175  11.873   4.970  15.027  0.0435 -0.3515 -0.0831
17559W        W33176   0.708   9.390  14.405  0.2529 -0.0300 -0.0902
17560W        W33177   3.560  11.124  11.784  0.1978 -0.0050 -0.1855
17561W        W33178  13.477   3.276  14.209 -0.0972  0.0467  0.2299
17562W        W33179  11.208   1.479  14.246  0.0552  0.0597  0.1084
17563W        W33180   1.639  12.373   1.306 -0.1721  0.2355  0.1051
17564W        W33181   5.788   9.917  15.493 -0.1070  0.0824  0.3092
17565W        W33182  17.483  11.683  15.405 -0.1411 -0.2093  0.4344
17566W        W33183   1.104   9.690  16.281  0.0209  0.0023  0.1181
17567W        W33184  11.735  13.494   1.341 -0.1649 -0.0305  0.1324
17568W        W33185   1.887  14.115   4.035 -0.2281 -0.2371  0.0846
17569W        W33186   9.599  17.418  13.381  0.2295  0.0346 -0.0429
17570W        W33187   7.675  12.205   5.431  0.1763 -0.2593 -0.2079
17571W        W33188   3.655  12.871  16.420 -0.2765  0.4847 -0.1403
17572W        W33189   4.243   5.680  10.749 -0.0067  0.0350 -0.2307
17573W        W33190  12.167   6.977   5.922 -0.0496 -0.2200 -0.0798
17574W        W33191  16.406  14.767  11.448 -0.0239 -0.2093 -0.2520
17575W        W33192  15.694  13.496   1.155  0.2181 -0.2606  0.1170
17576W        W33193  14.085  16.206  16.484 -0.3695 -0.0607 -0.0145
17577W        W33194   5.665   8.587  16.268 -0.1441  0.1403 -0.1738
17578W        W33195   7.534   2.161   4.596 -0.0237 -0.1531 -0.2761
17579W        W33196  17.244  16.681   5.210  0.0371 -0.1769 -0.0105
17580W        W33197   2.124   1.317  12.339 -0.0732  0.1558 -0.0138
17581W        W33198  10.437   3.020  11.499  0.0798 -0.0056 -0.1579
17582W        W33199   6.435  11.523  15.426 -0.0399  0.1357 -0.1169
17583W        W33200  13.436  14.858   3.592 -0.0999 -0.0741 -0.0922
17584W        W33201   6.688   7.776  15.485  0.2573  0.0490 -0.2493
17585W        W33202  15.817  17.031   5.042  0.0421  0.3549 -0.0378
17586W        W33203  14.158   4.400  15.611 -0.2795  0.1688  0.0463
17587W        W33204  12.992  12.616   2.862  0.0222  0.1965  0.0744
17588W        W33205  16.410  10.068  13.340 -0.0150  0.2238  0.1606
17589W        W33206   4.405   5.244   2.904 -0.0072  0.3473 -0.0099
17590W        W33207   5.888   9.575   2.130 -0.2191  0.3549 -0.0323
17591W        W33208   7.914   2.439  14.645 -0.1511  0.0573  0.1684
17592W        W33209  16.718   8.096  13.078 -0.1618 -0.0049  0.1994
17593W        W33210   9.633   9.725  13.804 -0.0892 -0.0988  0.0620
17594W        W33211  14.419  15.046   5.745 -0.1019  0.1952 -0.1573
17595W        W33212   2.908   3.560  13.243 -0.0129  0.0863 -0.0661
17596W        W33213  12.651  13.399  16.247  0.2313 -0.1614  0.2124
17597W        W33214   1.495   0.171   1.675 -0.2533 -0.0181 -0.2819
17598W        W33215  14.595  16.895  12.647  0.1519  0.1528  0.2661
17599W        W33216   7.634   5.301  16.820 -0.0045  0.1373 -0.2658
17600W        W33217   1.381  16.026  15.584 -0.0653 -0.0143  0.1203
17601W        W33218   6.346  16.102   1.546 -0.1635  0.2445  0.0473
17602W        W33219  11.383   5.344   3.674 -0.3053  0.0400 -0.4502
17603W        W33220   7.789   7.779   5.634  0.3094  0.3711  0.0960
17604W        W33221   0.744  12.510   5.858  0.1305  0.0147  0.0274
17605W        W33222   2.414   1.651   1.343 -0.3053  0.0562 -0.1398
17606W        W33223   9.558  14.930  14.417 -0.1323  0.0054 -0.3585
17607W        W33224   2.473   8.041   0.178 -0.1602 -0.2759 -0.3211
17608W        W33225  16.390   3.338   0.399 -0.0249 -0.1505 -0.1110
17609W        W33226  12.168   3.457   0.788  0.2337  0.1322 -0.0283
17610W        W33227  13.566   4.381  12.185 -0.1789 -0.4275  0.2493
17611W        W33228  11.275  13.308   3.073  0.5338  0.0994  0.0716
17612W        W33229  15.790   2.212  14.841  0.0108  0.3310 -0.0667
17613W        W33230   9.560  12.699  11.192 -0.0773 -0.0017 -0.1045
17614W        W33231  12.045  12.562  16.218 -0.0247  0.0975  0.1767
17615W        W33232   5.622   2.740  15.464 -0.0353 -0.2657  0.0826
17616W        W33233  15.964  12.845   0.113 -0.2608 -0.0326  0.1673
17617W        W33234  15.445   4.240   3.871  0.0521 -0.0916 -0.0860
17618W        W33235  16.821   2.379   0.175  0.1848  0.0900  0.0633
17619W        W33236  17.138  15.364   5.179  0.0230  0.1014 -0.1772
17620W        W33237   2.025   1.214   0.213 -0.2120 -0.0239 -0.0093
17621W        W33238  11.944   6.933  13.219  0.1147 -0.0562 -0.1466
17622W        W33239  10.606   7.532  12.731  0.1278 -0.0375 -0.1241
17623W        W33240  17.092  12.776  11.797  0.1962 -0.0120 -0.2226
17624W        W33241  15.022   6.313   0.746 -0.1218 -0.0075 -0.2087
17625W        W33242  17.167  16.901   2.732  0.1213 -0.0334  0.2726
17626W        W33243   6.839  11.222   1.540 -0.2344 -0.0367 -0.1529
17627W        W33244   6.026   8.845   4.133  0.0522 -0.0340  0.0045
17628W        W33245  16.255  13.623   2.296  0.2440  0.1898  0.2219
17629W        W33246  15.033  11.156  15.378  0.1436  0.0757 -0.0019
17630W        W33247   9.551  16.701  15.484  0.2430 -0.1344 -0.1693
17631W        W33248  13.679   9.555   5.512  0.2231  0.1407 -0.0844
17632W        W33249  16.652  16.889  16.722 -0.1584 -0.0125  0.1059
17633W        W33250  13.148   2.140   0.695  0.0554 -0.1536  0.1757
17634W        W33251  10.271   8.349   2.367  0.2562  0.1830  0.1586
17635W        W33252  10.899  16.613  11.953 -0.0841  0.2333 -0.1229
17636W        W33253   8.703   7.123   0.133 -0.1713  0.0498 -0.0965
17637W        W33254   1.642   8.066   3.432 -0.4038  0.0453  0.3030
17638W        W33255   0.422  12.050   2.194  0.2839  0.0430  0.0336
17639W        W33256   9.573  12.481   2.196 -0.0307  0.1128 -0.0876
17640W        W33257  12.723   7.921  16.439 -0.2415  0.0162 -0.1969
17641W        W33258   9.472  16.159   4.274 -0.0125  0.1290 -0.2223
17642W        W33259   9.676   7.984   2.947 -0.0847  0.1328  0.0850
17643W        W33260   2.805  17.409   1.945 -0.1028 -0.1765 -0.2357
17644W        W33261   6.752  13.140  11.486  0.3164  0.1620 -0.2492
17645W        W33262   0.106  11.742  12.740 -0.1378  0.2421 -0.0287
17646W        W33263   7.420  15.239  14.045  0.1237 -0.1627 -0.3210
17647W        W33264   5.902  15.377  13.946 -0.0572 -0.2808 -0.1119
17648W        W33265  11.252  12.072   2.554  0.0206  0.2797 -0.1038
17649W        W33266  11.754  13.243   3.146  0.1379  0.1343 -0.3075
17650W        W33267   5.962   2.576  11.480 -0.1648 -0.1470  0.0438
17651W        W33268   0.383   5.271  12.715  0.5103 -0.0403  0.1146
17652W        W33269  17.663  17.651   2.038  0.1211  0.0807  0.0125
17653W        W33270   4.160   3.293  13.646  0.2489  0.1373  0.1852
17654W        W33271  12.493  12.901   0.239 -0.1959  0.2628  0.0662
17655W        W33272  15.517  15.963   0.182  0.4426 -0.2347 -0.0041
17656W        W33273  14.850  10.702  13.928  0.1629  0.0247  0.1676
17657W        W33274  15.238  15.510   3.549  0.0262  0.0274  0.1448
17658W        W33275   7.835   9.466  16.615 -0.0342 -0.1237 -0.0891
17659W        W33276  10.021   8.144   1.966  0.0725 -0.1808 -0.0797
17660W        W33277   0.378   2.239   2.699  0.1012 -0.1534  0.1605
17661W        W33278  12.199  13.859  14.742  0.0699 -0.0165 -0.0910
17662W        W33279  10.219  12.829   3.081 -0.2045 -0.1220 -0.0959
17663W        W33280  13.509   6.574   5.856 -0.0450  0.1911 -0.1235
17664W        W33281   0.727   9.169   4.377  0.0812 -0.0901 -0.1338
17665W        W33282   8.899   4.188  16.008  0.1017  0.0147  0.0649
17666W        W33283   4.742   1.237   4.485  0.2635  0.2260 -0.2422
17667W        W33284  14.621   2.593   1.720 -0.2125  0.0057  0.0289
17668W        W33285   2.548   5.868   1.311 -0.2082 -0.1284 -0.1126
17669W        W33286  15.687   7.688   3.698 -0.0852 -0.2733  0.0135
17670W        W33287  13.696   2.345  14.719  0.1511 -0.2381  0.3319
17671W        W33288   7.680   8.489   4.992  0.2890 -0.2654  0.2854
17672W        W33289   6.147   4.719   5.008  0.2400 -0.1408  0.3011
17673W        W33290   4.131   5.233   5.236 -0.0871 -0.2310  0.2628
17674W        W33291   0.968   4.425   0.985 -0.1592  0.0784  0.1036
17675W        W33292   5.597  14.650   3.584 -0.2018  0.0522 -0.2468
17676W        W33293   6.167   6.980  16.334  0.1766  0.0177  0.0566
17677W        W33294  15.091   2.470  15.846 -0.1216 -0.0619  0.0084
17678W        W33295   1.507  10.712  15.651 -0.3447 -0.0439 -0.2953
17679W        W33296   8.086   3.328  11.904 -0.1248 -0.0858 -0.0261
17680W        W33297  17.188  10.031   3.427 -0.0929  0.0412  0.1324
17681W        W33298  12.966  14.643  13.453  0.0702  0.1582 -0.3827
17682W        W33299  14.860   1.663   0.025 -0.0541 -0.0264 -0.0379
17683W        W33300   2.009   7.200  12.876 -0.0132  0.1463 -0.0669
17684W        W33301  16.320  13.134   4.735  0.0953 -0.2289 -0.0011
17685W        W33302   2.490  16.588   2.496  0.0904  0.1444  0.0702
17686W        W33303  15.356   6.035   2.249 -0.3669  0.1628 -0.1046
17687W        W33304   4.523   9.755  12.703  0.1148 -0.0888 -0.0010
17688W        W33305   5.047   2.322   2.577 -0.1867 -0.2962  0.0782
17689W        W33306  15.146   4.984   0.164 -0.0767  0.1106  0.1016
17690W        W33307  13.519  16.799   2.591 -0.3063  0.1025 -0.0733
17691W        W33308   4.245   5.736  12.184  0.2288 -0.1776  0.2436
17692W        W33309   9.163  11.499  13.185 -0.2461 -0.0498 -0.0702
17693W        W33310   2.791  11.756  15.267 -0.1976  0.1741 -0.0824
17694W        W33311  12.837   7.386   2.857 -0.1027 -0.1218 -0.0283
17695W        W33312  16.582   7.821   1.923  0.1423  0.0571 -0.2916
17696W        W33313   3.931   5.704  15.439 -0.2949  0.1132  0.0211
17697W        W33314   8.240   8.808   3.854 -0.2980 -0.2515  0.0444
17698W        W33315   4.018  13.987  16.128 -0.0275  0.0198  0.0368
17699W        W33316   0.380   1.908   5.174  0.0397  0.2642 -0.0176
17700W        W33317  10.449   4.286  15.948 -0.1962 -0.1218  0.0493
17701W        W33318  14.946   9.325   2.143  0.1763  0.3829 -0.1006
17702W        W33319  17.531  17.125  15.830  0.1236  0.0506 -0.1387
17703W        W33320   5.628   9.075   3.883  0.2791  0.0062 -0.2911
17704W        W33321  12.823   7.402  16.622  0.1532  0.1171 -0.3110
17705W        W33322   7.355   2.886   5.250  0.1345 -0.3645  0.0544
17706W        W33323   3.114  11.775  13.059 -0.1430  0.0071 -0.1166
17707W        W33324  14.876   4.189   4.269 -0.0048 -0.0477 -0.5037
17708W        W33325  16.528  10.801   1.916 -0.1956 -0.2359 -0.0498
17709W        W33326  17.298  10.048   1.040  0.0017  0.1406  0.0579
17710W        W33327  11.588  17.305  14.943 -0.0094  0.0455 -0.2264
17711W        W33328   1.728  14.103   0.417  0.3968 -0.1220 -0.3394
17712W        W33329  10.294   8.303  11.888  0.2026  0.3877 -0.0688
17713W        W33330   1.234   0.325   4.414  0.4646 -0.1446  0.0607
17714W        W33331  12.509  10.942   1.768 -0.0644  0.1400 -0.0484
17715W        W33332   5.373   0.357   0.870  0.0107  0.1869 -0.0999
17716W        W33333   1.267  10.266  15.567  0.1308  0.1724  0.0836
17717W        W33334  10.521   4.581  12.587 -0.0544  0.1650 -0.1498
17718W        W33335  10.433   3.297  13.088 -0.1188  0.0941  0.1913
17719W        W33336  17.643   2.913   0.007  0.1967 -0.1799  0.1195
17720W        W33337   2.607   4.454   4.174  0.0104 -0.1625  0.0162
17721W        W33338   6.690  10.067   1.265 -0.1321  0.2082 -0.2474
17722W        W33339   1.198  16.115  13.244  0.0656  0.0504 -0.1961
17723W        W33340  15.911  17.762  16.649  0.1553 -0.1925 -0.0597
17724W        W33341   5.274  12.541  15.303 -0.2757 -0.3187  0.0962
17725W        W33342   8.413   9.800   4.629  0.3211 -0.2973 -0.0115
17726W        W33343   5.168  16.369  16.404  0.0073 -0.2425  0.1061
17727W        W33344  12.370  17.575   2.396  0.0683 -0.1024 -0.1010
17728W        W33345   3.597   6.217  14.392  0.1542  0.3601  0.1008
17729W        W33346   8.313   1.281  15.839  0.1316  0.2668  0.0143
17730W        W33347  14.361  13.886   1.457 -0.1090 -0.3496 -0.1236
17731W        W33348   8.493   7.620  15.271  0.1976 -0.0872  0.0999
17732W        W33349  10.240   8.005   2.770 -0.1139 -0.2723  0.1297
17733W        W33350  17.669  17.181   4.804 -0.0056 -0.2227 -0.1568
17734W        W33351  17.841   3.944   5.145 -0.0905  0.1558  0.2983
17735W        W33352   2.668  14.855  15.758  0.1234 -0.0820 -0.1567
17736W        W33353   4.956   2.488   4.312 -0.1722  0.0784  0.2803
17737W        W33354   4.993   0.176   4.098 -0.2504  0.4324  0.0587
17738W        W33355  13.789  13.612   1.257  0.1091 -0.1696  0.0899
17739W        W33356   1.396   5.942   3.253  0.0257  0.1683  0.0185
17740W        W33357   1.567  13.992  16.696 -0.1242 -0.1225  0.1333
17741W        W33358   8.934   7.684   2.512 -0.2267  0.0418  0.0211
17742W        W33359  14.858   2.845  16.077 -0.1069  0.0668 -0.2654
17743W        W33360  13.603  16.548  12.885 -0.0004  0.0062  0.3608
17744W        W33361   0.310   8.022  12.282 -0.2663 -0.0848  0.1108
17745W        W33362   5.694  13.023   1.163 -0.0966 -0.2532 -0.5792
17746W        W33363   6.216   8.179   1.635 -0.2024  0.0707  0.2573
17747W        W33364  12.742   8.079  13.455  0.0049 -0.1849 -0.2511
17748W        W33365   2.989  10.853  14.989  0.3848  0.2674  0.2917
17749W        W33366  10.682  10.115   5.380 -0.0824  0.3174  0.1331
17750W        W33367  11.219   2.466  14.927  0.0788 -0.0183  0.1298
17751W        W33368  12.181  14.338  15.203  0.3645  0.0533 -0.2934
17752W        W33369  16.092   2.606   5.588 -0.1618  0.2357 -0.2455
17753W        W33370  16.090   2.282  13.605 -0.2746  0.0816 -0.1534
17754W        W33371  16.761   9.041  10.666  0.0899  0.0987  0.3069
17755W        W33372   4.723   4.548  15.680  0.0079  0.0076  0.0153
17756W        W33373   1.194  17.321   1.576 -0.0697  0.1701 -0.4393
17757W        W33374   2.462  17.232   3.737 -0.0923 -0.1580 -0.0721
17758W        W33375   0.755   8.751   0.301 -0.0396 -0.1594  0.1369
17759W        W33376  16.373  12.258   3.230 -0.3051  0.2355  0.0025
17760W        W33377  16.653   4.840  12.209  0.2015 -0.1726  0.0004
17761W        W33378  17.664   2.670  11.595  0.0849 -0.0296  0.5006
17762W        W33379  17.139  15.221  14.374  0.1460 -0.4982 -0.2025
17763W        W33380   0.543   8.540   3.592  0.0603 -0.0723 -0.2986
17764W        W33381  14.518  13.561   2.744 -0.0813  0.3793  0.0489
17765W        W33382   3.336   7.307   0.673 -0.0489 -0.2554 -0.0121
17766W        W33383   9.612  16.620   3.271  0.2432  0.0827 -0.0038
17767W        W33384  10.963   9.937   1.043 -0.0935  0.1862  0.2283
17768W        W33385  10.637   0.220  13.063 -0.0591  0.2262  0.3366
17769W        W33386  17.573  14.103   4.171  0.1218  0.1509 -0.1887
17770W        W33387  13.150   0.199   4.223 -0.2177 -0.1803  0.1295
17771W        W33388   8.973   4.224  16.477 -0.0916  0.2633  0.0390
17772W        W33389   3.900  17.234   0.685  0.1997  0.1501 -0.3085
17773W        W33390  11.807  15.826  14.093  0.0613 -0.0121 -0.0989
17774W        W33391  10.333  14.438  12.799  0.0906  0.1281 -0.0672
17775W        W33392   3.537   2.385   0.245 -0.0129  0.0625  0.1111
17776W        W33393   7.865   7.753  16.123 -0.1644 -0.1723  0.1513
17777W        W33394  13.261   9.332   1.711 -0.1528  0.0150 -0.2266
17778W        W33395  13.595   9.032  13.962  0.0153 -0.1283  0.0897
17779W        W33396  17.456   5.559  12.323 -0.3795  0.1740 -0.0560
17780W        W33397   0.879  12.083  14.206  0.2690 -0.0423  0.0326
17781W        W33398   7.789   5.569  16.433 -0.0451  0.0319 -0.0306
17782W        W33399   5.897  11.999   3.254 -0.0819  0.2701  0.1249
17783W        W33400   1.645   1.655  11.220 -0.0201 -0.0380  0.2410
17784W        W33401   9.364   9.845   4.460 -0.2326 -0.0687 -0.1017
17785W        W33402   9.259   3.922   3.303  0.2250 -0.0910  0.2197
17786W        W33403   2.562   6.916  13.424  0.1574 -0.1821 -0.0523
17787W        W33404  14.706   3.703  15.598  0.2004  0.1484  0.1390
17788W        W33405   3.959   2.433  15.161 -0.2223 -0.0495 -0.2029
17789W        W33406   3.491  15.618   2.571 -0.3788  0.0701  0.0595
17790W        W33407   5.118   5.850   5.447  0.1440  0.0617 -0.1654
17791W        W33408  14.775  15.397   3.676 -0.0261  0.1755  0.1815
17792W        W33409   8.295  13.759  16.000 -0.0138 -0.0872 -0.0069
17793W        W33410   5.043  12.659   1.662  0.1069 -0.1225 -0.0183
17794W        W33411  16.816   2.620   1.631 -0.0785 -0.0346  0.1220
17795W        W33412   0.011  14.978   0.090 -0.3831  0.2842  0.1801
17796W        W33413  16.397  14.597   5.327  0.2024  0.3259 -0.0271
17797W        W33414  15.806   2.420  14.045  0.0664 -0.0657  0.0977
17798W        W33415  10.720   9.841   1.502  0.2717 -0.0258 -0.0972
17799W        W33416  11.974   2.825  15.225  0.0294 -0.0374 -0.0532
17800W        W33417   7.273   1.249  16.695 -0.0535  0.0449  0.1941
17801W        W33418  14.234   7.692   3.040  0.1313  0.3062 -0.1015
17802W        W33419  11.470   7.685   1.078 -0.1846  0.0486  0.0302
17803W        W33420   4.149   7.793   3.346 -0.1124 -0.0425  0.0769
17804W        W33421   7.618   4.070  16.077  0.0063 -0.0978  0.0211
17805W        W33422  13.759   3.324   3.314  0.0102 -0.0269  0.0704
17806W        W33423   4.370   9.016   3.736 -0.0646 -0.1296  0.0266
17807W        W33424   1.886  17.632  14.026  0.3065 -0.0843  0.0612
17808W        W33425  12.898   2.178  15.094 -0.2137 -0.1688  0.0138
17809W        W33426   1.682   6.617   3.869 -0.1156  0.0816 -0.3073
17810W        W33427   8.665  15.947   0.075 -0.0934  0.1218 -0.1078
17811W        W33428   6.020  14.400   3.899  0.1599 -0.0634  0.3237
17812W        W33429   9.589   5.246  13.986 -0.2762 -0.1537 -0.1545
17813W        W33430  10.284  11.381   4.948 -0.3112  0.0468 -0.2253
17814W        W33431   7.541  15.547   4.443  0.1448 -0.1888 -0.1846
17815W        W33432  10.768  10.986   2.540 -0.0139  0.0581 -0.0371
17816W        W33433   5.924  16.310  16.125 -0.1041  0.0686 -0.0210
17817W        W33434  17.545  11.847  16.717 -0.2885 -0.3207  0.0273
17818W        W33435  12.509  15.590  10.929 -0.1297 -0.1510 -0.1921
17819W        W33436  11.202  11.258   0.706 -0.0853  0.2078  0.0290
17820W        W33437   0.018  12.833  15.007 -0.0830 -0.1864 -0.0101
17821W        W33438   2.454   7.634   0.533 -0.0037  0.1322  0.0476
17822W        W33439  16.833   9.757  16.199  0.1345 -0.0643 -0.3088
17823W        W33440   1.778  16.116  13.328 -0.0990  0.1818  0.2775
17824W        W33441  16.867   4.896   4.625  0.0589 -0.2658  0.1517
17825W        W33442   7.588   4.353  12.640 -0.0763 -0.0667  0.1467
17826W        W33443  14.181   6.785  16.391  0.0348 -0.0622 -0.0912
17827W        W33444   8.373  12.497  12.905  0.3318 -0.4362 -0.0136
17828W        W33445  10.196   9.683   2.571 -0.1883  0.0804 -0.1073
17829W        W33446  12.591  13.321   2.551 -0.1514  0.0201 -0.0616
17830W        W33447  17.709   2.047   2.864 -0.0123  0.0270 -0.2466
17831W        W33448   3.891   4.271   0.740 -0.1260  0.0570  0.2819
17832W        W33449   5.158  16.742  15.941  0.0567  0.0012 -0.1189
17833W        W33450   4.982   1.415  10.755 -0.1762 -0.2608  0.0482
17834W        W33451   4.768   1.792   2.758 -0.0466 -0.0446 -0.3022
17835W        W33452  17.190  11.870  15.718  0.0543  0.0629 -0.1022
17836W        W33453  16.658   4.205   3.909  0.0932 -0.1012  0.0763
17837W        W33454   2.438  10.558  15.825 -0.3554 -0.0324  0.3804
17838W        W33455   9.225   7.225  13.161 -0.1262 -0.1611 -0.1752
17839W        W33456  13.621  12.896   4.485  0.2879  0.1178  0.0455
17840W        W33457  15.041   0.467  14.682  0.0585  0.2563  0.0503
17841W        W33458   0.981  16.597   3.483  0.0881  0.0675 -0.0850
17842W        W33459   2.142   7.369  13.360 -0.0209  0.2104  0.0992
17843W        W33460  12.967   3.139  14.238 -0.1459 -0.2077  0.0126
17844W        W33461   8.287  13.492   3.727 -0.2185 -0.1390 -0.0806
17845W        W33462  17.507  10.235  11.898  0.0142  0.1454  0.5223
17846W        W33463  10.536   4.963  15.192 -0.0933  0.0121  0.1327
17847W        W33464   0.892   6.695   1.152 -0.0674 -0.2453  0.0416
17848W        W33465   6.871  14.336  13.215 -0.1909  0.2689 -0.1360
17849W        W33466   6.065   1.118   1.184  0.0239  0.1836 -0.1684
17850W        W33467   6.555   7.636   4.611 -0.1183  0.0974 -0.0592
17851W        W33468   4.521  12.357   1.818 -0.1528 -0.1137 -0.2018
17852W        W33469   7.386  11.374   0.883  0.1703  0.1225  0.0077
17853W        W33470  15.164  14.775   1.916 -0.1819  0.1963  0.3259
17854W        W33471  11.207  15.224   0.591 -0.4744  0.0609  0.0049
17855W        W33472   7.863  12.542  15.061 -0.0033  0.2428  0.1421
17856W        W33473   3.365   5.084   5.823  0.1705  0.0165  0.0013
17857W        W33474  15.381   0.765  14.932  0.1780 -0.1410  0.0849
17858W        W33475  10.311   3.123   3.401  0.2495 -0.1753  0.0981
17859W        W33476   5.404  14.886  13.274 -0.0291  0.2919  0.1449
17860W        W33477  17.769   4.387   1.231  0.1897  0.1279 -0.1228
17861W        W33478  10.305  12.523   1.017 -0.1790  0.0142 -0.0160
17862W        W33479   2.497  15.666  11.793  0.3011  0.1121  0.0713
17863W        W33480  16.165   4.062  15.963 -0.0443 -0.0204  0.0451
17864W        W33481  17.396  13.519   5.226  0.1511  0.0780 -0.3819
17865W        W33482  14.184   7.583   0.561 -0.1571 -0.1688  0.0883
17866W        W33483  14.438  14.050  16.203 -0.0201 -0.4029 -0.1277
17867W        W33484  11.322  13.318   1.094 -0.1642  0.3125  0.0288
17868W        W33485   7.481  17.581  16.053 -0.1352 -0.2485 -0.0979
17869W        W33486   8.178   9.388  16.206  0.2184 -0.2706  0.3123
17870W        W33487   1.544  10.666  12.168  0.2017  0.1582  0.0403
17871W        W33488  16.741   7.094  13.196 -0.0314  0.0641  0.0493
17872W        W33489   9.177   4.049  13.732  0.1928 -0.1919 -0.1385
17873W        W33490  12.044  13.860  15.654 -0.1294 -0.0548  0.1707
17874W        W33491  14.610   2.381   5.607 -0.1802  0.0086 -0.1630
17875W        W33492  14.998   6.000  13.985 -0.0828 -0.1285 -0.1445
17876W        W33493   7.180  10.423  14.745  0.1486 -0.3408  0.0918
17877W        W33494   3.011  17.555   4.221  0.0283 -0.2192  0.2832
17878W        W33495  10.924   6.194   4.793 -0.0827 -0.0939 -0.3574
17879W        W33496   3.761  14.220  16.488  0.0246  0.0199  0.3144
17880W        W33497   4.887  16.710   1.687 -0.2493  0.0140 -0.1418
17881W        W33498   1.023   6.084   6.079  0.2762 -0.2546  0.1772
17882W        W33499  17.774   9.581  14.341  0.0273 -0.3013 -0.0065
17883W        W33500   3.209  17.503   3.801 -0.1129  0.0686  0.1440
17884W        W33501  13.680  12.405   6.032  0.2525 -0.0253 -0.0578
17885W        W33502  15.332  15.727   5.876 -0.3016  0.1692 -0.0911
17886W        W33503   1.320  10.165   3.333  0.1170 -0.0806  0.0941
17887W        W33504   6.566  11.776   4.593  0.0048  0.0646  0.0790
17888W        W33505   6.816   2.637  13.250 -0.0352 -0.0616  0.0528
17889W        W33506   7.442   9.391  14.781  0.3922  0.1936 -0.1923
17890W        W33507  14.746  11.097  16.688 -0.0399  0.4591  0.1531
17891W        W33508   8.203   2.776   5.780  0.1692 -0.0105  0.1203
17892W        W33509   0.500   3.539  15.830  0.0187  0.2868  0.3691
17893W        W33510  10.543   8.453   2.940  0.0668 -0.0344 -0.1063
17894W        W33511  17.599  17.561  12.855  0.1386 -0.0473 -0.0437
17895W        W33512  12.311  17.795   3.814  0.1339 -0.0408 -0.1646
17896W        W33513  10.912  12.457   2.601  0.1033  0.0444 -0.1989
17897W        W33514   3.126  17.543   0.404  0.1123 -0.1282 -0.2040
17898W        W33515   1.188   5.820  16.426 -0.0647 -0.0656  0.1174
17899W        W33516   0.528   4.145   4.389 -0.0274 -0.1817 -0.1112
17900W        W33517   0.902  13.382  12.623  0.0396  0.0005  0.1367
17901W        W33518   5.863   7.502  12.909 -0.0932  0.2629 -0.0315
17902W        W33519   6.827   8.651   1.460 -0.1401  0.0380  0.1455
17903W        W33520  14.457   7.295  16.633 -0.3602 -0.1281 -0.2446
17904W        W33521   9.637  10.202   0.889  0.5036  0.0475 -0.0388
17905W        W33522  10.141   0.050  13.285 -0.1201  0.0805 -0.1243
17906W        W33523  10.037  15.039  12.066  0.3306  0.0917  0.4249
17907W        W33524  15.450  16.239  15.605 -0.0604  0.1263  0.3764
17908W        W33525   6.042   5.895  10.818 -0.0194  0.1069 -0.2311
17909W        W33526   2.039  17.395   6.153  0.2934  0.0742 -0.1312
17910W        W33527   3.458   5.672   2.276 -0.0131 -0.0391  0.1797
17911W        W33528   4.989   2.644  13.554 -0.1875  0.2016  0.0619
17912W        W33529  16.798   5.864  15.010 -0.1357  0.1549  0.3541
17913W        W33530  11.427   3.176   2.257 -0.1139  0.2048  0.1216
17914W        W33531   3.178   5.437  13.257  0.0236 -0.1682  0.0171
17915W        W33532   8.780  13.679   3.632  0.1061  0.2121  0.3260
17916W        W33533  16.194   7.885   1.122  0.1597 -0.0687  0.0294
17917W        W33534  12.046   6.040  10.678  0.0578 -0.3796  0.0848
17918W        W33535  13.936   9.905   3.221  0.1456 -0.0071  0.0736
17919W        W33536   0.165   5.714   3.906 -0.0726  0.1486 -0.0413
17920W        W33537  16.939  17.167   3.727 -0.0457  0.0801 -0.1153
17921W        W33538   9.098   4.850  14.067 -0.1136 -0.0822  0.1087
17922W        W33539   7.269  10.913  12.103 -0.2044  0.1059  0.0459
17923W        W33540   4.521   8.052  12.511  0.3786 -0.1201  0.1539
17924W        W33541   0.693   5.838   1.794  0.0362 -0.0316 -0.1121
17925W        W33542  16.151  13.506  15.231  0.0269  0.1845  0.2307
17926W        W33543  12.051   6.644   5.532 -0.0054 -0.0155  0.1198
17927W        W33544   3.280  14.764   3.024  0.3223 -0.0456  0.2042
17928W        W33545   9.264   5.200  12.522  0.0009  0.2596 -0.0548
17929W        W33546   3.283  11.498  15.469 -0.0906  0.3930 -0.0594
17930W        W33547   0.074  10.908  14.247  0.1526 -0.0538 -0.3044
17931W        W33548   8.789  17.299  15.454  0.0375 -0.1559  0.4323
17932W        W33549  10.557  14.458  11.278  0.1628 -0.0723 -0.2240
17933W        W33550   6.224  12.844   0.056  0.2458 -0.1306 -0.4144
17934W        W33551   8.940   6.483   3.875  0.0760  0.1685  0.2643
17935W        W33552  15.058   2.376   2.984  0.0096 -0.2197 -0.2033
17936W        W33553   1.747   6.568   5.545 -0.0138 -0.0443 -0.4012
17937W        W33554   3.377   4.440  13.257 -0.1752  0.0821 -0.3317
17938W        W33555   0.419  17.564  14.034  0.3139 -0.0503  0.0569
17939W        W33556   7.981   4.244   6.350 -0.2497  0.3253  0.2581
17940W        W33557  10.244  15.188   6.667  0.1887 -0.0808  0.0860
17941W        W33558   9.053   6.740  12.937  0.0228 -0.3669 -0.2369
17942W        W33559  13.184   8.527  12.870 -0.1881  0.0948 -0.2599
17943W        W33560   5.514   9.175  14.264 -0.3596  0.1740 -0.1603
17944W        W33561  14.365   1.309   4.614  0.0179 -0.2130  0.0424
17945W        W33562   1.130  13.428  16.513 -0.0476 -0.2274  0.2949
17946W        W33563  11.355   6.322   1.801 -0.1427 -0.4140  0.0815
17947W        W33564   6.139  14.795   2.296  0.0144  0.2157  0.1886
17948W        W33565   0.862  14.401   5.799  0.1426  0.1175 -0.2555
17949W        W33566   4.228   1.650  12.338  0.0467 -0.0642  0.2640
17950W        W33567   0.744   6.338  14.067  0.0838  0.0282  0.1483
17951W        W33568   1.515  13.755  13.872  0.2585 -0.2551  0.1814
17952W        W33569   8.256   0.079  13.444 -0.0067  0.0308  0.1578
17953W        W33570   9.890  16.786  11.758 -0.2111 -0.2365 -0.0232
17954W        W33571  13.672  10.014   6.155  0.0523 -0.0416  0.1569
17955W        W33572   9.779  12.348  16.258 -0.2148 -0.0746  0.2117
17956W        W33573   2.364   5.991  12.845  0.1488  0.1661 -0.2462
17957W        W33574  16.632   4.381  14.030  0.3006  0.1889  0.1278
17958W        W33575  13.550  10.613  16.516 -0.0009  0.1593 -0.1718
17959W        W33576  14.615   4.260   1.332 -0.1177 -0.0961  0.0599
17960W        W33577  13.106  16.930   4.247  0.2467  0.0414  0.0209
17961W        W33578   9.814   7.332   3.774  0.0153 -0.1863 -0.2342
17962W        W33579  17.080   7.488   5.867 -0.2324  0.1460  0.3335
17963W        W33580   2.436   9.917   2.049 -0.0249  0.1292 -0.2541
17964W        W33581   1.051  11.090  10.786 -0.0304 -0.0493  0.0075
17965W        W33582  12.862  12.690  11.577 -0.0644 -0.1455 -0.0061
17966W        W33583  14.348  15.283   2.321 -0.1649 -0.2152 -0.0608
17967W        W33584   8.278  10.666   3.285  0.3167 -0.1367 -0.0572
17968W        W33585   4.741   8.761   3.985 -0.2038  0.0708  0.2586
17969W        W33586   1.533   2.738  15.844  0.1293  0.0311  0.2172
17970W        W33587   5.438  12.068   1.913  0.2186 -0.0367  0.0700
17971W        W33588   5.405  16.754   3.080  0.0102 -0.1045  0.3814
17972W        W33589   7.845  14.694  16.729  0.2305 -0.0620 -0.1684
17973W        W33590  10.316  16.412  12.232 -0.0982 -0.2727 -0.0219
17974W        W33591   6.952  12.563   0.968  0.1221  0.0512 -0.1291
17975W        W33592   5.055  17.408  11.713  0.0863  0.0610  0.0133
17976W        W33593   0.637   9.977  15.721 -0.0026  0.0147 -0.1691
17977W        W33594   6.322   5.490   6.060 -0.5767  0.2587  0.0704
17978W        W33595  10.961   9.652   3.360 -0.1182  0.1192 -0.1898
17979W        W33596  11.610   3.520  15.538 -0.0643  0.3058  0.0695
17980W        W33597  13.150   7.931   2.041  0.1173  0.0541 -0.2703
17981W        W33598   0.696  17.489  12.328  0.0634 -0.1091 -0.0349
17982W        W33599   6.977  16.647  12.679 -0.2301  0.0355  0.1396
17983W        W33600   0.636   2.852  16.340  0.0159 -0.1466  0.0611
17984W        W33601  12.776   7.280   5.264 -0.0156  0.3072  0.0185
17985W        W33602  16.767   0.987   3.051  0.1154  0.1796 -0.2300
17986W        W33603  13.841   7.501  15.174  0.2498  0.2165 -0.0790
17987W        W33604   5.078  12.811  11.954 -0.2111 -0.0699 -0.0143
17988W        W33605   8.650  12.826  12.155 -0.0353  0.1379  0.2371
17989W        W33606   7.923  16.197  15.674  0.1945  0.2260 -0.2484
17990W        W33607   6.023   4.248   0.444 -0.0843 -0.0994  0.0511
17991W        W33608   9.787  11.284   5.323  0.1326  0.3598 -0.0527
17992W        W33609  10.562   4.782   4.535  0.0674 -0.0996 -0.2357
17993W        W33610   2.724   5.014   0.004 -0.0910 -0.0387 -0.0762
17994W        W33611   7.200   6.280  13.363 -0.0510  0.4003  0.3697
17995W        W33612   7.044  10.848   1.953  0.1623 -0.0768 -0.3390
17996W        W33613   4.155  12.230   1.489 -0.1177 -0.0562  0.1720
17997W        W33614  17.225  17.793   2.243  0.1018 -0.1579 -0.0820
17998W        W33615   9.124   4.330   2.983  0.1147 -0.1634 -0.3390
17999W        W33616   5.427   2.288  16.731  0.1999 -0.0085  0.1310
18000W        W33617  11.699   7.373  13.467  0.0121  0.1856 -0.0436
18001W        W33618   3.436  11.293  14.769  0.1365  0.1136  0.0857
18002W        W33619   6.652  14.912  11.458  0.3019  0.0265 -0.1457
18003W        W33620   0.681  16.176   3.205  0.1113 -0.0192 -0.0532
18004W        W33621   4.479  10.337  13.601  0.1695 -0.1563 -0.2136
18005W        W33622   4.341  16.222  12.320 -0.1234  0.0945 -0.2743
18006W        W33623   4.675  11.588   4.304 -0.1704  0.0385 -0.0383
18007W        W33624  12.154  14.532  16.689 -0.0025  0.0809  0.2963
18008W        W33625   4.390   2.065   3.216  0.3367  0.0012  0.0893
18009W        W33626   0.779   7.833   5.521  0.2744  0.2761 -0.2676
18010W        W33627  14.047  14.903  11.507  0.1131 -0.0912  0.0816
18011W        W33628  16.612   6.309   0.186  0.0296 -0.2117  0.2317
18012W        W33629   8.589   6.727   0.557  0.2127  0.0828  0.1045
18013W        W33630   4.422  16.962  12.327  0.1974 -0.1280 -0.2119
18014W        W33631  17.646  10.784   4.601  0.1112 -0.3015  0.1769
18015W        W33632   8.071  14.598   1.981 -0.0567  0.2175  0.0492
18016W        W33633  10.824  13.723   1.421 -0.0555 -0.1649  0.2399
18017W        W33634   1.357   0.232  12.387  0.0288  0.1211 -0.2307
18018W        W33635   6.877   8.203   6.873  0.2232 -0.0259  0.2214
18019W        W33636  13.047  17.305  15.613 -0.0282  0.2530  0.0703
18020W        W33637   4.663  14.647   3.893  0.1349  0.0606  0.0349
18021W        W33638   6.653  11.688  11.923 -0.1549 -0.0048  0.4203
18022W        W33639   7.185  12.288  14.118 -0.0724  0.3672  0.0947
18023W        W33640  17.780   4.396  14.747  0.0718 -0.1101 -0.1622
18024W        W33641   8.747   9.412  15.481  0.2603 -0.1598 -0.2083
18025W        W33642  11.284   6.933  12.025 -0.1984  0.2167  0.1918
18026W        W33643  14.618  17.485  13.855 -0.0125 -0.0344 -0.1265
18027W        W33644   2.562  15.015  12.988  0.4139 -0.0360 -0.0954
18028W        W33645   1.319   2.305  11.771  0.1348  0.0354  0.0198
18029W        W33646   9.172   0.386  12.486  0.1915  0.0050  0.2344
18030W        W33647   3.721   0.849  11.214 -0.1537 -0.3047 -0.0149
18031W        W33648   9.228  13.730  12.770  0.1078  0.1630  0.0718
18032W        W33649  12.199  10.178  14.210  0.2048 -0.2476 -0.3869
18033W        W33650   1.314  12.742   1.213 -0.0141 -0.1529 -0.1266
18034W        W33651   7.628  12.174  13.959  0.0815 -0.1482 -0.0579
18035W        W33652   1.574  17.283  16.428 -0.0156  0.3886 -0.2354
18036W        W33653   2.184   7.860   5.972 -0.2620 -0.0934 -0.0710
18037W        W33654   7.216  15.571   1.012  0.2851  0.0604  0.1261
18038W        W33655  10.117   0.335  12.898  0.1778  0.1252 -0.3651
18039W        W33656   7.306   2.664  13.927  0.2364 -0.1669  0.0545
18040W        W33657  11.883   7.393  12.922  0.1113 -0.0853 -0.1518
18041W        W33658  17.465   8.286  14.348  0.0994 -0.3555 -0.0793
18042W        W33659   7.238   2.453   2.892 -0.1496  0.2089 -0.0993
18043W        W33660   1.290   7.593   4.862  0.2780 -0.0436 -0.0447
18044W        W33661   1.412   8.277   3.049 -0.0327  0.2658 -0.0752
18045W        W33662   1.110   9.049   0.539  0.1052 -0.1204 -0.0734
18046W        W33663   4.966   7.109  15.548  0.1384 -0.0608  0.1469
18047W        W33664   1.529  15.269   4.220  0.2580  0.0302 -0.1359
18048W        W33665  15.727   4.778  12.379  0.2180 -0.0722 -0.0793
18049W        W33666   4.798  15.394   3.447  0.1709  0.1393  0.3069
18050W        W33667   0.457  16.144  11.743  0.1892 -0.0943 -0.0036
18051W        W33668   8.605   3.834   2.161 -0.2669  0.2845  0.2432
18052W        W33669   9.889  14.146   0.069 -0.2085 -0.3214  0.0234
18053W        W33670  13.316  16.235  16.127 -0.0722  0.1093 -0.0130
18054W        W33671   9.199   7.191   3.238 -0.4432 -0.0678  0.1061
18055W        W33672   8.329  14.035  13.680 -0.1439  0.1686  0.2549
18056W        W33673   7.101  10.944  15.645 -0.0188 -0.3117  0.3953
18057W        W33674  12.735   3.990   2.713  0.0840  0.1071 -0.0001
18058W        W33675   4.565   3.225  13.949 -0.1993  0.4435  0.1053
18059W        W33676   8.537  10.634  16.543  0.0806 -0.1793 -0.3485
18060W        W33677  17.538   1.584   0.414  0.0018 -0.1717  0.1270
18061W        W33678  14.476   1.144  12.508  0.1180  0.0700  0.2419
18062W        W33679  10.642  14.277   1.705  0.1562  0.3578 -0.1711
18063W        W33680   3.987   6.157  15.350  0.0679 -0.0718 -0.0635
18064W        W33681  14.670   5.096   2.605  0.2082 -0.2890  0.0918
18065W        W33682  10.974   7.790   0.074 -0.0515  0.0421 -0.0664
18066W        W33683   8.572   9.938   5.105 -0.2691 -0.2025  0.3660
18067W        W33684  14.460  15.642   3.384  0.0574 -0.1104 -0.1125
18068W        W33685   0.506   2.609  12.284  0.0592 -0.0644 -0.0407
18069W        W33686   0.824   0.159   1.021 -0.0796 -0.1531  0.4194
18070W        W33687   5.409  13.573   1.194 -0.1826 -0.1151  0.1666
18071W        W33688   3.453   2.468  11.562  0.1062 -0.0849 -0.1535
18072W        W33689   0.334  17.837  12.203  0.1345 -0.0880 -0.0382
18073W        W33690  15.575  12.334   2.377  0.1651  0.2168  0.2926
18074W        W33691   3.931   5.764   4.495 -0.0337 -0.1279 -0.1696
18075W        W33692  13.436  11.300  15.093  0.1401  0.0183  0.3775
18076W        W33693   2.505  14.475  16.420  0.0155 -0.3525  0.0547
18077W        W33694  11.536  11.451  15.552  0.0544 -0.2085  0.4054
18078W        W33695   4.365   0.924   0.848 -0.3707 -0.0564  0.5168
18079W        W33696  12.558   7.387  15.497 -0.0001  0.0134  0.0173
18080W        W33697  14.728   6.746  12.633 -0.0825  0.3306 -0.0497
18081W        W33698   2.466   8.663   3.817  0.1295  0.1221  0.0025
18082W        W33699   2.563   1.884   2.885 -0.0623 -0.0278  0.1123
18083W        W33700   8.589   9.234   0.224  0.2519 -0.0881  0.1246
18084W        W33701  15.868   1.657  12.000 -0.5188 -0.1941  0.2108
18085W        W33702   4.573   0.450  15.652  0.1820  0.0157 -0.0427
18086W        W33703   3.099   6.225  13.523  0.1706 -0.1376 -0.0489
18087W        W33704  14.783   1.198  13.139 -0.1973 -0.2125 -0.1097
18088W        W33705   4.663   6.257  12.477  0.0484  0.0051  0.1198
18089W        W33706   3.601  12.431  15.289  0.1602 -0.2383 -0.0743
18090W        W33707   1.843   1.552  11.928  0.0980  0.1306 -0.0513
18091W        W33708   7.983  10.043   0.864  0.2795 -0.0458  0.2889
18092W        W33709  11.436  15.054   1.507  0.0155  0.0877 -0.0473
18093W        W33710  16.014  11.939  14.229 -0.3527 -0.1330  0.1850
18094W        W33711   7.530   8.348  15.771 -0.1696  0.0519  0.0327
18095W        W33712  12.483   1.420  12.152 -0.1911  0.2443  0.5007
18096W        W33713   8.455   2.998   2.609  0.0014 -0.3233  0.1586
18097W        W33714   8.122   5.341  13.798  0.0078  0.1475  0.1922
18098W        W33715  13.796  13.169   1.686  0.1904 -0.0178 -0.2538
18099W        W33716   6.745   3.727  11.750  0.0939 -0.1442  0.2900
18100W        W33717   6.816   6.211  12.700 -0.1231 -0.0617 -0.2895
18101W        W33718   5.180  13.402  11.002  0.2384 -0.3254  0.5447
18102W        W33719   4.604  10.304   3.059 -0.1491  0.2580  0.0622
18103W        W33720   1.382  12.508   4.275  0.0414 -0.1379 -0.0360
18104W        W33721  14.970  16.756   5.338  0.0559  0.0940  0.0088
18105W        W33722  17.392   9.190   0.700 -0.2251 -0.2667 -0.0846
18106W        W33723   5.443  13.750   3.037 -0.1054  0.1827  0.0122
18107W        W33724  10.020   2.042  14.852  0.2378  0.0748  0.0838
18108W        W33725   9.413  14.997  15.314 -0.2921  0.2844  0.2228
18109W        W33726  14.861   2.525  13.331  0.1996 -0.1453 -0.1980
18110W        W33727   4.251   6.261   2.376  0.2757 -0.0746 -0.1463
18111W        W33728   7.047   4.969  10.840  0.0969  0.0104  0.2526
18112W        W33729   2.379  15.191  15.979 -0.2043 -0.3546 -0.1464
18113W        W33730  13.025   5.254  16.448 -0.3859 -0.1180  0.1064
18114W        W33731   3.815  16.519   2.653  0.0024  0.0011  0.1915
18115W        W33732   1.696   5.057   3.196  0.0125 -0.0616 -0.0729
18116W        W33733  12.428  12.471  11.576 -0.0682 -0.1280  0.1204
18117W        W33734  10.210   1.054  12.804  0.1043  0.1448  0.0829
18118W        W33735   4.820   9.150   2.798 -0.4884  0.2418 -0.1927
18119W        W33736   5.109  10.281   4.497  0.1144 -0.3057 -0.2057
18120W        W33737   7.494   1.686   0.134  0.0711  0.0312 -0.1079
18121W        W33738  10.500   3.733  14.579  0.0725 -0.2539 -0.2119
18122W        W33739  11.885   8.437   1.963  0.0934 -0.2734 -0.2200
18123W        W33740   4.248   8.014  12.945 -0.1269 -0.1482 -0.0282
18124W        W33741  10.139  11.876  13.063 -0.0675  0.2767 -0.0643
18125W        W33742   2.788  13.111  16.186 -0.0706  0.1558 -0.3362
18126W        W33743  15.674   9.484  15.727 -0.0076  0.0116 -0.2590
18127W        W33744  15.087   7.338  14.912  0.2696  0.2183  0.1752
18128W        W33745  14.548  13.007  13.234  0.2728 -0.2848  0.0257
18129W        W33746   7.716   3.320   6.322 -0.0488  0.1978 -0.1640
18130W        W33747   8.043   9.853  15.345 -0.1770 -0.1005  0.0082
18131W        W33748   1.737   8.036  12.519  0.0218  0.1286 -0.1591
18132W        W33749  12.404  11.966   4.234  0.2596 -0.0463 -0.3510
18133W        W33750  13.210   6.088   1.362  0.0215  0.2719 -0.0760
18134W        W33751  11.100   7.910   3.220 -0.0510 -0.0180 -0.1076
18135W        W33752   1.068   4.466   0.500  0.0332  0.0689  0.1729
18136W        W33753   5.128  13.011   3.770 -0.0007 -0.0733  0.4024
18137W        W33754  10.164   6.377   2.524 -0.1340 -0.1373 -0.0495
18138W        W33755  13.113   2.152   4.239 -0.2733 -0.1325 -0.3719
18139W        W33756  16.844   9.180  11.594  0.0919 -0.3818  0.1844
18140W        W33757   3.657   4.689  14.145  0.1702  0.1662 -0.0668
18141W        W33758  12.980   3.362   2.850  0.1305 -0.1680 -0.1431
18142W        W33759  17.793   8.028  11.858  0.0272 -0.2139 -0.1495
18143W        W33760   3.012   9.681   2.702  0.1883  0.1164  0.0223
18144W        W33761   5.490   8.694   0.798 -0.3350  0.2320 -0.1858
18145W        W33762  10.664   5.178  12.387  0.0247 -0.1257 -0.0845
18146W        W33763   7.361  10.844   2.741 -0.0325 -0.1156  0.0122
18147W        W33764   4.419  17.423   0.955 -0.1464  0.1731  0.2043
18148W        W33765   9.752   3.032  13.906  0.1544  0.3796  0.2040
18149W        W33766  12.955  14.922   0.915  0.0063  0.0786 -0.1479
18150W        W33767   2.021   2.072  15.985 -0.2293  0.3187 -0.0717
18151W        W33768  11.683   6.818  16.467 -0.1115  0.1536  0.3917
18152W        W33769  17.082  14.143  12.166  0.0208 -0.1500 -0.1243
18153W        W33770  13.524  15.078  14.019 -0.0276  0.4528 -0.0104
18154W        W33771  16.461   9.008  15.547 -0.0847 -0.2560  0.0975
18155W        W33772   7.021   5.214  13.821  0.1708  0.0227 -0.1820
18156W        W33773   1.632   8.990   1.373 -0.1480 -0.2207 -0.0796
18157W        W33774  13.077  10.588   0.357  0.3607  0.0421 -0.0453
18158W        W33775   6.503   7.439  16.221  0.1415  0.0943 -0.1536
18159W        W33776   3.916   5.710  13.628  0.0895 -0.0355  0.0270
18160W        W33777   9.006  10.430  12.430  0.1551 -0.0107  0.0055
18161W        W33778  11.494   0.909  14.404 -0.0349 -0.1629  0.0030
18162W        W33779   6.222  13.302  14.877 -0.0975 -0.0851 -0.0894
18163W        W33780  11.134  15.723   5.843 -0.1062  0.1532 -0.1494
18164W        W33781  17.678   2.742   4.072  0.2308 -0.2759 -0.0083
18165W        W33782  16.984   2.794   3.337  0.0773  0.0270 -0.2027
18166W        W33783  16.138   4.163  14.756 -0.0615 -0.0692  0.1647
18167W        W33784  16.711   9.733   6.571  0.1253  0.0190  0.1211
18168W        W33785   6.050   3.626  14.501  0.1749 -0.0637 -0.0052
18169W        W33786   2.536   4.211  15.519  0.0395  0.1336  0.4692
18170W        W33787   6.544  11.053  13.118  0.0735 -0.2428  0.0451
18171W        W33788   6.863   9.175  12.398  0.1338  0.1767  0.2105
18172W        W33789   0.856  15.241  14.379 -0.2661 -0.1440  0.3369
18173W        W33790   9.220   1.467   1.217 -0.1042 -0.3252 -0.1846
18174W        W33791   9.442   7.804   2.475  0.1691  0.2097  0.0364
18175W        W33792   7.429  15.048   1.389 -0.2741 -0.4554  0.0542
18176W        W33793  10.517  16.403  15.017  0.1308  0.3698  0.0525
18177W        W33794   6.814   7.919  16.501 -0.1482 -0.1705  0.3519
18178W        W33795  10.648   8.853   3.651 -0.2651 -0.1488  0.1137
18179W        W33796   2.554  13.506  16.448 -0.2144  0.2154  0.1684
18180W        W33797   7.269  14.171   5.051 -0.0218 -0.0118 -0.1445
18181W        W33798   4.687  16.206  15.487  0.2890 -0.3065  0.0814
18182W        W33799  13.453   1.495   0.825 -0.0951 -0.2885  0.0064
18183W        W33800   3.343   9.081  12.629  0.0739  0.1575 -0.1179
18184W        W33801  10.043   0.035   5.078 -0.0883 -0.0764 -0.2302
18185W        W33802  10.056   4.074  16.151 -0.2243 -0.4480  0.1514
18186W        W33803  15.718   1.645  12.887  0.1137 -0.3536 -0.3417
18187W        W33804   4.919  11.708  11.545  0.0948 -0.1755  0.1435
18188W        W33805   9.339  17.435  13.812  0.0958  0.0151  0.0878
18189W        W33806   3.752   9.718  12.410  0.1274 -0.2458 -0.0192
18190W        W33807  17.102   0.379   3.883  0.1452  0.1499  0.1852
18191W        W33808  10.428  11.760   3.665 -0.0967 -0.0995 -0.0681
18192W        W33809  10.154  12.144   3.488 -0.0265 -0.1658 -0.1360
18193W        W33810   7.553   7.440  16.395 -0.3193  0.0990 -0.0531
18194W        W33811   3.396  17.867  16.377 -0.3356  0.2261 -0.0322
18195W        W33812   1.008  15.017  13.911 -0.0645  0.0527 -0.2466
18196W        W33813   6.838   6.356  15.802 -0.0325  0.1193 -0.1065
18197W        W33814   1.629   2.204  15.039  0.1985  0.2589 -0.0999
18198W        W33815  15.913  14.665  13.992 -0.0400  0.0158  0.0114
18199W        W33816  15.889  16.414   5.261  0.1996  0.1985  0.2791
18200W        W33817   7.082   6.659  12.824 -0.1033  0.0417 -0.1968
18201W        W33818   9.339  12.483   0.417 -0.2587 -0.0980 -0.0001
18202W        W33819   6.041  10.280  11.691 -0.0160 -0.0216  0.0236
18203W        W33820   9.075   5.577   1.282 -0.1191 -0.3581 -0.2177
18204W        W33821   8.085  16.921   5.358  0.2620  0.0233  0.2489
18205W        W33822   9.416   2.481  15.691 -0.0702  0.1709  0.2429
18206W        W33823  12.263   5.562  14.289  0.0763 -0.2441  0.3124
18207W        W33824  17.798   0.326   4.101 -0.1400 -0.1735 -0.2136
18208W        W33825   5.756   1.528   3.505  0.3910 -0.1083 -0.0383
18209W        W33826   3.253   5.739  12.871 -0.4281 -0.1669 -0.0356
18210W        W33827   7.487  14.715  14.832  0.3755  0.2452 -0.3608
18211W        W33828   7.342  17.391  13.406 -0.0201 -0.4382 -0.0115
18212W        W33829   6.389  14.171  11.878  0.2604 -0.4336 -0.3471
18213W        W33830  15.358   8.529  14.297  0.2051  0.1197 -0.1717
18214W        W33831   0.049   9.478   3.588  0.0571 -0.0892  0.1778
18215W        W33832  12.667  16.103  16.020  0.0500  0.1267 -0.1679
18216W        W33833   0.460   8.922  12.066 -0.1251 -0.0764  0.0609
18217W        W33834   7.713  17.045   3.635  0.1822  0.1457 -0.1938
18218W        W33835   8.306   2.914   5.073  0.2961  0.1685 -0.0351
18219W        W33836   6.662   9.875  16.127 -0.0923 -0.0366 -0.1029
18220W        W33837   6.361  11.336   3.669 -0.1788  0.4246 -0.1585
18221W        W33838   6.623   4.881  13.475 -0.5178  0.0941  0.0469
18222W        W33839  13.609  11.930  13.563  0.0246  0.0120 -0.0980
18223W        W33840   7.583  11.383  12.496  0.0681  0.1219 -0.4009
18224W        W33841  12.107  13.334  11.854 -0.0828 -0.4162 -0.1254
18225W        W33842  14.411  12.481   1.824  0.0750 -0.0822  0.0067
18226W        W33843   1.685   6.048   5.612  0.0921  0.0011  0.1390
18227W        W33844  17.035   7.101  13.982  0.1347 -0.2007 -0.1537
18228W        W33845  16.155   7.096   3.931 -0.3311  0.1989 -0.0231
18229W        W33846   1.602  14.080   5.019  0.1265  0.1317 -0.0707
18230W        W33847   7.413   5.950   1.802  0.0306  0.2312  0.1289
18231W        W33848  13.706   7.967  12.300 -0.0073  0.1887 -0.2335
18232W        W33849   2.457   4.246  16.274  0.1305  0.0857 -0.1513
18233W        W33850  15.786   8.075   2.791  0.0375  0.1912 -0.0641
18234W        W33851  16.713   9.028   5.166  0.0728  0.2430  0.1302
18235W        W33852   1.346   1.888  10.920  0.0107 -0.1904  0.0659
18236W        W33853   0.766   0.958  15.810 -0.0699  0.3093 -0.1580
18237W        W33854   2.472  10.457   3.048 -0.2357  0.1565 -0.0435
18238W        W33855  17.351   2.186  15.825  0.0988  0.0293  0.0330
18239W        W33856  10.480   6.408  12.857  0.1796  0.2809 -0.1630
18240W        W33857  10.214   9.799   3.066 -0.0503 -0.0452 -0.1108
18241W        W33858   6.393   3.833  12.327  0.1344  0.1108  0.0058
18242W        W33859   4.932  10.401  16.341 -0.0158 -0.2146  0.0355
18243W        W33860   3.644   2.116   3.882 -0.1514  0.1679 -0.2012
18244W        W33861   0.045   3.371   2.415  0.0990 -0.3323  0.5166
18245W        W33862   2.811   2.789  14.619  0.0990 -0.0616  0.0258
18246W        W33863   8.650  16.776   4.060  0.3090  0.2036  0.1123
18247W        W33864  15.886  13.069  16.009  0.5446  0.1058 -0.1616
18248W        W33865   7.364  16.262  11.950 -0.2089 -0.1777  0.1262
18249W        W33866  12.021   9.380   3.204  0.0778 -0.0771  0.1630
18250W        W33867  17.299  10.186  12.692  0.0831  0.0226  0.0397
18251W        W33868  10.846  12.091  14.363  0.1697 -0.1977 -0.1617
18252W        W33869  12.602   3.431  15.311 -0.1330 -0.0761  0.0737
18253W        W33870   4.107   9.305   1.187 -0.0208 -0.1155  0.2774
18254W        W33871   0.751   8.989   1.046 -0.1192 -0.0891  0.2311
18255W        W33872  12.319   0.075  12.484 -0.0875 -0.0697  0.0373
18256W        W33873  14.993  16.314  13.199  0.1543 -0.1062 -0.1919
18257W        W33874   9.296  12.551   4.855  0.0606 -0.2162 -0.1265
18258W        W33875  10.116   3.210   0.550 -0.0909 -0.3392 -0.1506
18259W        W33876  11.262   5.415  15.683  0.0076  0.1822 -0.0719
18260W        W33877   7.008   0.602   5.346 -0.0954  0.0285 -0.2445
18261W        W33878  13.027  13.068   1.685 -0.1090 -0.1034  0.3540
18262W        W33879   2.729   7.660  16.675 -0.0107 -0.0480  0.0892
18263W        W33880  17.784  14.699   0.494  0.0898  0.1975  0.0378
18264W        W33881   7.313   2.520  13.006 -0.2273  0.0293  0.2524
18265W        W33882   4.241  15.581  15.332  0.2464 -0.2751  0.1273
18266W        W33883   1.082  16.276   0.305  0.0921 -0.1560 -0.0559
18267W        W33884   1.808   3.591   4.301  0.0703  0.4010  0.0364
18268W        W33885  11.366   3.693   0.938  0.0116 -0.0681 -0.1634
18269W        W33886   8.468   7.447  12.336  0.3024 -0.2991 -0.0174
18270W        W33887  15.005  14.776  13.934  0.1255 -0.3794 -0.2268
18271W        W33888   2.641  11.222  14.291 -0.1533  0.1573  0.0493
18272W        W33889  11.609   6.704   5.081  0.1394  0.1225 -0.2377
18273W        W33890   9.271  16.067   2.040  0.4265 -0.0759  0.1901
18274W        W33891   9.290   8.878   4.689  0.0786 -0.0059 -0.2704
18275W        W33892  11.392   9.697  12.455  0.0480 -0.3181  0.1366
18276W        W33893   0.238   5.966   5.755 -0.5182 -0.0246  0.0191
18277W        W33894   2.468  16.240  11.983  0.0702  0.0500  0.1715
18278W        W33895   4.808   2.902  14.869 -0.0504 -0.1339  0.1708
18279W        W33896   1.681  10.007   1.900 -0.3669 -0.0650  0.3305
18280W        W33897   9.300   1.533  13.159 -0.0522 -0.0802  0.0386
18281W        W33898   2.474  14.798  12.009 -0.0580 -0.0788  0.0983
18282W        W33899  16.437   4.733   0.364  0.0940 -0.1180  0.0899
18283W        W33900  10.205   0.523  16.650  0.0405 -0.0657 -0.1369
18284W        W33901   8.363   9.601  16.665  0.1311 -0.1308 -0.1766
18285W        W33902  11.864   8.394   4.072 -0.4553 -0.0879  0.5452
18286W        W33903   2.679   0.881   4.804  0.0515 -0.0970 -0.1002
18287W        W33904   1.835   7.921  15.952  0.2308 -0.3366  0.1790
18288W        W33905   4.124   3.165  12.677  0.0182  0.1710  0.0216
18289W        W33906   9.964   4.285   2.021 -0.0538  0.2567 -0.0891
18290W        W33907  16.284  10.109   2.809 -0.0122 -0.0807 -0.0361
18291W        W33908   6.430   6.261  16.492  0.2313  0.1274 -0.1008
18292W        W33909  12.806   4.264   1.919  0.1133  0.2170 -0.1614
18293W        W33910   0.856   6.982   0.400  0.2266 -0.0267  0.0698
18294W        W33911   2.695   1.595   0.918  0.1310  0.0257 -0.0464
18295W        W33912  10.581  11.811   6.376  0.0353 -0.2387  0.3076
18296W        W33913   9.812  16.834   1.381 -0.1731  0.1201 -0.2849
18297W        W33914  13.151   3.357   0.848  0.1099  0.1444  0.0584
18298W        W33915   2.274  11.486   4.974  0.0024 -0.3637  0.1867
18299W        W33916   0.840  11.442  16.387 -0.0849 -0.1140 -0.4561
18300W        W33917   6.118   3.155   2.570  0.0406 -0.1981  0.0705
18301W        W33918  16.223   7.808   5.859  0.2973  0.1444  0.3963
18302W        W33919   1.041  12.345   2.091  0.2058 -0.0596 -0.3016
18303W        W33920   6.094   6.164   0.586 -0.1752 -0.0816  0.0659
18304W        W33921   9.250   2.071  16.409  0.1250  0.4852 -0.2319
18305W        W33922  17.524  15.296   1.102  0.0787 -0.3196 -0.0322
18306W        W33923   0.698   7.014   5.209  0.0205  0.0721  0.0567
18307W        W33924  14.730  17.666   5.280 -0.1468  0.1986  0.0572
18308W        W33925   6.066  14.270  11.179 -0.1160  0.1220  0.1452
18309W        W33926   2.418   6.651  14.052 -0.0137 -0.2647 -0.2840
18310W        W33927   3.280  11.714   4.820  0.3623 -0.0188  0.1003
18311W        W33928   2.420   8.364   4.234  0.0896  0.2337 -0.0087
18312W        W33929   9.158   7.005   1.776 -0.0816 -0.3706 -0.0010
18313W        W33930   5.062   0.122   2.516  0.0940 -0.3941  0.0753
18314W        W33931   8.309   7.267   3.653 -0.0152  0.0551  0.1011
18315W        W33932  14.332   7.331   2.440 -0.4163 -0.0707  0.1114
18316W        W33933  14.566   9.474   5.910  0.1241  0.1239  0.4356
18317W        W33934   7.197  12.039   0.865 -0.1732 -0.1947 -0.0660
18318W        W33935  16.818  11.579  14.107 -0.2216 -0.5156  0.0432
18319W        W33936   6.007   7.516  11.795 -0.3979  0.1606  0.0382
18320W        W33937  10.297  17.478  14.888  0.2326 -0.0612  0.3117
18321W        W33938   5.576   0.454  14.263  0.2159 -0.0408  0.0662
18322W        W33939   7.305   5.737   3.233 -0.1206 -0.1720 -0.0182
18323W        W33940  12.213   3.733  12.425  0.3305 -0.0894 -0.0544
18324W        W33941   4.092   2.411   0.085  0.0142  0.0567  0.1134
18325W        W33942   7.736   7.214   0.802 -0.0625 -0.0788 -0.0929
18326W        W33943  14.309  17.860  13.760 -0.0129 -0.1224 -0.0344
18327W        W33944  13.907   7.663   1.042  0.2598  0.2506  0.2389
18328W        W33945  11.971   6.938   0.814  0.3260  0.1371  0.3212
18329W        W33946  11.472   3.995   4.039 -0.2073  0.1520  0.0609
18330W        W33947  11.552  15.863  14.541 -0.2011  0.0974  0.3412
18331W        W33948   4.893   5.563  14.521  0.1345 -0.2299 -0.0804
18332W        W33949   0.669   4.451  12.492  0.1212  0.0167 -0.1681
18333W        W33950   4.204   3.099  15.670  0.0884  0.1461  0.1256
18334W        W33951   2.668  15.133   4.946 -0.1184  0.1411  0.1839
18335W        W33952   7.760   2.359  11.104 -0.1152 -0.1401 -0.1697
18336W        W33953   2.464  12.724  14.362 -0.0195  0.2438 -0.0370
18337W        W33954   0.099  11.310   5.645 -0.0036 -0.1744 -0.2907
18338W        W33955   6.265   6.157   4.967 -0.0808  0.2563 -0.0729
18339W        W33956  17.116   9.596  11.786 -0.2997  0.0781  0.2307
18340W        W33957  14.288   2.662  11.967 -0.1046 -0.0648 -0.3636
18341W        W33958   0.389  13.374  15.447 -0.1818 -0.3008 -0.5957
18342W        W33959  13.440  13.037   2.083 -0.1988  0.1569  0.2938
18343W        W33960   3.546  17.579  16.774 -0.0237 -0.0810  0.0626
18344W        W33961   9.394   5.305  15.607 -0.1017 -0.1669 -0.2852
18345W        W33962  15.859  10.009  13.384  0.0253 -0.2542  0.2315
18346W        W33963  17.119   5.157  16.608 -0.2117  0.2305 -0.4297
18347W        W33964   9.544  12.978  15.748  0.0743  0.1945 -0.1942
18348W        W33965   9.325   8.520   3.623 -0.2887 -0.0607  0.1081
18349W        W33966   0.017   7.197   3.111 -0.0064 -0.4547 -0.1140
18350W        W33967   9.648   3.783  12.934  0.2644  0.1142  0.0469
18351W        W33968   9.929  10.529  15.081 -0.0986  0.4220 -0.3229
18352W        W33969  17.249   2.560  13.348  0.0523 -0.0846 -0.2564
18353W        W33970   6.876  12.249   1.642  0.1026  0.0156  0.1240
18354W        W33971   2.711   3.248   4.419 -0.3135  0.2506 -0.0312
18355W        W33972  14.727   7.632   4.807  0.3276  0.0377  0.1247
18356W        W33973   7.327   9.525   6.354 -0.1743  0.0815  0.1235
18357W        W33974   8.236  16.095   1.780  0.1466 -0.1720 -0.0136
18358W        W33975   4.398   7.248   3.460  0.1804 -0.1215  0.0542
18359W        W33976   9.469   1.929  16.824  0.2967 -0.3776  0.1212
18360W        W33977   4.070   7.076  14.962 -0.1064  0.1861  0.0740
18361W        W33978  17.216   4.668   1.304 -0.1321 -0.1952  0.0994
18362W        W33979  13.350  16.243   0.025 -0.0318 -0.2250 -0.1153
18363W        W33980   8.195   3.222   0.332  0.0802  0.0969 -0.1098
18364W        W33981  14.154  15.603   4.740  0.1379 -0.0791  0.2585
18365W        W33982  10.712  14.287   0.847 -0.1072 -0.0715 -0.3484
18366W        W33983   1.932  13.987   0.865 -0.1805  0.0625  0.4516
18367W        W33984   5.071   1.705   6.444 -0.0270 -0.1038  0.1552
18368W        W33985  10.225  10.137  16.062 -0.0919  0.0432 -0.2442
18369W        W33986  14.434  12.732  15.927  0.3047 -0.1657  0.0980
18370W        W33987   7.224  11.810  15.727 -0.0050  0.2506  0.0521
18371W        W33988  13.367   0.955  16.013 -0.0699 -0.0331  0.2656
18372W        W33989   0.070   5.901   0.427 -0.1430 -0.5768  0.0337
18373W        W33990   7.521  16.028  15.375 -0.0538  0.1824  0.2824
18374W        W33991  10.777  16.078   1.557 -0.1559  0.0188 -0.1496
18375W        W33992  17.167  14.702  12.410 -0.0455 -0.0394 -0.0440
18376W        W33993  13.118  12.641  10.366 -0.0083 -0.2434  0.4183
18377W        W33994   0.837  13.092   0.458 -0.2194 -0.1414  0.0821
18378W        W33995  14.803   0.416   1.671  0.1791 -0.1807 -0.1671
18379W        W33996   7.081  15.094  16.030  0.0136 -0.1504  0.0443
18380W        W33997  14.638  15.082   4.894 -0.5200  0.2020 -0.1095
18381W        W33998  14.117   5.713  14.560 -0.2965  0.0462  0.0410
18382W        W33999  14.627   8.873   4.270 -0.0483  0.4904  0.0594
18383W        W34000   1.335   2.971  16.674  0.2648 -0.1928 -0.1543
18384W        W34001  12.319   4.051   1.822  0.2013 -0.0513 -0.0969
18385W        W34002   9.583  15.688  12.978 -0.0288  0.0642  0.0479
18386W        W34003   8.125  12.853  12.031  0.1151  0.0208  0.1637
18387W        W34004   3.403   1.996   2.476  0.2941 -0.1741 -0.1525
18388W        W34005  14.050  13.919   3.220  0.0262  0.0386 -0.0868
18389W        W34006   5.747  15.451  15.720 -0.1699  0.0524  0.1073
18390W        W34007  14.832  14.286  13.557 -0.1283 -0.2288  0.0680
18391W        W34008  12.879  13.866   1.776 -0.3333 -0.2372 -0.0384
18392W        W34009   1.844   2.180  16.725  0.2284  0.3396  0.0955
18393W        W34010  10.523  11.406  11.909 -0.1710 -0.3316 -0.2389
18394W        W34011   1.907   4.740   3.477 -0.0653 -0.1765 -0.2766
18395W        W34012  11.859   4.653   5.143  0.3081  0.1215  0.0219
18396W        W34013   0.379  17.789   0.919 -0.0123 -0.0714  0.2221
18397W        W34014   9.774  11.353  11.565 -0.1193 -0.0258  0.2716
18398W        W34015   5.524  12.753  11.370  0.2913  0.0656 -0.0144
18399W        W34016  12.576   4.459  12.508  0.3005  0.0966 -0.0972
18400W        W34017  17.565  15.255  14.121  0.0057 -0.0303 -0.1442
18401W        W34018   9.957   3.641  15.330  0.1696  0.2588  0.1013
18402W        W34019   6.262   0.117   4.783  0.1033 -0.0886 -0.2197
18403W        W34020  13.918  13.431   0.751  0.0272  0.0377 -0.0376
18404W        W34021  10.111   9.556   0.473 -0.1573  0.0185 -0.0298
18405W        W34022   2.679  13.801  13.920 -0.0666 -0.2694 -0.1215
18406W        W34023   4.399   1.103   2.380  0.0343  0.0993 -0.0028
18407W        W34024   2.079   7.728   1.870 -0.0916  0.1702  0.0563
18408W        W34025   6.224   2.034   2.258 -0.0652 -0.0249 -0.1045
18409W        W34026   2.690  13.026   4.371  0.2962 -0.1875 -0.1062
18410W        W34027  16.981  11.707   3.619 -0.1967 -0.0809 -0.0410
18411W        W34028   7.366  11.817  12.445  0.0685  0.0167  0.0968
18412W        W34029   8.354   3.682  14.049 -0.0668 -0.0907  0.0694
18413W        W34030   0.360  15.154   3.606  0.0892  0.2689  0.0927
18414W        W34031  12.926   6.619  16.576 -0.1765  0.1899 -0.2093
18415W        W34032   2.809   1.118  15.263  0.0770 -0.0919 -0.0344
18416W        W34033   8.271  12.757   3.394 -0.0030 -0.1571 -0.2017
18417W        W34034   8.084  10.444   2.090  0.2402  0.3049  0.1922
18418W        W34035   4.874  13.859   1.069 -0.0741 -0.0088  0.0793
18419W        W34036   4.321  14.312  14.001 -0.3366  0.2940  0.1117
18420W        W34037  17.125  11.907  11.197 -0.3132  0.1592 -0.1706
18421W        W34038   6.944  15.916   1.738 -0.1984  0.0522  0.1556
18422W        W34039   5.265  12.984  14.499  0.4386 -0.1792  0.1897
18423W        W34040   5.107  17.569  12.624  0.1286  0.2803 -0.1768
18424W        W34041   8.257   8.644   1.404  0.1138  0.1040  0.0093
18425W        W34042   3.490   2.901  11.957 -0.0245 -0.3343 -0.2593
18426W        W34043  14.652  14.833  12.832 -0.0050  0.0911 -0.1685
18427W        W34044  10.093   5.122   2.262 -0.1532 -0.0401 -0.0468
18428W        W34045  16.256   2.859  11.841 -0.5682  0.0686 -0.0229
18429W        W34046   9.279  14.660  13.053 -0.1359  0.0684  0.0306
18430W        W34047  12.225  15.480  16.691  0.1329  0.0514 -0.2128
18431W        W34048   0.111   7.085  12.029 -0.0693  0.3190 -0.2795
18432W        W34049  16.722   7.328  14.294  0.4207 -0.1328  0.2212
18433W        W34050   1.301  16.085  14.705 -0.0733 -0.0298 -0.0097
18434W        W34051  14.315   1.348  12.055  0.0092 -0.2327  0.3561
18435W        W34052   5.689   5.445  16.721 -0.1197 -0.1253 -0.1733
18436W        W34053  14.500   8.763  13.908 -0.1452  0.0534  0.2425
18437W        W34054  15.040   3.289  14.259  0.2184 -0.0271 -0.0510
18438W        W34055  13.734   7.446   3.249 -0.2455  0.1512  0.1634
18439W        W34056  14.147   8.376  14.207 -0.0556 -0.1229 -0.1204
18440W        W34057   4.602   8.671  14.207 -0.0246  0.0897  0.0445
18441W        W34058  11.449  11.387   3.647 -0.1590  0.0743 -0.1537
18442W        W34059   2.581   5.846   6.322 -0.0840  0.3207  0.2490
18443W        W34060   1.309   9.438   3.010 -0.0928 -0.2649 -0.1198
18444W        W34061  14.354   2.029   3.717  0.2776 -0.1614  0.1631
18445W        W34062   6.532   3.402  15.568 -0.0702  0.0496  0.2556
18446W        W34063  12.331   2.485  14.802  0.0776  0.2968 -0.2920
18447W        W34064   8.567   2.753  14.901  0.1786 -0.0111  0.1431
18448W        W34065  16.923   5.602  13.291 -0.1342 -0.0151 -0.0254
18449W        W34066   8.260   8.797   3.311 -0.1024 -0.1146 -0.2580
18450W        W34067   3.346  16.952  15.747  0.0358  0.0811  0.5568
18451W        W34068  15.043  13.704   4.670 -0.1929 -0.1346 -0.1679
18452W        W34069  16.559  14.472   4.239 -0.1997  0.0164 -0.1895
18453W        W34070   8.336  11.509  13.405 -0.2414  0.0596  0.0802
18454W        W34071   0.626  11.220   2.711  0.1650  0.1362  0.4596
18455W        W34072   8.399  14.136  12.636  0.2739  0.2945  0.2573
18456W        W34073  13.650   0.242   4.012  0.1830 -0.2333  0.3210
18457W        W34074  15.740   6.381   0.414  0.0088 -0.1613 -0.1836
18458W        W34075   3.042  11.534   1.327  0.3154 -0.2510  0.0232
18459W        W34076   8.006  15.521   3.979  0.0251  0.2622 -0.0168
18460W        W34077  13.668   7.045   2.394 -0.1329 -0.0718  0.0326
18461W        W34078  17.301  14.935   4.182 -0.1684 -0.3055  0.1133
18462W        W34079   9.227  15.579   5.689  0.0564 -0.1829  0.3423
18463W        W34080   1.320   8.667  11.016  0.0312  0.1402  0.1620
18464W        W34081   4.725  13.080  16.281  0.4007 -0.3006  0.0136
18465W        W34082  12.859   6.033   3.345 -0.2259 -0.2428  0.0580
18466W        W34083  10.929  13.057  16.743  0.1615 -0.1517  0.1009
18467W        W34084   6.738  15.683   2.640 -0.0856  0.0657 -0.0261
18468W        W34085   9.384  15.670   3.283 -0.1676 -0.0688 -0.1501
18469W        W34086   1.114  14.938   1.422  0.1345  0.2528  0.3604
18470W        W34087   1.411   4.815   0.358 -0.3863 -0.0085  0.1040
18471W        W34088   9.426   0.490   0.417 -0.1723 -0.0858 -0.1854
18472W        W34089   7.254  14.629  12.889  0.0576 -0.1015 -0.0091
18473W        W34090   0.757  14.051   0.354  0.2685  0.3397  0.3395
18474W        W34091   5.689  13.265  15.456  0.1744  0.0990 -0.1902
18475W        W34092   9.715   5.844   5.156  0.0547  0.1007  0.0766
18476W        W34093   2.038  17.159  13.960 -0.0432  0.1553 -0.1219
18477W        W34094  16.162  11.099  15.205 -0.2964  0.0212  0.1704
18478W        W34095   4.217   0.200  13.579 -0.1393  0.3140  0.0141
18479W        W34096  17.646   2.041  10.526 -0.0285 -0.1879 -0.1313
18480W        W34097   7.283   2.188  16.605 -0.0043  0.1839 -0.0155
18481W        W34098   3.407   2.071   5.002 -0.0031 -0.1907  0.3791
18482W        W34099  15.540  13.441   3.067 -0.1281 -0.0454 -0.0809
18483W        W34100  10.443  11.051   0.253 -0.0370  0.1690  0.0353
18484W        W34101   1.315   6.179   2.238 -0.4030  0.0588 -0.1084
18485W        W34102   4.442  13.622  13.297  0.1135  0.3801 -0.3320
18486W        W34103  14.290   2.868   4.444  0.1180 -0.1202  0.1456
18487W        W34104   6.103   2.262  16.776  0.0825  0.1960  0.0159
18488W        W34105   3.526   2.377  16.544 -0.1876 -0.0263  0.1482
18489W        W34106   6.159  11.687   5.325 -0.0292 -0.3993 -0.1662
18490W        W34107  10.791  17.615  16.008  0.0387 -0.0450 -0.2756
18491W        W34108  14.176  11.342   3.253  0.0152 -0.2528  0.2187
18492W        W34109  11.725  11.517   1.494 -0.3391 -0.2263 -0.0635
18493W        W34110  15.651  10.696  12.791 -0.2258 -0.2604 -0.2818
18494W        W34111  16.362   6.539   3.960 -0.1557  0.1557  0.0793
18495W        W34112   9.189  12.008   5.122  0.1370 -0.1164  0.3296
18496W        W34113  10.969  12.895   4.370  0.4063 -0.2563  0.0929
18497W        W34114   9.743   4.873   4.226 -0.0700 -0.0621  0.0443
18498W        W34115  14.447   1.619   6.282  0.2412 -0.2328  0.1932
18499W        W34116   4.426   6.365   5.112 -0.0936  0.1363 -0.0162
18500W        W34117  14.462  14.823   5.299  0.0733  0.2167 -0.1067
18501W        W34118   4.613  17.582  15.887 -0.3176  0.2854  0.1802
18502W        W34119  12.116   4.683   4.203 -0.1503 -0.0757 -0.3034
18503W        W34120   5.421  14.971  15.528  0.3993  0.0103 -0.0740
18504W        W34121  15.021   3.473  13.236  0.0164  0.3132  0.1173
18505W        W34122  14.826   3.079   2.546  0.3285 -0.1730 -0.4491
18506W        W34123  17.532  13.042   5.226 -0.0206 -0.0307  0.0490
18507W        W34124  17.300   9.612  16.171  0.1942  0.1592  0.1604
18508W        W34125  13.736   0.119   0.759  0.0105  0.0725  0.0563
18509W        W34126  13.890   8.782   6.394  0.0488  0.0743  0.1586
18510W        W34127  15.305   4.185  16.135  0.0810  0.3827 -0.0337
18511W        W34128  11.103   1.129  15.512  0.3744 -0.0069  0.3193
18512W        W34129   3.539  15.766  15.409  0.1988 -0.2006  0.2452
18513W        W34130   0.668  13.611  13.158  0.1141 -0.1640  0.3545
18514W        W34131   7.022   0.126   1.697 -0.4469 -0.0888 -0.0228
18515W        W34132  15.619   6.239   5.068  0.3724 -0.0604  0.0734
18516W        W34133  16.334  13.409   5.179  0.4131  0.0274  0.3096
18517W        W34134  14.957   6.749   2.620 -0.2152  0.1458  0.1375
18518W        W34135  17.239  14.426  15.098  0.0863  0.3602 -0.2898
18519W        W34136  11.006   1.986   1.025  0.1633  0.1295  0.0171
18520W        W34137   0.632  12.228   1.658  0.2179 -0.0453  0.1376
18521W        W34138   0.652  15.524   1.861 -0.0457  0.0508 -0.0332
18522W        W34139   4.544   1.467   0.142  0.2376  0.1048 -0.3696
18523W        W34140   4.609  12.574  11.240 -0.0436 -0.0503  0.1450
18524W        W34141   4.710  12.377   3.110 -0.0398 -0.2535  0.0908
18525W        W34142   1.833   4.475  11.607  0.0912  0.3365 -0.2161
18526W        W34143   6.181   8.848  14.798 -0.1088 -0.4337  0.0592
18527W        W34144   3.835   3.986   1.176  0.1334 -0.1797 -0.0755
18528W        W34145   9.899   6.223  13.111 -0.2024 -0.1193  0.2386
18529W        W34146   1.251   1.094  15.631 -0.0479 -0.2918 -0.1318
18530W        W34147   0.302  14.291   4.935  0.1558  0.1006  0.0480
18531W        W34148  11.890   0.300   0.699 -0.0894 -0.0834  0.1824
18532W        W34149   4.977   1.390   5.459  0.2633 -0.2623 -0.1915
18533W        W34150   7.536  12.497  11.285  0.1615  0.2940 -0.2541
18534W        W34151  10.831  12.705  12.942 -0.3707 -0.0509 -0.2378
18535W        W34152   0.085  10.999  15.032  0.1115  0.3197 -0.1058
18536W        W34153   8.413  14.831  15.459 -0.0542  0.2289 -0.3771
18537W        W34154   6.012  16.628   4.024 -0.4178  0.0349 -0.1828
18538W        W34155   3.280   7.488  13.646 -0.0536  0.2352 -0.0060
18539W        W34156   5.353   9.490   3.975 -0.0930  0.2959 -0.1595
18540W        W34157  12.267  17.375   3.151 -0.0663  0.0068 -0.0012
18541W        W34158   3.830  16.737   0.704  0.0731  0.1043 -0.0600
18542W        W34159   8.631  11.133  16.152 -0.2631  0.1533 -0.1586
18543W        W34160   5.394  16.916  13.385 -0.0027  0.1359  0.2255
18544W        W34161  15.830   3.206  11.900  0.2249 -0.0940  0.1585
18545W        W34162   3.934   3.200   0.686 -0.2483 -0.1575  0.0335
18546W        W34163  16.984  10.881   3.486  0.0601  0.0413 -0.1011
18547W        W34164  15.472  12.825  15.750 -0.0903  0.3502  0.0612
18548W        W34165   9.712   4.900  15.647  0.0724  0.0073 -0.0602
18549W        W34166  10.826  16.428   1.979 -0.0327 -0.4431 -0.0647
18550W        W34167   4.184  11.776   5.606 -0.1318  0.0677 -0.0368
18551W        W34168   9.003   7.292   4.246 -0.1765 -0.2706  0.0562
18552W        W34169   7.699  16.738  14.089  0.0671  0.1208  0.2754
18553W        W34170  10.229   7.897  15.706 -0.0440  0.1021  0.1216
18554W        W34171   4.615   5.425  14.080  0.1114 -0.0345 -0.2834
18555W        W34172  16.336   4.758   0.893  0.1578  0.1605  0.1999
18556W        W34173  12.393  13.760  12.006 -0.1165 -0.3033  0.2546
18557W        W34174  15.674   8.933   2.624  0.1227  0.0367 -0.0487
18558W        W34175   0.113  12.752   2.055  0.0869 -0.0213  0.3623
18559W        W34176  16.674   4.083  15.701  0.2096  0.1595  0.2052
18560W        W34177  12.669  14.793  13.065  0.0080  0.0137 -0.2153
18561W        W34178  11.754   1.960  10.464 -0.5230 -0.1511 -0.1404
18562W        W34179   2.017   3.389  15.812  0.0760  0.4020  0.2318
18563W        W34180  17.161  12.440  16.438  0.0990 -0.0779 -0.2600
18564W        W34181   9.606   4.606   5.635 -0.0960 -0.0888  0.3262
18565W        W34182   6.405  16.156  13.672 -0.3182  0.0466  0.0393
18566W        W34183  15.503  10.578   1.322 -0.2211  0.1159 -0.0953
18567W        W34184  16.678  14.504   1.210 -0.0656 -0.2062  0.1251
18568W        W34185   4.277   7.055  16.721 -0.0145  0.2979  0.0221
18569W        W34186   1.468  16.738   0.372 -0.3040  0.0617  0.0373
18570W        W34187  15.891  14.054   2.146 -0.2527  0.1072 -0.0285
18571W        W34188   0.686   9.992   5.068 -0.0249 -0.0230 -0.0144
18572W        W34189  10.994   5.026   0.153 -0.3302  0.1016 -0.2248
18573W        W34190   0.441   0.504   1.693  0.0265  0.0340 -0.0916
18574W        W34191  15.031  11.072  13.392  0.3353  0.0171 -0.1460
18575W        W34192  14.612  11.342  16.124  0.0001  0.2442  0.1987
18576W        W34193   9.635  15.207   1.779  0.0532 -0.0130  0.0216
18577W        W34194   1.653  17.834   4.133  0.0504  0.1443 -0.0165
18578W        W34195  17.051   4.942   3.816 -0.1142 -0.0885 -0.1032
18579W        W34196  10.031   8.308  13.160  0.3295  0.0234 -0.1780
18580W        W34197   8.886   2.788  14.469  0.0656 -0.4713  0.1970
18581W        W34198  14.168  11.310  11.609  0.1007  0.0947  0.0516
18582W        W34199   4.816   5.997  13.009  0.1787  0.1868 -0.1177
18583W        W34200   8.646   9.108   1.589  0.0359 -0.0763 -0.0671
18584W        W34201  16.474   3.322  16.687 -0.4072 -0.0684 -0.0477
18585W        W34202  13.498   4.649   5.346 -0.3245  0.0752  0.4207
18586W        W34203   0.709  14.554  14.778 -0.0505  0.0241  0.1836
18587W        W34204   6.799   9.798   3.254 -0.0711 -0.1343  0.0529
18588W        W34205  17.181  12.650  15.221  0.1894  0.1529 -0.1361
18589W        W34206   6.619   8.073  13.045 -0.2285 -0.3930 -0.4622
18590W        W34207  15.643   4.229  13.525 -0.0057  0.0446  0.1180
18591W        W34208   8.584   0.001  16.469  0.1952  0.1638 -0.0768
18592W        W34209   3.891   9.562   3.035  0.1323 -0.3291 -0.2744
18593W        W34210   7.982  12.769  11.521  0.1709 -0.3195 -0.3333
18594W        W34211   9.361   1.383  14.670 -0.1828  0.2019 -0.1734
18595W        W34212   1.933   5.203   3.617 -0.1609  0.1593  0.2147
18596W        W34213  14.387   4.629   5.388 -0.0546 -0.0805 -0.0563
18597W        W34214  15.169  13.960   2.741 -0.2109 -0.1635 -0.1993
18598W        W34215   1.590   5.827  13.993 -0.2792  0.2784  0.3006
18599W        W34216   9.310  11.274  12.197 -0.0437 -0.0347  0.1104
18600W        W34217   4.862   6.787   5.083 -0.1906  0.1539 -0.0411
18601W        W34218   4.089  16.495   3.796  0.1847 -0.2607 -0.0803
18602W        W34219  14.892   7.627  16.639  0.1017 -0.1951 -0.2484
18603W        W34220   6.478   4.640  14.684 -0.0624 -0.0144 -0.0298
18604W        W34221  12.643   4.133   5.397 -0.3291 -0.1460  0.2654
18605W        W34222  13.302  15.953   2.984  0.0665  0.0239  0.0632
18606W        W34223  13.856   3.197  15.517 -0.4499 -0.0764 -0.0099
18607W        W34224   5.066  12.992   2.040 -0.0302  0.1909  0.0569
18608W        W34225  13.449   5.861   0.399  0.1038 -0.0467 -0.0681
18609W        W34226   2.990   8.558   1.364  0.1190  0.2717  0.0882
18610W        W34227  11.770  14.270  13.992  0.1215  0.1052  0.0777
18611W        W34228   0.184   7.945  15.013 -0.2401  0.1211  0.0317
18612W        W34229   4.663  12.808  12.237  0.0254  0.0470 -0.1237
18613W        W34230  17.182   6.655   0.177 -0.0422 -0.0444  0.1329
18614W        W34231  11.589   8.130   3.115  0.0404  0.1312  0.1661
18615W        W34232  11.970  16.221   0.215 -0.1863  0.0833  0.2415
18616W        W34233  12.213  13.828   4.341  0.2784 -0.1909 -0.1308
18617W        W34234  17.507   5.978   1.363 -0.0209  0.1371 -0.3156
18618W        W34235   9.074  13.621   3.169  0.2235  0.1580 -0.0604
18619W        W34236  14.683   1.044  12.066 -0.2589  0.0303  0.0969
18620W        W34237  17.107   1.343  12.808  0.2779  0.3590  0.0485
18621W        W34238   4.711  15.822  12.139 -0.1904 -0.0048  0.1815
18622W        W34239   8.362   7.369  14.115  0.1786  0.0497  0.1453
18623W        W34240  14.294  10.875   3.422 -0.0882 -0.1009  0.1364
18624W        W34241   9.856   4.141  15.609  0.1249 -0.1780  0.2165
18625W        W34242  12.949  13.157  15.638 -0.2016  0.1617  0.1183
18626W        W34243  12.946   7.857   3.717  0.1001 -0.1984  0.0297
18627W        W34244  13.810   1.546   2.639  0.0804  0.0107  0.0449
18628W        W34245  11.412   7.002   3.411 -0.0688  0.2987 -0.0107
18629W        W34246  15.190   5.612   3.454  0.1355 -0.1826  0.1055
18630W        W34247   5.674   9.912  11.701 -0.0141  0.1286  0.2292
18631W        W34248   1.315   8.093  13.260 -0.2101 -0.1354 -0.0259
18632W        W34249  14.935  13.900   1.617  0.0023  0.1588 -0.0205
18633W        W34250  16.784   0.895   5.200  0.1909 -0.2198 -0.1949
18634W        W34251   8.699   2.525   3.529  0.1842 -0.2737  0.1103
18635W        W34252  15.652   3.334  16.077 -0.0933 -0.0514 -0.2649
18636W        W34253   9.077  15.987  11.714 -0.0534  0.1969  0.0576
18637W        W34254   3.015   8.620  16.148  0.2265 -0.0481  0.0324
18638W        W34255  15.579   9.469  10.978 -0.0166  0.1055  0.2378
18639W        W34256   4.546   4.133  13.856 -0.0772  0.0481 -0.2837
18640W        W34257  11.463  11.872  11.602 -0.0518 -0.1526 -0.1101
18641W        W34258  11.119  10.866  13.146  0.0619 -0.1315  0.0585
18642W        W34259   9.750   1.588  15.693 -0.1658  0.2016 -0.0761
18643W        W34260  12.409   3.292   4.048 -0.1716  0.3446 -0.1238
18644W        W34261   0.358   0.206   0.026 -0.2697  0.0910  0.0340
18645W        W34262  12.956   0.666   0.536 -0.1705  0.2125  0.0730
18646W        W34263  16.362   2.624  12.868  0.3115  0.1587  0.0174
18647W        W34264  13.269  11.358  15.959  0.2578  0.1105  0.1488
18648W        W34265   9.933   2.507  13.046 -0.0170  0.2936 -0.0595
18649W        W34266   2.175   3.701  14.880 -0.1221 -0.0080  0.1391
18650W        W34267  14.300   0.061  16.563  0.0842 -0.0581  0.0216
18651W        W34268  17.735   0.855   3.382  0.0727  0.0238  0.2012
18652W        W34269  11.520  15.164   2.832  0.0699  0.0679  0.0199
18653W        W34270  11.798  15.577   4.963 -0.1640 -0.0839 -0.1786
18654W        W34271   2.136  13.215   1.305 -0.1278  0.0059 -0.2715
18655W        W34272   7.258  16.846  11.220  0.2884  0.0080  0.0456
18656W        W34273  10.286  14.117  11.848 -0.1622  0.1304 -0.2353
18657W        W34274  13.002   6.087  12.456 -0.1841 -0.3604 -0.1965
18658W        W34275  16.417  17.633  12.276  0.0020  0.2915  0.1466
18659W        W34276   5.996   1.768  11.956  0.1515 -0.0570 -0.0574
18660W        W34277  10.282   5.032   4.204  0.0362 -0.0846  0.0155
18661W        W34278  11.351   6.484   4.748  0.4210 -0.1500 -0.1668
18662W        W34279  10.317  12.173   0.628  0.0852  0.0149  0.2417
18663W        W34280  15.030  13.786  14.327 -0.2190 -0.0207 -0.1734
18664W        W34281   1.194  11.646  14.625  0.0566 -0.0046  0.3548
18665W        W34282   9.194   0.464   4.300 -0.0748 -0.0695  0.1802
18666W        W34283   2.405   6.677   2.364 -0.1770  0.0511  0.1627
18667W        W34284   2.495  11.072  14.782 -0.2527  0.0893  0.1840
18668W        W34285   3.786  14.334  11.642  0.0408 -0.1083 -0.0186
18669W        W34286  11.319  13.415  14.380 -0.1107  0.0379  0.1567
18670W        W34287  12.671   5.358  14.431 -0.0179  0.0115  0.0112
18671W        W34288  14.193  12.253  12.059  0.2371 -0.0661 -0.1439
18672W        W34289  15.476   7.472  15.171 -0.1840 -0.0107 -0.0416
18673W        W34290   0.348   7.483   4.496  0.0201  0.0716  0.0020
18674W        W34291   0.890   1.687  12.244 -0.5157  0.0767 -0.3789
18675W        W34292   5.765   7.786  15.891 -0.2158 -0.0218  0.1200
18676W        W34293  14.703   9.587   0.166  0.2460  0.1002 -0.3575
18677W        W34294   1.638  10.435   3.018 -0.1216 -0.1279  0.0900
18678W        W34295  10.422  16.422   4.456  0.3314  0.2357  0.0166
18679W        W34296  10.330  15.586  12.201  0.3143  0.1253  0.0399
18680W        W34297   4.430  13.701  11.737 -0.3877  0.1246  0.0253
18681W        W34298   7.362   4.117   3.341  0.1789 -0.1751  0.1523
18682W        W34299   5.669  14.878  16.762 -0.1945 -0.0396  0.0419
18683W        W34300  14.228   3.951  12.502  0.0350  0.0076 -0.2629
18684W        W34301  12.747   5.739  12.887  0.0673  0.0385  0.6308
18685W        W34302   7.205  12.832  15.722 -0.0763  0.2634 -0.0111
18686W        W34303   3.052   4.583   1.602  0.1345 -0.1824 -0.0521
18687W        W34304  13.347  14.030  15.473  0.0171 -0.2249  0.1274
18688W        W34305  15.895  10.872  15.561 -0.3019 -0.3529  0.2853
18689W        W34306  14.354   4.394  15.154  0.5483  0.4730  0.2970
18690W        W34307  13.684   3.140  12.215 -0.1310  0.3285  0.0698
18691W        W34308   7.419   3.237  13.994 -0.1397 -0.0080  0.3680
18692W        W34309   6.606  13.781   0.614 -0.0024  0.3912  0.0170
18693W        W34310   5.407  16.721   2.523  0.1651 -0.1418 -0.1095
18694W        W34311   3.873   8.578   4.308 -0.0779 -0.3484 -0.1100
18695W        W34312  16.753  14.520  14.927  0.2065 -0.0690 -0.0044
18696W        W34313  12.922   2.930   1.933  0.1825  0.0764 -0.2278
18697W        W34314   4.204   7.508   0.583  0.1574 -0.3088  0.1297
18698W        W34315  15.765  15.399   1.086  0.0981  0.4117  0.1117
18699W        W34316   0.561  13.036  15.788 -0.2638 -0.1654 -0.2496
18700W        W34317   9.481   2.456  14.743 -0.1999 -0.2847  0.0594
18701W        W34318   0.574   6.340  14.558 -0.1174  0.2248  0.3851
18702W        W34319  10.255   9.573  12.056  0.0153 -0.5533  0.0754
18703W        W34320   3.412   0.158   2.069 -0.3207 -0.0004  0.3558
18704W        W34321   3.501  16.420  11.117 -0.2243 -0.4159 -0.1041
18705W        W34322   3.791  17.179  12.312  0.1201 -0.0025 -0.0966
18706W        W34323  11.786   2.619   3.878 -0.0246  0.0411 -0.0469
18707W        W34324  16.683  13.515  14.136 -0.0180  0.3591 -0.1577
18708W        W34325   0.866   2.339  11.506  0.0853  0.0377  0.1955
18709W        W34326  16.068  12.493  14.338 -0.0985 -0.1366 -0.2612
18710W        W34327   2.237  14.722  16.030  0.0622  0.4684  0.2441
18711W        W34328   8.902   1.157   0.139 -0.1378 -0.0064 -0.0760
18712W        W34329   0.281  15.852  13.161 -0.1622  0.0354 -0.0406
18713W        W34330  16.312   6.788   3.542  0.1169 -0.1152 -0.2555
18714W        W34331  12.094  13.001  12.289 -0.0671 -0.0342  0.1949
18715W        W34332   6.457   0.965  14.018 -0.0973  0.0685  0.1195
18716W        W34333   8.441   0.999   4.926  0.0385 -0.0200 -0.3679
18717W        W34334  11.431  12.853   3.137 -0.0439 -0.0370  0.0277
18718W        W34335  15.168   6.752   5.633  0.1430  0.3951 -0.1646
18719W        W34336   6.930  10.135  12.160 -0.4749  0.3256 -0.2392
18720W        W34337   5.808  12.165  11.490 -0.0529 -0.2476 -0.0996
18721W        W34338   9.774  11.574  12.047 -0.1702 -0.1190  0.1219
18722W        W34339   6.510   8.458   2.799 -0.4426 -0.1596  0.1412
18723W        W34340  13.476   8.558  11.499  0.2939  0.1432  0.1167
18724W        W34341  10.425   7.053   1.358  0.1533 -0.3299 -0.1860
18725W        W34342   1.325  17.467  15.546  0.0554  0.0806  0.0060
18726W        W34343  10.488  16.909  15.711 -0.0762  0.1381 -0.2072
18727W        W34344   2.095   8.806   3.479  0.0692 -0.0919  0.0893
18728W        W34345   3.981   9.376  11.546  0.2466  0.1792 -0.0280
18729W        W34346   3.168   3.228   3.199 -0.3431  0.0610 -0.2319
18730W        W34347   2.507   8.039  15.032 -0.3439 -0.1142  0.0717
18731W        W34348  17.126  11.672   1.815  0.0199  0.1685  0.0246
18732W        W34349   8.086   4.192   4.400 -0.3635 -0.2545  0.3087
18733W        W34350   5.476   4.494   1.534  0.1540  0.5241  0.0357
18734W        W34351   9.328   2.036   3.604  0.1912  0.2306  0.0645
18735W        W34352   0.340   4.725  13.242 -0.0042  0.1251  0.0196
18736W        W34353  17.134   1.355   0.248  0.0417 -0.0992  0.2815
18737W        W34354  10.508   2.143   3.589 -0.0661  0.1815 -0.2520
18738W        W34355   9.739  17.801  13.682 -0.1040 -0.0367  0.1800
18739W        W34356  17.417  13.965   1.587 -0.1595  0.4052 -0.2759
18740W        W34357   1.983   6.532  16.287 -0.0535  0.0417 -0.2046
18741W        W34358   5.049  13.294  15.923 -0.0319 -0.2246  0.0878
18742W        W34359  16.996   1.270  14.096  0.0651 -0.0790 -0.2509
18743W        W34360   0.357  14.823   4.588 -0.0107 -0.2230  0.0098
18744W        W34361   2.875  13.158   3.486  0.0168 -0.0790  0.1336
18745W        W34362  15.757   9.989  12.092 -0.1628 -0.0869 -0.1149
18746W        W34363   2.678   7.155   5.616 -0.0171  0.0799 -0.0659
18747W        W34364  13.628   4.905  14.955  0.0916 -0.1882  0.1681
18748W        W34365  13.909  14.588  13.377  0.0761 -0.1948 -0.0344
18749W        W34366   4.106  15.148  12.923  0.2014 -0.0922  0.0412
18750W        W34367   2.842  15.817  10.397 -0.0867  0.0891 -0.0346
18751W        W34368   5.732   5.770  13.317  0.1027 -0.0020 -0.0837
18752W        W34369  12.601   9.169  12.033  0.2647 -0.4165 -0.3387
18753W        W34370  13.129   6.628  12.417 -0.1528  0.1322  0.0795
18754W        W34371   0.415   3.259  15.233  0.4275 -0.1607  0.0503
18755W        W34372   7.800   4.054   1.638  0.0653 -0.0157 -0.1101
18756W        W34373  16.242  12.499   5.405  0.0564  0.2898 -0.0985
18757W        W34374  16.930   7.386   2.518 -0.0058 -0.2589  0.0849
18758W        W34375   1.970   6.041  16.431 -0.0894  0.1239  0.1658
18759W        W34376  14.747  10.789  16.273 -0.0469  0.1100 -0.1669
18760W        W34377   4.343  13.472   3.803  0.2362 -0.3714 -0.0083
18761W        W34378  15.360  10.150   2.063  0.2144 -0.1002 -0.0674
18762W        W34379   3.394  16.244   0.450  0.1505 -0.0451 -0.2832
18763W        W34380   0.963   8.627   1.282 -0.4268 -0.0280 -0.0734
18764W        W34381   3.502  14.778  14.144  0.0977 -0.0586 -0.1136
18765W        W34382   8.696  17.792   3.074  0.2720 -0.2057  0.0854
18766W        W34383  14.889   1.505   6.082  0.0726  0.0242  0.3214
18767W        W34384  12.564   4.946  13.592 -0.3009 -0.1456  0.3253
18768W        W34385  17.340  16.709   1.841 -0.0232  0.1753  0.0935
18769W        W34386   8.111  10.747   5.363  0.1072  0.1488  0.0823
18770W        W34387   8.336  17.053   1.907  0.0228 -0.2161  0.1189
18771W        W34388   0.952  16.599  11.437  0.0142  0.1901 -0.0817
18772W        W34389   8.798  14.677   5.268  0.4379  0.1607 -0.1020
18773W        W34390  10.334   5.651  13.543 -0.2810  0.1538  0.1085
18774W        W34391  12.458  11.022   3.916  0.1360 -0.0753  0.2442
18775W        W34392  10.503   0.572   5.686  0.0440 -0.2355  0.3459
18776W        W34393  12.743   6.197  13.136 -0.0514  0.1973  0.2428
18777W        W34394   1.745  15.112   4.669 -0.2075  0.0927  0.1033
18778W        W34395  15.352   7.631  14.177  0.1961 -0.1593  0.0215
18779W        W34396   1.693  14.283  12.115  0.3129 -0.1419 -0.1368
18780W        W34397   8.604  17.274  12.565  0.1231  0.1400  0.1055
18781W        W34398   6.562  17.474  11.902  0.2541 -0.0009 -0.1129
18782W        W34399   0.318   6.713  14.294 -0.0389  0.1896  0.0552
18783W        W34400   1.781  15.458  11.084  0.1281  0.0053  0.2284
18784W        W34401  17.721  17.107  16.740  0.2457  0.1443 -0.0043
18785W        W34402   0.581   8.854   4.046 -0.2316  0.1854 -0.0904
18786W        W34403  12.942  14.112   5.010 -0.0061 -0.3103 -0.0153
18787W        W34404  16.477   3.828   1.957 -0.2323 -0.0463  0.1458
18788W        W34405  17.866   2.379  11.985 -0.0202  0.0544 -0.1430
18789W        W34406  13.742   9.446   0.969 -0.0216 -0.2870  0.4269
18790W        W34407  15.579   4.327   1.520  0.1531 -0.0233 -0.2119
18791W        W34408  17.396   7.425   3.967 -0.2351  0.1616 -0.0159
18792W        W34409   0.619   6.810  16.271 -0.0822 -0.3191  0.0051
18793W        W34410   6.901   2.783   1.320 -0.0703  0.0102 -0.2099
18794W        W34411  13.473   8.534   0.668 -0.1038  0.3447 -0.0549
18795W        W34412   1.957   3.478  16.331 -0.3935 -0.0449 -0.3187
18796W        W34413   1.511   6.904   4.207 -0.2684  0.1126  0.1196
18797W        W34414   6.745  16.484   5.218  0.0541 -0.0008  0.0237
18798W        W34415  14.522  11.995  13.723  0.0467 -0.0306  0.2470
18799W        W34416   6.097  10.087  13.150 -0.2348 -0.0366 -0.3764
18800W        W34417   7.049   8.079   2.060  0.3711 -0.0772 -0.1240
18801W        W34418   4.906  16.093  16.054 -0.2363  0.0684  0.1233
18802W        W34419  11.561  16.474   5.683  0.1895 -0.0016 -0.0912
18803W        W34420  17.432  13.654  15.856 -0.1517 -0.0913 -0.0421
18804W        W34421   0.951   6.674   4.950 -0.2658 -0.0126  0.0891
18805W        W34422   2.844   4.783   2.424  0.3340  0.0635 -0.2040
18806W        W34423   2.387   7.566   3.069 -0.0855 -0.1725 -0.2307
18807W        W34424  14.083  12.625  15.619  0.0243  0.1236  0.0800
18808W        W34425   3.687  11.645  15.790  0.0451  0.0840  0.2030
18809W        W34426   0.759   1.676  13.238  0.0295  0.2268  0.3361
18810W        W34427  13.136   4.492   1.615  0.1898 -0.0573  0.1104
18811W        W34428   8.722  12.749  13.122  0.0760  0.0954  0.2078
18812W        W34429   9.618  13.857  12.467  0.0847  0.1177 -0.0569
18813W        W34430   4.337   4.088  14.350 -0.2527  0.1381  0.2603
18814W        W34431   5.480   9.759  15.142 -0.2543 -0.0443 -0.1008
18815W        W34432   4.069   1.036   3.016  0.0243 -0.0971 -0.0835
18816W        W34433   7.190   5.021   1.627 -0.0545  0.1720 -0.1556
18817W        W34434   5.568  11.647   1.008  0.0105  0.1899  0.1355
18818W        W34435  11.724  11.633  12.435 -0.1416  0.3341 -0.2385
18819W        W34436  10.527   7.813  13.449  0.0552 -0.2203  0.0144
18820W        W34437   8.377   2.849  13.651 -0.0254  0.0777 -0.0512
18821W        W34438  13.905  11.342   0.332  0.1726  0.2797  0.1362
18822W        W34439   3.638   0.045   1.598 -0.2643  0.0280  0.2471
18823W        W34440   3.992  12.662   4.858 -0.3848 -0.1508  0.1633
18824W        W34441  10.271   8.507   4.508  0.0013 -0.0559 -0.1489
18825W        W34442   9.424   8.365  14.228 -0.1450  0.4323 -0.1717
18826W        W34443  12.036   8.583  12.499 -0.0687  0.0124 -0.5486
18827W        W34444  11.031   8.343   5.313  0.1716 -0.1890  0.2257
18828W        W34445  17.122   4.569  12.333 -0.0640 -0.2482  0.2426
18829W        W34446   2.377  11.794   0.102  0.2820  0.2560 -0.0902
18830W        W34447  12.733   6.741  11.999  0.0243 -0.0592 -0.0943
18831W        W34448   2.393   7.226   3.505  0.0482 -0.0396 -0.0848
18832W        W34449   1.607  15.417  12.588  0.0160  0.0002 -0.1263
18833W        W34450  14.662  11.888   2.390 -0.0866 -0.1491 -0.1886
18834W        W34451  13.544   1.818   4.879 -0.1642  0.0506 -0.0640
18835W        W34452   7.222   0.966  13.752 -0.0865  0.3428  0.2292
18836W        W34453   9.365   0.861   3.945  0.1753 -0.3165 -0.3003
18837W        W34454  17.792  12.697   0.597 -0.0691  0.0912 -0.1121
18838W        W34455  17.817   1.569  13.863 -0.0043  0.0903  0.3211
18839W        W34456   6.321  14.355   5.316  0.2381 -0.2454 -0.1431
18840W        W34457   2.018  15.317  12.838  0.0099  0.1234 -0.0706
18841W        W34458   3.664   6.487   0.208  0.1848  0.0643 -0.1502
18842W        W34459  17.838   2.470   2.541  0.0436 -0.1986  0.2375
18843W        W34460   3.548   8.565  14.454  0.1481  0.1434  0.2661
18844W        W34461   9.067   5.361  14.107 -0.0600  0.1627 -0.0624
18845W        W34462   1.820  10.846  12.868 -0.0638 -0.1840 -0.1948
18846W        W34463  12.123   4.946   5.702 -0.1259  0.3110  0.2291
18847W        W34464  16.140  17.015  11.757  0.0009 -0.3696  0.1691
18848W        W34465   9.510   2.754   4.500 -0.3540  0.0752  0.0558
18849W        W34466   5.648  17.573  12.468  0.3381  0.0585  0.1519
18850W        W34467  14.014   7.568   1.565  0.0290 -0.3010 -0.0079
18851W        W34468   2.620   3.871   2.892  0.1737  0.2028  0.1193
18852W        W34469  11.752   8.881   2.098 -0.0328 -0.1236  0.1767
18853W        W34470  13.517  11.137   3.817  0.1772  0.0791  0.0877
18854W        W34471   6.116  11.157  15.317  0.3721  0.0257 -0.0083
18855W        W34472   6.662   9.180   5.578 -0.1074 -0.1007 -0.0535
18856W        W34473   1.063  16.375  16.237 -0.1404 -0.0292 -0.4090
18857W        W34474   3.818  11.283  14.346  0.1710 -0.4522  0.1991
18858W        W34475   5.112   7.120   0.334 -0.3794  0.1654  0.3436
18859W        W34476   9.398   5.930   6.403  0.0557 -0.1148 -0.1456
18860W        W34477  11.949  14.925  16.379  0.0421  0.2818  0.2091
18861W        W34478   8.356  16.068   1.248  0.1299  0.1976  0.2323
18862W        W34479   0.624  10.743   1.243  0.0307  0.3515  0.1061
18863W        W34480   8.031   4.340  16.605 -0.1314  0.0674 -0.0254
18864W        W34481   9.879  17.446   1.269 -0.1911  0.0375  0.1751
18865W        W34482  13.354  14.476   4.964  0.0656 -0.2588 -0.0285
18866W        W34483  12.793   9.278   0.721 -0.3112  0.2047 -0.2527
18867W        W34484  11.664  17.799   5.594  0.0468 -0.0116 -0.0743
18868W        W34485   4.520  16.885  13.082  0.1757 -0.0847  0.1493
18869W        W34486   4.165   8.472  15.742  0.3032  0.0425  0.0495
18870W        W34487  15.696  17.142   3.276  0.0257  0.0055 -0.1274
18871W        W34488  11.950  11.870  13.038  0.0775 -0.0010 -0.1265
18872W        W34489  16.359   7.621  12.439 -0.1112  0.0122 -0.0472
18873W        W34490   5.753   2.882   2.746 -0.0530  0.0468  0.1592
18874W        W34491   8.803   5.240   3.280  0.2685  0.1665  0.2366
18875W        W34492   9.490   4.638  14.850 -0.1696  0.0550 -0.0938
18876W        W34493   3.350  16.693  16.780  0.2570 -0.0802 -0.2188
18877W        W34494  12.408   9.854   5.524 -0.1653 -0.0278 -0.1023
18878W        W34495   4.459   9.793  15.778  0.0238  0.0758 -0.2907
18879W        W34496  12.407   5.405   5.167  0.2032  0.1120  0.1509
18880W        W34497   3.243   3.038  11.482  0.0028  0.4038  0.4774
18881W        W34498   8.246   2.368  13.060 -0.0285 -0.1199 -0.0708
18882W        W34499   2.708   2.962   4.030 -0.0122  0.2613  0.1121
18883W        W34500   2.273   8.212  13.163  0.0443 -0.1097  0.3661
18884W        W34501  13.160   3.281  12.767  0.1329  0.3665  0.1569
18885W        W34502   6.116  10.710  14.385 -0.2464  0.0964 -0.1385
18886W        W34503   0.641  14.214   5.331 -0.1257 -0.1213 -0.2641
18887W        W34504   5.822   3.367   3.534 -0.2010 -0.0596  0.0812
18888W        W34505   9.782   8.441  12.260 -0.0888 -0.0430  0.0854
18889W        W34506   4.137   8.297   2.564  0.0116  0.1376 -0.1285
18890W        W34507   5.767   7.138   4.544  0.1003 -0.0972 -0.3637
18891W        W34508   4.339   6.225  12.948  0.1669 -0.2296  0.3482
18892W        W34509   0.311   1.171   4.659  0.0656  0.1419 -0.2621
18893W        W34510  13.209   7.304   2.559  0.1823 -0.1199 -0.2918
18894W        W34511   2.282  11.394   5.573 -0.2005  0.2232 -0.0150
18895W        W34512  16.327  14.901  15.446  0.2363  0.1050 -0.0683
18896W        W34513   6.167  11.181   5.295 -0.2637 -0.1008 -0.0676
18897W        W34514  10.048  12.331   2.078 -0.1631  0.0383 -0.0860
18898W        W34515  12.445  12.832  11.955  0.0853 -0.1543 -0.1977
18899W        W34516  15.672   6.585  15.538 -0.1166  0.1472 -0.0239
18900W        W34517  17.721   9.666   4.604 -0.1638  0.2153  0.0400
18901W        W34518   1.231   5.143  12.505 -0.1922  0.0496 -0.3049
18902W        W34519   2.214   9.438   5.032 -0.1613  0.0349  0.0072
18903W        W34520   1.841  13.562  14.614  0.0477 -0.1633 -0.0576
18904W        W34521   1.121  15.413   4.058 -0.0756 -0.2097 -0.2769
18905W        W34522   5.498  10.533   3.313 -0.2992 -0.2271 -0.1565
18906W        W34523  10.301  15.758  16.430  0.1105 -0.0540 -0.0297
18907W        W34524   7.503   0.684   4.880  0.2298 -0.1094 -0.1616
18908W        W34525   8.144   9.217   5.609  0.2596  0.0273 -0.2347
18909W        W34526   2.198  17.450  15.156  0.0617  0.3399  0.1624
18910W        W34527  17.106  14.046   3.720  0.0699  0.3168  0.2182
18911W        W34528   9.794  13.242   2.020  0.1286 -0.1470 -0.2781
18912W        W34529  17.718  14.465  15.331 -0.0451 -0.0941  0.1251
18913W        W34530  10.496  10.929   4.986  0.2052 -0.0529 -0.0324
18914W        W34531   1.651   7.388  13.188 -0.0316  0.6218 -0.2132
18915W        W34532   7.024  15.710   4.199  0.0326  0.2013 -0.2672
18916W        W34533  12.332  16.843  15.169  0.0500 -0.2921 -0.0745
18917W        W34534   5.328   1.665  14.359  0.1714 -0.0357 -0.0720
18918W        W34535   7.127  15.365   2.547 -0.0910 -0.1922  0.0445
18919W        W34536   5.227   0.508   5.373  0.2934  0.1759 -0.0650
18920W        W34537   4.529   0.927  16.171  0.1900 -0.3158  0.0371
18921W        W34538  17.704  17.014   2.760  0.1940 -0.2381 -0.2731
18922W        W34539   0.688   5.878  14.851  0.0080 -0.1173 -0.3669
18923W        W34540  15.198  14.698  13.420  0.0436 -0.0325  0.0710
18924W        W34541   4.138   2.103  15.759 -0.3436 -0.1546 -0.0998
18925W        W34542  16.552  13.936   3.600 -0.0774  0.0482 -0.1938
18926W        W34543  12.840   9.976  15.866  0.2111  0.0537  0.3776
18927W        W34544   0.426   6.645  13.804 -0.0288  0.2241  0.0749
18928W        W34545  11.242  16.673   4.737  0.2739  0.0348 -0.1805
18929W        W34546   3.396   0.172   5.027  0.0024 -0.1510 -0.2084
18930W        W34547  10.839   6.011  11.989 -0.2239  0.3547 -0.0113
18931W        W34548   4.510   3.760  15.073 -0.2407 -0.0941  0.0248
18932W        W34549   4.266   1.998  16.224  0.2736 -0.5811  0.3265
18933W        W34550   5.691   0.750  10.621  0.0047 -0.0395  0.2008
18934W        W34551   9.599   5.065   3.072 -0.0503  0.2791 -0.0251
18935W        W34552  14.979   2.843  14.597 -0.4182 -0.1110  0.0294
18936W        W34553   2.207  16.855   1.000 -0.1439 -0.0736 -0.0257
18937W        W34554   0.897  12.626  13.185  0.2156  0.2197 -0.3811
18938W        W34555  15.553  12.289  14.967 -0.5163  0.1710  0.0227
18939W        W34556  17.235   3.549  11.632 -0.0692  0.0364  0.1968
18940W        W34557  11.525   4.110  16.327 -0.0815 -0.3961  0.0332
18941W        W34558   5.052   8.421   3.731 -0.0525  0.1876  0.2288
18942W        W34559   4.505   7.771   3.744  0.1029 -0.1411 -0.0972
18943W        W34560   5.803   1.019   3.364  0.1280 -0.1089 -0.0488
18944W        W34561  14.993  11.973  13.970 -0.1784  0.2047 -0.0673
18945W        W34562   0.616   2.638   4.268 -0.1382 -0.2103 -0.1753
18946W        W34563  11.342   6.200  15.969  0.2263  0.0972  0.2659
18947W        W34564  12.943   3.170   3.770  0.3917  0.0971  0.0681
18948W        W34565  11.499   6.338  16.486 -0.0635 -0.0850  0.1446
18949W        W34566   7.599  15.847  11.957  0.0783  0.0817 -0.0443
18950W        W34567   1.218  17.431  11.974  0.3346  0.3300 -0.0153
18951W        W34568   9.590   3.278   3.806  0.0717  0.2634 -0.1633
18952W        W34569   7.022  13.456  16.202  0.1222 -0.0890 -0.0396
18953W        W34570  14.425  13.504  13.020 -0.0127  0.1703  0.2351
18954W        W34571   3.228   1.251  14.128  0.0688 -0.3856 -0.0947
18955W        W34572   9.480   6.270   0.839 -0.0533 -0.0334  0.1286
18956W        W34573   8.376   4.126   3.051 -0.2093 -0.2166  0.2637
18957W        W34574   4.474   4.700  16.662 -0.0151  0.2250  0.1011
18958W        W34575   0.283   0.327  14.449  0.0524 -0.3479  0.0016
18959W        W34576  10.936   3.493  12.171 -0.1686  0.0822 -0.0375
18960W        W34577   1.998  17.597  16.396 -0.0554  0.2658  0.2135
18961W        W34578   7.322   8.456  11.834 -0.0971 -0.1379 -0.2720
18962W        W34579  14.791   1.117   2.050  0.0782 -0.0280 -0.0121
18963W        W34580   8.676   3.929  13.784  0.4706 -0.1192  0.0433
18964W        W34581   9.872  11.032   3.431 -0.1198  0.2653 -0.2419
18965W        W34582  10.089  16.418   3.444  0.1111 -0.0058 -0.1768
18966W        W34583  10.088   3.542   0.196  0.1131  0.1529 -0.2385
18967W        W34584   7.822   8.557  12.057  0.1814 -0.0956  0.1921
18968W        W34585  16.203  12.678   1.553 -0.1214  0.1933 -0.1892
18969W        W34586  10.001   5.383   4.333 -0.0184  0.0725  0.1607
18970W        W34587   4.965   1.466  13.747 -0.1424 -0.5252  0.0483
18971W        W34588   4.094  17.615   2.256 -0.1980  0.0459  0.1129
18972W        W34589   3.918   6.602  11.617 -0.3461 -0.0904  0.3721
18973W        W34590   7.226  10.910   3.812  0.1616 -0.0564  0.0184
18974W        W34591   9.970  14.461  11.961 -0.2358 -0.1176 -0.0601
18975W        W34592   1.151   2.781  16.187  0.0414 -0.3161  0.0573
18976W        W34593  10.085   2.673   3.260 -0.0335 -0.0636  0.1204
18977W        W34594   8.387   7.556   3.225 -0.0240  0.1600  0.0663
18978W        W34595   9.832   7.924   0.628  0.2091 -0.0684  0.1892
18979W        W34596   5.517   5.522   0.889 -0.0059  0.2921 -0.1759
18980W        W34597  17.397  16.775  14.675 -0.2433  0.2536  0.1710
18981W        W34598   8.262  16.471  12.637  0.1862  0.1656  0.0089
18982W        W34599   5.062   2.147  11.147 -0.0944  0.0460 -0.0410
18983W        W34600  10.863  17.712   1.436 -0.3995 -0.0971  0.2164
18984W        W34601  16.389   1.539  14.576 -0.1609  0.0542  0.1560
18985W        W34602   4.684   5.572  13.268 -0.1650 -0.0885  0.0700
18986W        W34603   7.619   1.295   3.200 -0.3151 -0.2896 -0.1553
18987W        W34604  12.234  14.850  14.489  0.3047 -0.0756  0.0759
18988W        W34605  13.716  14.267  16.508 -0.0930  0.0108 -0.0060
18989W        W34606   5.857  17.242   0.327 -0.2218 -0.1977  0.0887
18990W        W34607  10.657   5.325  16.632  0.3281 -0.2758  0.1248
18991W        W34608   1.956  17.534   4.980  0.2399 -0.2628 -0.2298
18992W        W34609  10.438  13.580   2.682 -0.3740  0.3753 -0.0676
18993W        W34610  17.712   5.352   3.849 -0.0185 -0.0315 -0.5516
18994W        W34611   4.760  10.684   1.722 -0.1056  0.0434  0.1093
18995W        W34612   4.197  17.831  12.770  0.0060  0.0776 -0.0250
18996W        W34613   9.480   7.120  15.798 -0.0677 -0.0169  0.1765
18997W        W34614  11.627  10.267   1.040 -0.0607 -0.1171 -0.2663
18998W        W34615   2.039  12.226   1.709 -0.2598 -0.1357  0.2116
18999W        W34616   9.705  12.838   0.151 -0.1442 -0.3196 -0.2463
19000W        W34617   7.913  15.014   1.228 -0.1262 -0.1027 -0.1655
19001W        W34618   0.214   7.855  13.994 -0.2585 -0.0104  0.5915
19002W        W34619  12.391   3.037   0.704  0.2438 -0.1239 -0.1343
19003W        W34620  14.726  11.240   1.889  0.0386  0.2431 -0.0836
19004W        W34621   9.219   7.538   6.133  0.0394 -0.2872  0.1541
19005W        W34622  12.837   2.072  13.434 -0.1115 -0.0582 -0.0694
19006W        W34623   5.923  11.486   0.125 -0.1657  0.0403  0.4100
19007W        W34624  15.469   6.981  16.451  0.3597  0.2884  0.0899
19008W        W34625   6.896  17.250   4.856  0.1263 -0.0978 -0.1384
19009W        W34626   4.905   3.093   2.616  0.4852 -0.4467  0.2366
19010W        W34627   8.594   5.583  15.864  0.0009 -0.4601 -0.0807
19011W        W34628   1.303  10.550   5.556 -0.1405 -0.1963 -0.0583
19012W        W34629   2.243   2.992   1.901 -0.2504  0.0679  0.1039
19013W        W34630  11.353   0.643   3.512 -0.0017 -0.0639  0.1809
19014W        W34631  16.070   9.988   3.259 -0.0227 -0.2898 -0.2027
19015W        W34632   5.544  12.412   4.302 -0.0218 -0.2387  0.3538
19016W        W34633  11.181   8.516  12.540 -0.3108  0.1275 -0.0010
19017W        W34634   6.848   6.448   6.119  0.0006  0.4004  0.1121
19018W        W34635   5.069   5.933  12.571  0.1916  0.0722  0.0075
19019W        W34636   5.003   4.232  13.675 -0.0573  0.3219 -0.0835
19020W        W34637  12.851  15.306  12.847 -0.0655 -0.1265  0.2203
19021W        W34638   9.672  16.815  12.665  0.4276  0.0546  0.1425
19022W        W34639  12.446   1.053  12.577 -0.2000  0.0255 -0.1936
19023W        W34640  14.479   0.845   4.471  0.0544  0.2360 -0.1669
19024W        W34641  14.320  10.655   5.242 -0.1832  0.0512 -0.0101
19025W        W34642   8.055  17.831   5.072  0.0297  0.3273 -0.3051
19026W        W34643   4.111  15.751  16.228  0.0905  0.2808 -0.1665
19027W        W34644   5.145  13.632  13.359 -0.1170 -0.0451 -0.1405
19028W        W34645   0.653   8.923  14.255 -0.0129 -0.4513  0.2821
19029W        W34646   5.413   2.777  16.479 -0.1531  0.0710 -0.2229
19030W        W34647  15.976   6.193   1.122 -0.2559 -0.2678 -0.2167
19031W        W34648  16.200   0.289  13.381 -0.2540 -0.1286  0.0962
19032W        W34649   6.160   9.052   5.280  0.1773 -0.1861  0.0779
19033W        W34650   7.663  14.104  11.451  0.0687 -0.0184 -0.1317
19034W        W34651   5.082  13.482  14.378  0.0420 -0.1798 -0.1440
19035W        W34652   5.867  17.229  13.468 -0.2336  0.1223  0.0279
19036W        W34653  12.648   0.401   4.217 -0.1518 -0.2200 -0.1866
19037W        W34654  14.898  13.309  15.031 -0.1283 -0.0729 -0.0816
19038W        W34655  16.964  10.429   1.157  0.0818  0.0405 -0.2037
19039W        W34656   3.064  11.301  11.894 -0.0179 -0.1884 -0.1408
19040W        W34657  14.903  16.077  16.420  0.0368  0.2302  0.3792
19041W        W34658   5.753  11.005   5.591  0.0693 -0.0194  0.3199
19042W        W34659   6.590   0.991   2.068 -0.0311  0.1087 -0.1498
19043W        W34660   2.919  13.529  12.166 -0.1694  0.2241  0.1496
19044W        W34661   8.631   5.777   1.465 -0.4294 -0.0953  0.1776
19045W        W34662   8.805   8.701  14.863  0.1544 -0.1765  0.0876
19046W        W34663  13.560  16.895   5.069 -0.0707  0.0717  0.0117
19047W        W34664   5.683  14.265  13.324 -0.1602 -0.1092 -0.0272
19048W        W34665  11.497  17.847   0.767  0.0272  0.4079  0.2024
19049W        W34666   5.631   5.774   4.429  0.0934  0.0872  0.0158
19050W        W34667   3.244  11.481  16.745  0.3889 -0.0731 -0.2937
19051W        W34668   3.241   8.151   2.670  0.0310  0.0685  0.2256
19052W        W34669   2.767   7.878  16.215 -0.2423 -0.2859  0.0037
19053W        W34670   7.142   5.066  13.353  0.0359 -0.1461  0.0642
19054W        W34671   6.758  11.209  12.193 -0.2832  0.0237 -0.0313
19055W        W34672   2.785   4.612  11.923 -0.2069 -0.3439 -0.2518
19056W        W34673  17.849   4.910  12.882 -0.1776 -0.0372 -0.3095
19057W        W34674   4.915  15.095  11.460 -0.1523  0.0800 -0.0056
19058W        W34675  11.440   3.453   2.880  0.1244  0.2030 -0.1071
19059W        W34676   9.272   6.968   5.022  0.4067 -0.0227  0.1974
19060W        W34677   3.448   3.937   3.995  0.0449 -0.0227  0.0829
19061W        W34678   7.450  16.772  16.732  0.4335 -0.2932 -0.1594
19062W        W34679  17.063   7.660  13.054  0.2712 -0.1665 -0.0309
19063W        W34680   3.519   8.276   5.422  0.1580 -0.0653  0.3574
19064W        W34681   8.975   0.822  14.293 -0.1417  0.1265  0.0426
19065W        W34682   8.960  13.712   4.329 -0.0476 -0.1377 -0.2915
19066W        W34683  14.001   1.019  10.537  0.1006 -0.1219 -0.0427
19067W        W34684   4.097   4.589   3.494 -0.2793 -0.1830 -0.1471
19068W        W34685   9.944   8.329  15.780  0.3024 -0.1825  0.0478
19069W        W34686   1.920  17.827   1.760 -0.1119 -0.1462 -0.0380
19070W        W34687   8.820  13.869   5.965  0.2458 -0.1121 -0.0754
19071W        W34688   5.968   3.659  11.674  0.0098 -0.1695  0.3641
19072W        W34689  13.235  16.386  15.379 -0.0140 -0.0010 -0.3355
19073W        W34690   3.636  13.203  16.006 -0.3884  0.1076  0.2923
19074W        W34691  11.778  11.383  13.955  0.2926 -0.2494 -0.1321
19075W        W34692  14.714   8.466   5.518  0.2671  0.0784 -0.3098
19076W        W34693   0.714   4.231   0.180 -0.1343 -0.1756  0.0774
19077W        W34694  16.625   3.190  12.214  0.0040  0.1017 -0.0826
19078W        W34695  17.794   3.339   3.848  0.0921 -0.3103 -0.3129
19079W        W34696   0.520  12.603  14.978  0.2157  0.0378  0.1319
19080W        W34697  13.955  12.462   4.146  0.0608  0.0278  0.0863
19081W        W34698   9.079  11.363   4.787 -0.0406  0.0600  0.1746
19082W        W34699   2.955   3.405  14.810  0.0189  0.0655 -0.0694
19083W        W34700  14.289  16.079   4.937  0.1800  0.0250  0.2883
19084W        W34701   5.074   3.219  11.718 -0.1612 -0.1772 -0.0412
19085W        W34702   4.145   4.807   2.481  0.0485 -0.1097 -0.0882
19086W        W34703   9.128  13.197   3.906  0.2374  0.0191  0.0083
19087W        W34704   6.193   6.606   2.357  0.0027  0.0639 -0.0775
19088W        W34705   0.238   9.464  13.538 -0.0231 -0.1111 -0.2948
19089W        W34706   1.355   2.559  13.280  0.0644 -0.0596  0.2312
19090W        W34707   1.071  13.923   2.953 -0.0114 -0.0932 -0.1833
19091W        W34708   5.109  11.999  16.665  0.1195  0.1105  0.2383
19092W        W34709   7.023  11.016  13.047 -0.1033 -0.0857 -0.0982
19093W        W34710  16.474   6.730  16.596  0.2695 -0.2328 -0.2360
19094W        W34711  12.274   1.356  13.799 -0.1025 -0.0341 -0.2498
19095W        W34712  12.144   2.371  15.300  0.1769  0.1585 -0.0236
19096W        W34713   4.964   1.785   2.310  0.0184 -0.3860 -0.3068
19097W        W34714   6.335  12.309  13.716  0.0209  0.1370  0.1192
19098W        W34715   0.473   7.817   3.002 -0.0119  0.1221 -0.0831
19099W        W34716  15.271   6.398  14.361 -0.4425 -0.0578  0.0019
19100W        W34717  15.498   2.209   4.628  0.5478 -0.0874  0.3513
19101W        W34718   8.954   7.216   1.210 -0.1419  0.0523  0.0878
19102W        W34719  15.450   7.061  15.690 -0.1634  0.2248  0.1330
19103W        W34720   2.002   7.518  13.836 -0.2399  0.0074  0.1045
19104W        W34721   8.444   5.925   5.671 -0.0217  0.0460  0.1932
19105W        W34722  10.072   9.742  12.986  0.3367 -0.0354  0.1481
19106W        W34723   7.426   8.541  12.349  0.0428  0.2001  0.0255
19107W        W34724   8.413   3.665   5.179 -0.0678 -0.1730 -0.0408
19108W        W34725   7.497   2.013  10.860  0.0197 -0.0668  0.1869
19109W        W34726   5.219  16.401  13.298 -0.0359 -0.4066  0.1816
19110W        W34727   6.019  13.440  13.144 -0.0075  0.0543  0.0116
19111W        W34728   0.922  10.725   4.543 -0.0138  0.0662 -0.3118
19112W        W34729  17.822   5.856   0.968  0.2827 -0.1538  0.2202
19113W        W34730  12.495   7.789  15.136 -0.3258  0.3688  0.1332
19114W        W34731   8.180  10.121  13.734 -0.0856 -0.2987  0.0814
19115W        W34732   9.427  14.211  16.659 -0.1071 -0.0158 -0.1492
19116W        W34733   2.262   6.254   2.574  0.1468  0.1650 -0.1142
19117W        W34734   5.614   6.725   0.263  0.0977 -0.2472 -0.3744
19118W        W34735   0.296  10.414  15.662  0.1108  0.4554  0.0266
19119W        W34736  11.880   0.440   4.611  0.1877  0.1491 -0.1581
19120W        W34737   4.870  13.021   4.187  0.1556 -0.0513  0.0882
19121W        W34738  11.927   5.641  13.404 -0.0775  0.1327 -0.0689
19122W        W34739   9.569  16.885  14.869  0.0603 -0.1369  0.1052
19123W        W34740  16.894   6.270   0.565  0.1284  0.0174  0.3795
19124W        W34741   9.668   6.039   2.118  0.0899  0.2187 -0.0679
19125W        W34742  12.255  10.885   0.997 -0.1043  0.3652  0.0429
19126W        W34743   1.553  17.641  11.530 -0.0068 -0.0313  0.2390
19127W        W34744   9.166   7.659   2.999  0.0323 -0.0005 -0.0718
19128W        W34745  12.483   2.883   0.244 -0.2377 -0.3842  0.1713
19129W        W34746   3.649   3.998  12.731  0.3808 -0.0180 -0.1806
19130W        W34747   9.179   1.852  14.561 -0.0058 -0.1230 -0.1578
19131W        W34748   5.540  12.522  14.002  0.1360 -0.2800 -0.0366
19132W        W34749   1.497   5.357  13.881  0.1041  0.0293  0.0458
19133W        W34750   2.764  10.406  12.940 -0.0515  0.0444 -0.1348
19134W        W34751   6.616  10.573  14.417  0.1734 -0.0063 -0.1375
19135W        W34752   3.482   9.842  13.410 -0.1949  0.0712 -0.1037
19136W        W34753  14.930  15.200   1.127 -0.1699 -0.1153  0.3334
19137W        W34754  11.277  12.739   0.560  0.0203  0.1610  0.1704
19138W        W34755   7.471  15.351   0.378 -0.1424  0.2417  0.5216
19139W        W34756   0.971  14.128  15.172  0.2209  0.4851 -0.1550
19140W        W34757  10.885  14.678   5.824 -0.1650 -0.3364 -0.0253
19141W        W34758   7.874   3.042   2.569 -0.0900  0.1717 -0.0479
19142W        W34759   0.164  10.057   0.565 -0.0698  0.0287  0.0233
19143W        W34760   4.192   9.241  14.857  0.1378  0.1001  0.0989
19144W        W34761   6.129   1.774   4.076 -0.1887 -0.0321  0.1525
19145W        W34762  13.552   6.145  11.923 -0.5022  0.2879  0.1817
19146W        W34763   9.454   6.899  13.511 -0.0797 -0.0916 -0.3312
19147W        W34764  10.868   1.623  15.381 -0.0641  0.1054 -0.2113
19148W        W34765  15.995   6.939  15.464 -0.2231  0.3870  0.1722
19149W        W34766  10.008  11.256   5.844 -0.1838 -0.0919 -0.1485
19150W        W34767   0.396   3.508   3.833  0.2886 -0.0844 -0.1154
19151W        W34768  16.526  17.474   1.651 -0.0308  0.1320 -0.1724
19152W        W34769   9.892   3.734  14.398  0.1058 -0.1387  0.0717
19153W        W34770  17.261  10.180   1.749  0.2168 -0.2023 -0.3188
19154W        W34771   7.754  17.585  13.582  0.1282 -0.3493  0.1215
19155W        W34772  16.517  11.385   1.954 -0.0987  0.0923 -0.1575
19156W        W34773   0.619   1.440  15.858  0.0352  0.0776  0.0396
19157W        W34774  17.523   8.834   1.312 -0.0286 -0.1986  0.0756
19158W        W34775  14.968   6.240   4.841 -0.1314 -0.1384  0.1026
19159W        W34776  16.733  11.351  14.604 -0.2226  0.3190  0.1672
19160W        W34777  12.933  12.393  14.437  0.0407  0.2768 -0.1641
19161W        W34778   0.659  12.346  13.821 -0.1535  0.1938 -0.2473
19162W        W34779  12.552   4.831  14.391 -0.0764 -0.4366 -0.1757
19163W        W34780  12.598  14.991  12.609  0.2340 -0.1944 -0.0696
19164W        W34781   9.232  15.087  16.046  0.0882 -0.3492 -0.0237
19165W        W34782   5.205   4.813   3.326 -0.0392 -0.0228  0.0349
19166W        W34783   9.656   4.234  13.089 -0.0252 -0.0388 -0.3277
19167W        W34784   1.368   8.887   4.555 -0.1423  0.0811  0.0201
19168W        W34785  12.760   9.178   0.191 -0.2049  0.0893 -0.3289
19169W        W34786  12.196  14.252   4.679 -0.0906 -0.1266  0.1194
19170W        W34787   3.760   2.240  16.019 -0.1660  0.1687  0.1381
19171W        W34788   4.981   8.191  16.767 -0.1091 -0.0832 -0.0690
19172W        W34789   9.192  12.630  14.715  0.2984  0.1059  0.4214
19173W        W34790  13.151   9.566   0.423 -0.0533 -0.0285  0.1528
19174W        W34791  10.532   3.349  12.509 -0.1084 -0.0585 -0.0305
19175W        W34792  16.395   2.405   1.450  0.0647  0.0953 -0.0543
19176W        W34793   1.553   4.832  13.906 -0.1554  0.0870 -0.0915
19177W        W34794  17.342   3.060   3.839  0.3444 -0.2834 -0.1716
19178W        W34795  17.586  10.247  10.675 -0.1505 -0.1603  0.1379
19179W        W34796   1.488   7.766   3.830  0.2236  0.0212  0.1143
19180W        W34797  12.640  14.454   1.186  0.0803 -0.0605 -0.1115
19181W        W34798  13.410  12.923   0.329  0.0048 -0.0101  0.0378
19182W        W34799  12.187  12.308   4.579  0.1705  0.2966 -0.2335
19183W        W34800   8.883  14.673   0.580 -0.0355  0.2752 -0.0594
19184W        W34801  13.176   7.351  13.864 -0.0395 -0.2457 -0.1644
19185W        W34802  14.339  17.301   1.239  0.2986  0.0189 -0.1017
19186W        W34803   1.396   1.941   4.114 -0.2176 -0.0150 -0.2256
19187W        W34804  16.155   4.749   3.208  0.0286  0.1752 -0.1807
19188W        W34805  14.799   3.369  11.710  0.0490 -0.2502 -0.1195
19189W        W34806   1.120  14.580   3.555 -0.2024  0.4333 -0.0736
19190W        W34807   2.792  12.225   2.144 -0.2338  0.2812 -0.2099
19191W        W34808  14.274   7.483   6.136  0.1997 -0.1879 -0.3112
19192W        W34809   8.376   8.893  16.100  0.1411 -0.2305  0.0962
19193W        W34810   1.891  17.416  11.784 -0.0096  0.3299  0.0968
19194W        W34811  12.264   8.290   2.378  0.3098  0.1035 -0.0983
19195W        W34812   3.358  17.548   4.856 -0.3019  0.1201  0.0438
19196W        W34813   0.171  14.243  16.373  0.0260  0.2424 -0.3283
19197W        W34814  16.489   5.982   0.585 -0.3255  0.0706  0.3681
19198W        W34815  10.283   7.801  13.869  0.1712  0.0411  0.1604
19199W        W34816  11.217  15.261   2.438 -0.2780 -0.1232 -0.0454
19200W        W34817   8.599   4.125   5.241 -0.3702  0.0558 -0.1662
19201W        W34818  17.703   3.328  14.659 -0.2414  0.1728 -0.0496
19202W        W34819   7.233   6.458   2.027  0.1277 -0.0669 -0.1207
19203W        W34820  16.999   8.138   1.866  0.1823 -0.1059  0.0008
19204W        W34821   0.396   0.811  12.638 -0.3883 -0.1029  0.0165
19205W        W34822  13.324   4.026  16.556 -0.0574 -0.3576 -0.2175
19206W        W34823   5.572   9.203   2.131 -0.1862  0.0080 -0.1823
19207W        W34824  11.150  16.078   5.202 -0.2336  0.3051 -0.0666
19208W        W34825   8.676   0.745   0.351  0.0707 -0.1833  0.0638
19209W        W34826  13.252  10.549   4.628 -0.2521 -0.0788  0.2378
19210W        W34827  13.952   0.137  14.058 -0.1567  0.2485  0.0559
19211W        W34828  12.882   1.383   3.811 -0.1422  0.2605 -0.2238
19212W        W34829  11.096   5.084  15.310  0.1873 -0.3094 -0.1647
19213W        W34830   1.933   4.924   0.295  0.0690 -0.0547  0.0618
19214W        W34831   9.494   8.374   2.611  0.2236  0.2537  0.3734
19215W        W34832   4.717   7.483  16.515  0.0091 -0.0616 -0.1659
19216W        W34833   0.472   1.661  11.954  0.1133 -0.0159  0.0398
19217W        W34834   3.542   9.596   5.697  0.0482 -0.3477 -0.3107
19218W        W34835   3.192   5.623   4.353  0.0043 -0.3691  0.1451
19219W        W34836   4.358  17.417   0.429  0.0213 -0.2993 -0.0216
19220W        W34837  14.053   1.634   0.451  0.1906  0.0204  0.0034
19221W        W34838   6.263   7.045   3.725  0.0388 -0.0312 -0.1273
19222W        W34839  16.892   8.578   4.963 -0.0942 -0.1511 -0.0576
19223W        W34840   4.934   9.469   0.619  0.1196  0.1855 -0.3872
19224W        W34841  12.412   5.128  14.017 -0.2526  0.0307  0.1788
19225W        W34842   0.195   4.219  13.891  0.0646 -0.0437  0.0008
19226W        W34843  11.775  10.369  16.805 -0.2357 -0.1800  0.2373
19227W        W34844   3.792   8.782   0.755 -0.4028  0.0230 -0.1234
19228W        W34845  12.363   7.188   1.104  0.0169 -0.1152 -0.1633
19229W        W34846  16.445  11.129  14.174 -0.0644  0.0860 -0.0781
19230W        W34847   2.190   7.349   0.830 -0.0637  0.3736  0.0700
19231W        W34848   6.721  16.715  13.176 -0.0126 -0.0250 -0.1872
19232W        W34849  10.868   8.567   1.706 -0.2067 -0.1264  0.0472
19233W        W34850   6.520  13.803  13.177 -0.0320  0.1613  0.2657
19234W        W34851   0.107   3.867  14.590  0.2269 -0.0932  0.0252
19235W        W34852   5.084   0.645  14.284 -0.1863 -0.0967  0.0716
19236W        W34853  11.750  13.892  11.018  0.1497 -0.0072  0.0670
19237W        W34854   4.405   9.682  14.322 -0.2127 -0.1023  0.1371
19238W        W34855   7.460  17.255   4.826 -0.2385  0.3720  0.1737
19239W        W34856  17.188   2.022   4.320 -0.1007  0.0848 -0.2040
19240W        W34857  12.166   3.308  12.692 -0.0811  0.1374 -0.0680
19241W        W34858  16.869   6.394  16.588 -0.2592  0.2337  0.1257
19242W        W34859  12.149   4.291   2.889  0.1848  0.3457 -0.0344
19243W        W34860  17.627  13.507   1.415 -0.3117 -0.2426  0.1464
19244W        W34861  12.843  15.829   0.635  0.0814 -0.0528  0.1514
19245W        W34862   1.885   2.992  15.505  0.0205  0.0933  0.0197
19246W        W34863   9.364   6.649  14.503  0.2138  0.1377 -0.3214
19247W        W34864  13.996   0.978   0.359 -0.0875 -0.1600 -0.0442
19248W        W34865   9.064   7.396  14.944  0.0189 -0.0858  0.1126
19249W        W34866   3.265   2.783   1.657  0.1766 -0.2448 -0.3125
19250W        W34867  10.739   9.374   0.579 -0.0040 -0.3548  0.0404
19251W        W34868   1.169  14.676  14.967  0.1228 -0.0583 -0.1508
19252W        W34869  15.353   1.701  12.156  0.3677  0.3585 -0.0320
19253W        W34870  15.222   3.441   4.214  0.2106 -0.1563 -0.1984
19254W        W34871  14.289   7.568   5.066  0.0146 -0.0527 -0.1036
19255W        W34872  16.330   9.689  12.116 -0.1230  0.2093 -0.2436
19256W        W34873  12.354   4.922   1.459  0.1052 -0.0077  0.0187
19257W        W34874  14.352  13.111  16.290 -0.0877 -0.1870  0.0863
19258W        W34875   3.091  17.444  16.545  0.2091  0.2194 -0.1477
19259W        W34876  16.228   7.925   3.545 -0.2111 -0.0590 -0.0662
19260W        W34877  13.460  14.500   1.600 -0.4274  0.1548  0.2447
19261W        W34878  15.866  13.639  12.936 -0.1243 -0.0213 -0.0323
19262W        W34879  10.615   0.178   1.210 -0.2769 -0.0365  0.0093
19263W        W34880   1.034   4.682  12.174  0.2112  0.2658 -0.0609
19264W        W34881   1.516   1.616   3.540  0.0135 -0.1272 -0.2021
19265W        W34882   5.347   7.371  11.750 -0.0310 -0.3350  0.1994
19266W        W34883   6.324  17.716   2.336 -0.2074 -0.0216  0.0897
19267W        W34884  14.745   6.342  13.657 -0.1945  0.0117 -0.2598
19268W        W34885  12.310   3.608  14.915 -0.2229 -0.0666 -0.0556
19269W        W34886  15.942   4.681  13.619 -0.3674  0.2562  0.1662
19270W        W34887  16.879   3.798  12.770 -0.0764  0.0064  0.1770
19271W        W34888  14.643  13.527   5.507  0.3008  0.1401  0.1737
19272W        W34889   5.158  15.622   3.175  0.0189  0.1140 -0.0452
19273W        W34890   5.207   8.030   0.642 -0.1531 -0.0532 -0.0535
19274W        W34891   4.161  17.319   3.255 -0.2646 -0.1891  0.2105
19275W        W34892  14.745  10.739   1.682  0.0039 -0.1606  0.0317
19276W        W34893   2.683   1.929   3.813  0.2900  0.1854  0.2014
19277W        W34894   5.754  11.451   4.522 -0.0091  0.0554  0.0011
19278W        W34895   2.668  12.208   2.953 -0.1536 -0.1493 -0.1939
19279W        W34896   2.927  13.570   3.099 -0.0887 -0.1671 -0.0301
19280W        W34897  16.931  14.660  14.329 -0.2226 -0.1660  0.0937
19281W        W34898   4.268   2.650   0.755 -0.0396  0.1833 -0.2497
19282W        W34899   4.677  15.090   0.010 -0.1674 -0.3218  0.1472
19283W        W34900   9.364  15.129  12.161 -0.1117 -0.1347 -0.1946
19284W        W34901  12.151   0.945  10.880  0.1365 -0.2711  0.3782
19285W        W34902  14.136  11.796  11.671  0.1436 -0.1704  0.0520
19286W        W34903   4.196   3.944   0.446  0.2672 -0.1564  0.0441
19287W        W34904   6.047   1.916   3.577  0.1897  0.2599  0.0915
19288W        W34905  17.439  16.216  14.876 -0.0444  0.1125 -0.0194
19289W        W34906   1.589  16.471  16.319 -0.0746 -0.0059 -0.1754
19290W        W34907   5.893  15.636  13.293 -0.1392 -0.2031  0.1487
19291W        W34908   3.557  15.194   3.322  0.4201  0.1178  0.0969
19292W        W34909  11.281   3.350  10.986  0.2803  0.0512 -0.1534
19293W        W34910   0.479   3.756   4.839  0.0558  0.1018  0.0561
19294W        W34911   8.096   5.699  12.121 -0.0277  0.0204 -0.0752
19295W        W34912   9.758  12.521   4.448 -0.0052 -0.0343 -0.3381
19296W        W34913  11.758  10.309  15.451  0.0204 -0.0424  0.0047
19297W        W34914  13.312   6.285   0.647  0.1105 -0.1687  0.0013
19298W        W34915  16.095   3.578  13.952  0.4254  0.2627 -0.1094
19299W        W34916  11.097  11.046   2.902 -0.1527  0.0222 -0.1368
19300W        W34917   8.712   1.705   1.384 -0.0598  0.0999  0.3537
19301W        W34918   8.888   5.995  16.818  0.2772  0.2969  0.1172
19302W        W34919   6.707   6.129   1.130 -0.3029  0.1469  0.1132
19303W        W34920   6.339   5.299  13.644  0.0753  0.1142  0.0291
19304W        W34921  15.265   0.482  16.325  0.1215  0.0693 -0.0598
19305W        W34922   5.448   4.669  16.348 -0.1307 -0.0300  0.1521
19306W        W34923  11.339   7.016  12.587 -0.0524  0.0290 -0.0770
19307W        W34924   2.780  17.007   5.000  0.0379  0.0850  0.0969
19308W        W34925   9.684  13.066  13.833 -0.1660  0.1513 -0.1314
19309W        W34926   0.429   4.497  11.568  0.1888 -0.1945  0.1454
19310W        W34927   6.239   7.330   5.873 -0.0066  0.0327  0.0167
19311W        W34928   0.339   0.270  12.638  0.1869 -0.1385 -0.0972
19312W        W34929   2.147   5.007   1.072 -0.1824  0.0929 -0.1778
19313W        W34930   3.997  14.661  16.771  0.1359  0.0813 -0.2024
19314W        W34931   2.717  17.563   2.519  0.5334  0.0653 -0.0710
19315W        W34932  15.048  16.085  12.359 -0.1995 -0.0277  0.1257
19316W        W34933  13.652  14.395   0.757  0.0180  0.2272 -0.1336
19317W        W34934   9.926   7.259   1.402  0.1322 -0.2104  0.2489
19318W        W34935  15.578   9.274  16.273 -0.1666  0.0340  0.1202
19319W        W34936   3.304   4.761  12.728 -0.0159  0.1426  0.1976
19320W        W34937  16.441   6.148   5.856  0.1070  0.2003  0.0152
19321W        W34938   6.609   2.385   2.578  0.1048 -0.0342  0.1940
19322W        W34939  12.566   3.569  11.521 -0.1140 -0.2184  0.0218
19323W        W34940   7.633   9.831  14.780  0.2106  0.1833  0.0440
19324W        W34941  11.929  13.505   5.172 -0.0812 -0.1008  0.0563
19325W        W34942   8.294  11.639  13.882  0.0948  0.1642 -0.2941
19326W        W34943   0.064   4.978  11.802 -0.0263  0.1357  0.0834
19327W        W34944  10.646   1.992  12.180  0.0835  0.1262 -0.0418
19328W        W34945  13.301  11.714   1.180 -0.2733  0.4621  0.0380
19329W        W34946  14.618  17.156   5.385 -0.1535  0.1230 -0.2434
19330W        W34947   9.861   2.396  15.139 -0.1178 -0.1125 -0.0561
19331W        W34948  17.089   5.219   5.475 -0.2129 -0.1784  0.2063
19332W        W34949   2.360   5.800  11.028  0.1828  0.0058 -0.0652
19333W        W34950  15.823  16.007   1.065  0.0125  0.0698  0.1677
19334W        W34951   2.680   6.201  14.712 -0.1449 -0.0362  0.0194
19335W        W34952   8.506   8.875   5.005 -0.2951  0.0649  0.3636
19336W        W34953   3.732  15.537  14.054 -0.1985  0.1747  0.0227
19337W        W34954  11.498  10.876   5.215 -0.2300 -0.1354 -0.1860
19338W        W34955  12.725   3.162  11.826 -0.0177 -0.0730 -0.1703
19339W        W34956   7.640  11.038   1.722  0.1096 -0.1881  0.1952
19340W        W34957   3.776  15.012   2.372  0.0274 -0.1443  0.0448
19341W        W34958  12.880  13.107   2.207 -0.3479  0.0595 -0.1150
19342W        W34959   3.067   2.257   3.938 -0.1979 -0.1844  0.0218
19343W        W34960   3.508  14.812   0.685 -0.0980 -0.1584 -0.0659
19344W        W34961   2.794   3.036  11.694  0.0743 -0.1743  0.3738
19345W        W34962   9.418   8.346   0.719  0.0589 -0.4626  0.2990
19346W        W34963  13.227   8.806   3.580  0.3302 -0.0713 -0.0396
19347W        W34964   7.654  16.295   6.072 -0.0386  0.2004 -0.2339
19348W        W34965   3.981  14.562   2.131  0.1638 -0.2663  0.3325
19349W        W34966  16.079  13.813  14.655  0.3627 -0.1799 -0.1111
19350W        W34967   6.541  13.897   5.473 -0.3192 -0.0632 -0.0427
19351W        W34968  15.349   5.882  15.573 -0.3318  0.0137  0.1166
19352W        W34969  12.137   8.194  15.258 -0.0277 -0.0062  0.1207
19353W        W34970  11.547   2.633  16.768  0.3286  0.2006 -0.0497
19354W        W34971   2.710   0.596  15.395  0.1485  0.0232 -0.1364
19355W        W34972   2.035  10.704  13.872  0.0778 -0.2053  0.2391
19356W        W34973   1.186  16.099   2.321 -0.0791  0.1668  0.1430
19357W        W34974   9.681  13.656   2.816  0.0376  0.0061 -0.2435
19358W        W34975  17.719   4.887   0.429  0.0961 -0.0009  0.0452
19359W        W34976  15.294   7.426   3.999 -0.0522 -0.0962 -0.1343
19360W        W34977   4.924   0.636  12.400  0.0060 -0.1660  0.0877
19361W        W34978   4.246   5.516   2.044 -0.1305  0.0721 -0.1994
19362W        W34979   8.199  10.668  15.064  0.0213  0.0747  0.1508
19363W        W34980   9.862   7.905  16.171  0.1510  0.3289  0.2250
19364W        W34981  11.208  17.512  14.683 -0.2764 -0.2601  0.1516
19365W        W34982  13.419  10.792  15.990  0.0720  0.2656 -0.0183
19366W        W34983   3.719   3.081   3.904  0.3453  0.0296 -0.0450
19367W        W34984  14.272   3.560  14.606  0.0213  0.2099  0.0737
19368W        W34985  11.041   2.194   2.483  0.0753 -0.0750 -0.3315
19369W        W34986  17.143   0.576   1.475  0.1244 -0.0523  0.1026
19370W        W34987   1.548  10.171  16.824 -0.4199  0.0158 -0.2991
19371W        W34988   6.633   6.202   0.665  0.3705  0.1441 -0.0254
19372W        W34989   3.985   9.706   5.453  0.0528  0.1658 -0.1476
19373W        W34990   8.949   3.600  14.106 -0.2794  0.3009  0.1758
19374W        W34991  16.995  14.745   2.243  0.0229 -0.0933  0.0465
19375W        W34992   9.652   0.560  15.841  0.1683  0.2476 -0.0185
19376W        W34993   4.848  15.905  10.071  0.1313  0.0267  0.1078
19377W        W34994   5.273   9.891  12.798 -0.2597 -0.7102  0.1814
19378W        W34995   9.707   2.213   3.123  0.1678 -0.0048 -0.0352
19379W        W34996   1.878   3.991   0.626 -0.0160  0.0101  0.2350
19380W        W34997   8.953   7.118   6.002  0.1937  0.3216  0.1195
19381W        W34998  12.499   5.640   5.603 -0.2225 -0.0980  0.1711
19382W        W34999  17.666  16.155   1.128 -0.1583  0.0233 -0.2575
19383W        W35000  16.754  16.572  10.770  0.1575 -0.0377  0.0439
19384W        W35001  10.416   9.806  15.690 -0.2489 -0.1114  0.2300
19385W        W35002   6.562  13.909   3.570 -0.0926 -0.1452 -0.2233
19386W        W35003  10.084  15.297   1.161  0.4921  0.1112  0.0037
19387W        W35004   9.039  12.317   2.346  0.2048 -0.1755  0.1038
19388W        W35005  10.799   0.252   3.491 -0.1202 -0.2811 -0.1492
19389W        W35006  11.888   9.711   5.440 -0.0597  0.0830  0.0456
19390W        W35007   3.507  11.414   3.901  0.2221  0.0671  0.0316
19391W        W35008   9.361   1.857   4.233  0.0077  0.3043  0.1866
19392W        W35009  11.265   0.637   4.945 -0.1978 -0.1285 -0.1271
19393W        W35010   0.223  10.012  12.542 -0.1814 -0.0412  0.0686
19394W        W35011   5.485  10.075   2.777 -0.0428 -0.0665 -0.0215
19395W        W35012  14.751   5.822  15.750 -0.2383 -0.0381 -0.0122
19396W        W35013  17.149  14.865   6.061  0.2785 -0.2869  0.1486
19397W        W35014  10.554  17.588   2.258 -0.1215  0.2901 -0.2815
19398W        W35015  12.089  11.478   5.346 -0.2105 -0.2513 -0.4526
19399W        W35016  17.777  11.344   4.601  0.0586 -0.0619  0.1207
19400W        W35017  16.382  15.257  11.719 -0.1015 -0.1059  0.2422
19401W        W35018  14.501  16.476   4.118  0.3433  0.0769 -0.2020
19402W        W35019  13.484   0.983   4.768  0.1323 -0.3002  0.0800
19403W        W35020   7.300  13.072   2.717  0.2930  0.0823 -0.0691
19404W        W35021   9.798  17.816  11.726 -0.1016 -0.0906  0.0594
19405W        W35022   6.763   6.214  12.177 -0.1734 -0.1441  0.4014
19406W        W35023  10.061   2.027  13.050  0.0335  0.0219 -0.0609
19407W        W35024  11.998   8.818   4.985  0.0128  0.0108  0.2350
19408W        W35025   9.982   1.142  13.307 -0.2560  0.0113 -0.4165
19409W        W35026  11.556   0.970  15.378 -0.0172  0.2736  0.1409
19410W        W35027   3.898  13.593   5.304 -0.2267 -0.4067 -0.0435
19411W        W35028  16.663   9.059   0.461 -0.1611 -0.0493 -0.2001
19412W        W35029   6.453  10.768  11.728 -0.1936 -0.1432  0.0105
19413W        W35030  13.153  12.030  14.085  0.2018 -0.0289 -0.0351
19414W        W35031  12.361   0.155   2.245 -0.1427 -0.3151  0.1798
19415W        W35032   1.174   7.844   5.855 -0.1240 -0.0482  0.1226
19416W        W35033  10.347   5.521  12.557 -0.0984  0.3738  0.1555
19417W        W35034   2.273  17.365  14.363  0.0450  0.0935 -0.0697
19418W        W35035  16.907  12.534   4.998 -0.0574 -0.2753  0.1631
19419W        W35036  12.881  16.480   4.475  0.1662  0.0737  0.0318
19420W        W35037  10.184   3.552  13.539  0.1260  0.1270 -0.0149
19421W        W35038  17.392  10.369   5.278  0.2285 -0.0148 -0.0900
19422W        W35039   9.071   1.452  16.641 -0.1573 -0.0078 -0.1594
19423W        W35040  13.003  16.427   5.026  0.1689 -0.2250 -0.0003
19424W        W35041   7.561  12.650   1.324 -0.0944 -0.0801  0.3213
19425W        W35042   1.437   0.945   6.069  0.1517 -0.0631 -0.0766
19426W        W35043   8.820   7.331   3.797  0.0393  0.2886 -0.1996
19427W        W35044  15.985   6.733  16.394 -0.2282 -0.0413  0.0660
19428W        W35045  11.195   8.146  14.790  0.0916 -0.1352  0.2010
19429W        W35046  10.966  10.544   4.114  0.3994  0.2147 -0.0256
19430W        W35047   3.141   7.951   4.697  0.2360 -0.0881  0.2549
19431W        W35048   2.044  16.770   5.762  0.1069 -0.0369  0.4639
19432W        W35049   3.430  12.066   2.521 -0.0345 -0.1270  0.0253
19433W        W35050  17.627   9.161   3.403  0.3697  0.0744  0.0091
19434W        W35051  17.514   0.208   0.609 -0.2940 -0.0057  0.2283
19435W        W35052   3.491  11.323   1.553  0.1226  0.2045  0.0160
19436W        W35053  11.435   9.884   0.691 -0.1019 -0.0557  0.2126
19437W        W35054  13.487   4.657   0.633 -0.1796 -0.1290  0.3148
19438W        W35055   5.304   5.352  15.136  0.2637  0.2526 -0.0136
19439W        W35056  11.083   0.665  15.900 -0.0264  0.1124  0.0657
19440W        W35057  11.264  17.821  12.420  0.3837 -0.2281  0.2204
19441W        W35058   2.516   9.974   0.327 -0.0765  0.2223  0.0785
19442W        W35059   3.371   4.232   1.847 -0.0081 -0.0610 -0.3565
19443W        W35060   7.971   2.797  15.608  0.1365  0.3890  0.1190
19444W        W35061   6.568   0.883  13.014  0.1123  0.0845 -0.0889
19445W        W35062  11.215   6.374  13.353  0.2008  0.0173  0.1470
19446W        W35063   2.973  15.383  11.585  0.0129  0.2303 -0.1095
19447W        W35064   2.806   3.776  13.704 -0.0983  0.1774  0.2362
19448W        W35065  11.724   6.314   4.327  0.1282 -0.2349 -0.0929
19449W        W35066  14.721   9.400  16.183 -0.3346 -0.1244  0.1527
19450W        W35067   2.069  10.477   1.189 -0.1186 -0.1673  0.0711
19451W        W35068  10.862   2.410  13.936  0.0865 -0.0786  0.0144
19452W        W35069  13.643   9.081  12.100  0.2689  0.0516  0.1559
19453W        W35070   7.573  11.744   2.327 -0.2383  0.0207 -0.1474
19454W        W35071  10.203  13.059   0.392  0.0066 -0.3372  0.2219
19455W        W35072   8.882  13.247  13.319  0.2241 -0.0183  0.3173
19456W        W35073  17.753   4.817   0.997 -0.1215 -0.0089 -0.1006
19457W        W35074  10.543   7.485  15.507  0.3045  0.0922 -0.1029
19458W        W35075   1.227   1.871   0.534 -0.0864 -0.3237 -0.1150
19459W        W35076   0.145  15.475  14.998  0.1046 -0.3652 -0.1458
19460W        W35077   3.059   7.868  14.029 -0.0894 -0.0017  0.0128
19461W        W35078   6.710   6.490  10.925  0.1031 -0.0184  0.1284
19462W        W35079   8.384  12.591   5.343 -0.1079  0.4720 -0.2591
19463W        W35080   6.119   5.380   1.613 -0.1520 -0.0749  0.2298
19464W        W35081   2.445   2.283  12.410 -0.0751  0.1686  0.0443
19465W        W35082  14.059   7.186  13.397 -0.0796  0.1280 -0.1035
19466W        W35083   3.503   5.978   2.701 -0.1337 -0.2634  0.2692
19467W        W35084   0.894   3.983   3.053 -0.1343  0.2703  0.2477
19468W        W35085  11.423   7.428   3.166 -0.0031  0.2004 -0.0740
19469W        W35086   0.418  15.635  12.226 -0.1296 -0.0192  0.1377
19470W        W35087   4.322   2.440   4.536  0.2685  0.0053  0.0685
19471W        W35088   7.510  17.631   1.071 -0.2052  0.0767 -0.0008
19472W        W35089   0.156   6.164   1.287  0.1026 -0.0695 -0.3791
19473W        W35090   9.660  14.738  12.354 -0.2563 -0.0312  0.2826
19474W        W35091  15.841  13.849   4.351  0.3532  0.0968  0.3525
19475W        W35092  16.188  12.122   1.474 -0.0773  0.2278  0.3249
19476W        W35093   4.849   5.539  15.086 -0.0543 -0.1952  0.0762
19477W        W35094   9.707  12.530  11.719 -0.0938  0.2301  0.1246
19478W        W35095   2.724  13.875  14.899 -0.0236  0.0486  0.1014
19479W        W35096   6.578   1.908   2.813 -0.0141 -0.2347 -0.0194
19480W        W35097   6.102  11.299  14.218 -0.0164 -0.2113 -0.1024
19481W        W35098   0.982  11.791   3.955  0.1152  0.2685  0.3920
19482W        W35099   5.084   2.522  12.315 -0.0326 -0.4207  0.0801
19483W        W35100   2.870  10.698   4.639 -0.1177 -0.3295 -0.3272
19484W        W35101   8.244  11.793  14.402  0.1313  0.1511 -0.0884
19485W        W35102  15.543   2.378   1.422  0.0444  0.0018  0.0587
19486W        W35103  17.761  15.383  11.194 -0.1867  0.1162  0.1015
19487W        W35104  11.803   9.456  16.143  0.3676  0.0186  0.2106
19488W        W35105  12.904   2.322  12.285  0.0071  0.1592 -0.2374
19489W        W35106   2.841  17.271   3.323 -0.2811  0.3547 -0.0083
19490W        W35107   9.958  17.540  16.352  0.0241  0.0385 -0.1563
19491W        W35108   9.090   2.714   2.761 -0.0577  0.1606 -0.1582
19492W        W35109  10.391   4.152   5.174  0.0416  0.0331 -0.1482
19493W        W35110   8.870  17.465  11.478  0.2918 -0.2073  0.1329
19494W        W35111   7.883   0.738   3.888  0.1112  0.2394 -0.1600
19495W        W35112   6.937   7.536   2.753 -0.1691  0.1601 -0.1974
19496W        W35113  15.059  12.727  13.960 -0.0285  0.0069 -0.1341
19497W        W35114   8.500   5.421   0.552 -0.0663 -0.2802  0.1356
19498W        W35115   6.615  16.936   5.132  0.1378  0.1150  0.1387
19499W        W35116   0.799  15.419  11.949  0.0196  0.0270 -0.3492
19500W        W35117   8.717  11.723   4.983 -0.0217  0.1029 -0.0941
19501W        W35118  15.344  13.056  16.760  0.3766  0.0069  0.2006
19502W        W35119   4.151   8.286   3.162 -0.0326 -0.2131 -0.3424
19503W        W35120  15.056  15.113  15.089 -0.0753  0.0008  0.1351
19504W        W35121  16.243  16.454  11.818 -0.2737 -0.2893 -0.0751
19505W        W35122  13.514  12.738  13.310  0.0039 -0.0958 -0.2248
19506W        W35123   6.599   5.201   1.639  0.2370  0.3260 -0.4680
19507W        W35124  13.932  17.445  14.478 -0.0352 -0.0474 -0.1624
19508W        W35125  12.276   5.870   6.550 -0.0737 -0.2978 -0.1121
19509W        W35126  15.736   3.671   2.230 -0.0260 -0.2672  0.2150
19510W        W35127   6.645  17.367  16.701  0.1333  0.1705 -0.1221
19511W        W35128   2.211  11.213  15.628  0.0524  0.1537 -0.1176
19512W        W35129   4.126  17.051   5.491 -0.0421  0.1584 -0.1018
19513W        W35130   3.506   4.390   1.380  0.2529  0.1335  0.0475
19514W        W35131  17.393  17.580   4.661  0.1233  0.0015 -0.3839
19515W        W35132   4.545   1.534   1.385 -0.0564  0.0069 -0.1885
19516W        W35133   7.130  16.973   3.369 -0.1460  0.2285 -0.1753
19517W        W35134   7.674  12.923   4.152 -0.3015 -0.2849  0.0268
19518W        W35135  14.775   8.177   1.093  0.1030  0.0443 -0.1146
19519W        W35136   8.748  12.114  11.033 -0.0615  0.1875  0.0931
19520W        W35137  17.531   8.655  13.202 -0.3608  0.1403  0.0503
19521W        W35138  14.342  14.439  11.650 -0.0321  0.1183  0.5435
19522W        W35139   7.415  14.950  16.484  0.0943 -0.3039 -0.1551
19523W        W35140   2.850   3.620   5.544  0.1692 -0.0076 -0.0811
19524W        W35141   3.798   2.218   1.174 -0.1743 -0.1903 -0.2306
19525W        W35142   3.879   1.359  15.599 -0.2311 -0.0847  0.1974
19526W        W35143  13.652  12.111   0.947 -0.1921 -0.1697  0.2807
19527W        W35144  15.676   0.160   2.547  0.4322 -0.0120 -0.0031
19528W        W35145  11.002   6.543  14.231  0.2659  0.0753 -0.0089
19529W        W35146  15.044  10.503   5.848  0.0944 -0.0784  0.1251
19530W        W35147  17.307   3.539  12.955 -0.2164 -0.1472  0.0193
19531W        W35148  12.035  15.474  15.410 -0.3206  0.0910 -0.1841
19532W        W35149   7.955  12.904  16.749 -0.4730 -0.1692 -0.1852
19533W        W35150   4.833   8.516   3.177 -0.2593  0.5141 -0.2178
19534W        W35151  11.963  11.522   2.376  0.1933 -0.1506  0.1857
19535W        W35152  14.300  15.583   0.265  0.0066 -0.0153 -0.1401
19536W        W35153   9.634  16.801   5.363 -0.1737 -0.1047 -0.1436
19537W        W35154   6.912   0.735  14.158 -0.0651  0.0862 -0.2144
19538W        W35155  15.915   2.588   0.406  0.1053  0.0682 -0.0854
19539W        W35156   1.795  16.275   1.070  0.1425  0.0791 -0.3334
19540W        W35157   5.687   9.933   0.585 -0.1053  0.0842  0.1096
19541W        W35158  17.048   3.522   5.529  0.0245  0.1887  0.3904
19542W        W35159   9.054   5.717  15.387 -0.0837  0.2424  0.0747
19543W        W35160   8.348  14.063   5.889  0.1184 -0.3499 -0.3514
19544W        W35161  13.545   3.401  15.073  0.2514  0.0794  0.1415
19545W        W35162  13.430  13.374  15.433  0.2178  0.2455 -0.3463
19546W        W35163   8.107   3.960  13.746  0.2012 -0.1919 -0.2914
19547W        W35164   7.717   1.773  15.602  0.0834  0.0218 -0.2255
19548W        W35165   1.904  10.433   0.762  0.3526 -0.1734  0.0373
19549W        W35166   9.814   0.469   3.077 -0.0288  0.1022 -0.0766
19550W        W35167  14.800   1.100  11.563  0.1808  0.0151 -0.1003
19551W        W35168   8.611   7.169   2.441 -0.2367 -0.1706  0.0491
19552W        W35169   9.514   8.152  16.436 -0.2382 -0.0025 -0.2924
19553W        W35170  12.601   9.012   5.849  0.1121 -0.0171  0.0191
19554W        W35171   1.012   5.170  11.935  0.2190  0.2966  0.0911
19555W        W35172  15.077   8.112   5.619  0.1287 -0.1754 -0.2498
19556W        W35173   3.750  13.181  11.659 -0.0896 -0.4485 -0.1462
19557W        W35174   3.709  13.308   4.783 -0.1807 -0.1585  0.0037
19558W        W35175  17.396   7.092   5.845 -0.0175 -0.0987 -0.0765
19559W        W35176   8.739   5.786   4.560  0.1012  0.1194  0.0370
19560W        W35177   7.427  15.395  11.830 -0.1330 -0.1460  0.1106
19561W        W35178  16.475  12.732  12.638 -0.0301  0.0415  0.3212
19562W        W35179   4.870   3.413  14.872  0.4044 -0.0401 -0.1851
19563W        W35180  15.161   2.408  16.660  0.1586 -0.1044 -0.3097
19564W        W35181   6.863  10.436  13.906  0.3128  0.0095 -0.0079
19565W        W35182   0.426   7.950   1.055 -0.0281  0.2541 -0.3953
19566W        W35183   8.625  14.083  16.689  0.1147  0.1616 -0.0689
19567W        W35184   5.572   6.811   6.791 -0.0311 -0.5344 -0.1141
19568W        W35185   6.381  11.585  13.517 -0.1031  0.0411 -0.2738
19569W        W35186   2.807  14.463   4.230 -0.2787 -0.2101 -0.1012
19570W        W35187   6.002  11.883  13.525  0.0679  0.0212  0.1946
19571W        W35188  17.088   1.704   0.712  0.0522 -0.3521 -0.2844
19572W        W35189   6.732   1.484  11.970 -0.0477  0.0307 -0.2147
19573W        W35190   3.721  12.906  12.714 -0.0773  0.0191 -0.0455
19574W        W35191   6.177   4.708  13.308  0.1514 -0.0832  0.1362
19575W        W35192  13.168  11.903   4.643 -0.4030 -0.0992  0.3779
19576W        W35193  11.725   4.555  15.383  0.1280  0.1212 -0.0883
19577W        W35194  12.765   8.903   1.917  0.0114 -0.1919  0.0703
19578W        W35195   2.260   8.433  14.011  0.0943  0.1080 -0.2865
19579W        W35196  13.830   4.840  11.339 -0.0405 -0.1402  0.0968
19580W        W35197   2.362  10.825  15.227  0.1824 -0.4214  0.3284
19581W        W35198   3.553   5.571  12.487  0.0694 -0.2083 -0.2301
19582W        W35199  14.600   8.144  14.469  0.0793  0.0309  0.2971
19583W        W35200  12.189  11.972   5.762  0.0798 -0.1998 -0.0155
19584W        W35201  17.022   9.916   6.204 -0.0050 -0.1900 -0.1725
19585W        W35202  12.805  14.189   2.165 -0.0334 -0.3811  0.3156
19586W        W35203   5.920   8.743  16.674  0.3402  0.1560  0.2677
19587W        W35204  15.797  16.304  16.117  0.0296  0.2143 -0.0808
19588W        W35205   5.054  11.206   3.877 -0.0148 -0.0065  0.0212
19589W        W35206  17.463  16.303  13.750  0.0097  0.0149  0.0536
19590W        W35207  10.963  16.406   0.603 -0.2393 -0.3124 -0.0088
19591W        W35208   2.866   6.272  16.573 -0.0748  0.2831  0.0879
19592W        W35209   7.751   6.785   3.410 -0.1667 -0.1746 -0.2566
19593W        W35210   7.322   2.643   1.050  0.2061  0.2806 -0.0636
19594W        W35211   5.374  14.504   5.797 -0.2844  0.2884 -0.0212
19595W        W35212  13.834  12.376   5.043  0.1574  0.2411  0.1038
19596W        W35213   9.329   3.925   6.278  0.0382  0.2548 -0.1272
19597W        W35214   6.604   5.079   4.696 -0.2025 -0.0514 -0.0347
19598W        W35215   7.967   8.226   3.287  0.0466  0.0877 -0.0679
19599W        W35216   5.179   5.620   4.257  0.0785 -0.1254 -0.1633
19600W        W35217  17.722  15.195   3.803 -0.3138 -0.2614  0.1078
19601W        W35218   1.655  16.273  13.814  0.1269  0.0148 -0.0640
19602W        W35219   5.875  12.236   5.182 -0.1943 -0.1112 -0.2783
19603W        W35220  17.431  15.863   4.433 -0.1671  0.1929  0.1124
19604W        W35221  15.679   3.490   4.573  0.1286 -0.1165  0.4379
19605W        W35222   0.005  11.906   2.494 -0.2117  0.0984  0.0865
19606W        W35223   0.855   4.902  14.977  0.1600 -0.2594  0.2393
19607W        W35224   7.125  16.435  13.134 -0.1039  0.2223  0.1438
19608W        W35225   4.941   8.456   2.270  0.0568 -0.1332  0.0780
19609W        W35226   3.018   7.908   3.576 -0.3904  0.0280  0.2547
19610W        W35227   8.713  12.765  12.634 -0.0481 -0.2059  0.0475
19611W        W35228  11.335  14.641   3.607  0.4619  0.0017  0.0767
19612W        W35229  16.663  15.237  14.091  0.0138  0.1349 -0.1038
19613W        W35230   2.968   3.143   0.308 -0.0492  0.1978  0.0390
19614W        W35231  16.356  15.966   1.085  0.1445  0.1438 -0.0352
19615W        W35232  14.221   9.891   4.951  0.0097 -0.0706  0.1584
19616W        W35233  10.845   2.786   1.176 -0.0981 -0.0534  0.0903
19617W        W35234   2.284  13.233   5.568  0.0037  0.0322 -0.0060
19618W        W35235   0.984  15.520  13.879  0.2369 -0.0761 -0.1769
19619W        W35236   1.515   7.700   4.426 -0.0914 -0.3315 -0.2060
19620W        W35237  11.555   7.096   1.206  0.0094  0.0130 -0.0659
19621W        W35238   3.989   7.223  12.819 -0.2783 -0.0815 -0.0212
19622W        W35239  17.719   3.446   1.926  0.1024  0.2693  0.3230
19623W        W35240   9.246   1.070   1.900  0.2968  0.2379 -0.1564
19624W        W35241   9.176  14.056  11.855  0.3245  0.0552 -0.2137
19625W        W35242   1.726  12.173   5.027  0.0484 -0.1919 -0.2283
19626W        W35243  10.051   3.705   0.676  0.1250 -0.3118 -0.3067
19627W        W35244   4.551   1.634  11.645 -0.0540  0.0741  0.1776
19628W        W35245  10.890  10.147  15.303  0.0839  0.1446 -0.1768
19629W        W35246   8.178   9.265   4.882 -0.0107 -0.0144  0.1550
19630W        W35247   7.772   5.957  16.716 -0.3196  0.4872 -0.0857
19631W        W35248   7.501   5.574  16.037  0.1119  0.4908 -0.2525
19632W        W35249  15.785  11.614   5.572  0.1783  0.1528  0.0412
19633W        W35250  15.383   5.519   2.427 -0.1323  0.0336 -0.0296
19634W        W35251   3.515   0.510  15.981  0.1490 -0.1018 -0.2220
19635W        W35252  13.220   2.312   3.088  0.1577  0.0887  0.1959
19636W        W35253  13.178   2.722   4.914  0.0654 -0.0460 -0.0468
19637W        W35254  17.750  13.549  13.655 -0.0808 -0.1463 -0.1400
19638W        W35255   1.347   0.714  16.500  0.2353 -0.1345  0.2404
19639W        W35256  17.709   3.227  12.209 -0.1859  0.1921  0.1939
19640W        W35257   3.428   9.356  11.730 -0.0984  0.0364 -0.0352
19641W        W35258   3.223   7.306   3.232 -0.2364 -0.0516  0.1934
19642W        W35259   0.696  16.347  12.393  0.0128  0.0995 -0.1143
19643W        W35260  14.935  11.685  14.362  0.2447 -0.2813 -0.1432
19644W        W35261   5.553   4.306  13.759 -0.1724 -0.0121  0.0185
19645W        W35262   9.206   2.457   3.218  0.1779 -0.2458 -0.1464
19646W        W35263  16.073   0.657  15.447  0.2055  0.2666  0.2047
19647W        W35264  15.884   1.986   0.125 -0.0683 -0.2465 -0.6294
19648W        W35265   8.904  14.964  15.373  0.0434 -0.0786  0.1720
19649W        W35266   9.768  10.151   4.482  0.0243 -0.2985  0.2644
19650W        W35267  12.156   4.280  11.714 -0.0106 -0.5992  0.0572
19651W        W35268  14.862   7.434  11.485 -0.0598 -0.0634 -0.1202
19652W        W35269  14.183  17.281  16.497 -0.2079 -0.0425 -0.0801
19653W        W35270  16.602   6.536   5.525 -0.1393  0.1012  0.0266
19654W        W35271  16.829   9.570  12.184 -0.2049  0.0031 -0.0663
19655W        W35272   7.861  14.897   0.662  0.0201 -0.2300 -0.1353
19656W        W35273   3.614  17.224   4.278 -0.0334 -0.3039 -0.0330
19657W        W35274   6.345   4.674  15.787  0.1236 -0.1091 -0.4422
19658W        W35275   6.342  17.371   0.276  0.2043 -0.0051 -0.0485
19659W        W35276   7.926   2.543   2.791  0.0496  0.0187 -0.1949
19660W        W35277   6.004   7.410  15.629 -0.1482  0.1493 -0.2556
19661W        W35278   9.364   0.167  16.647 -0.1516 -0.1538  0.0739
19662W        W35279  12.071  14.147  11.955 -0.0826  0.0514  0.3618
19663W        W35280   1.313  16.023  16.560 -0.0412  0.2411  0.0273
19664W        W35281   0.591   6.229  11.742  0.5311 -0.0524  0.0987
19665W        W35282  16.365  13.124   3.104 -0.0916  0.4861 -0.0726
19666W        W35283  17.388   6.773  12.546  0.0709 -0.0894 -0.2652
19667W        W35284   5.829   2.643   0.065 -0.1747 -0.0547  0.3397
19668W        W35285   8.083  14.322   2.398 -0.1173  0.1693  0.2564
19669W        W35286   7.040   7.860   4.942 -0.0892  0.1406  0.2056
19670W        W35287   0.418   8.168  16.624  0.0124  0.0053  0.2727
19671W        W35288  13.200  16.795  11.602  0.1578 -0.0663 -0.0466
19672W        W35289  17.072  16.979   2.236  0.1299 -0.0776 -0.0229
19673W        W35290   8.332  13.043   1.906 -0.1641 -0.2732 -0.0172
19674W        W35291  10.090  12.417  12.141 -0.4232  0.1153  0.0659
19675W        W35292   5.799   3.090   1.385 -0.0769 -0.2320 -0.0268
19676W        W35293  11.353  14.723   2.511 -0.3085  0.0679 -0.2848
19677W        W35294  13.674  10.558  13.191  0.0014  0.1368 -0.0040
19678W        W35295   8.713   5.004   0.781 -0.0289 -0.0872 -0.1578
19679W        W35296   3.935  12.573  12.343  0.1437  0.1747 -0.0788
19680W        W35297  15.321  12.677   0.724 -0.0210 -0.1641 -0.1480
19681W        W35298   2.267  16.127  13.777 -0.2189 -0.1009  0.0066
19682W        W35299  12.587   2.527  15.326  0.1147 -0.1226  0.2642
19683W        W35300   5.162   5.413  16.596 -0.0981 -0.1940  0.1865
19684W        W35301   0.035  12.484  14.581  0.1598 -0.0433  0.0568
19685W        W35302   2.293   6.324  12.453  0.0821  0.0585  0.1061
19686W        W35303  14.375  15.510   5.625  0.1292 -0.1795 -0.0053
19687W        W35304  12.168  14.819  13.169 -0.3721  0.0376  0.0867
19688W        W35305   2.476   6.762   1.066 -0.0787 -0.0876 -0.0089
19689W        W35306   2.901   0.037   4.858  0.0467  0.1571 -0.3092
19690W        W35307   2.918   9.497  16.294 -0.0715  0.0560 -0.0236
19691W        W35308   4.765   5.296   4.116  0.0643  0.1265 -0.0055
19692W        W35309  16.432  16.961   9.943  0.2743  0.0173 -0.0518
19693W        W35310   1.050  15.227   3.439 -0.1741 -0.1628 -0.1067
19694W        W35311   4.665   1.741  15.326  0.1930  0.0839  0.2664
19695W        W35312  10.916  11.914   4.994 -0.0639  0.2868  0.1827
19696W        W35313   1.646   2.933  11.622 -0.1018  0.1452  0.2051
19697W        W35314  14.395   1.668  13.177 -0.0668  0.2364  0.0014
19698W        W35315  15.131   6.769  15.398 -0.1778  0.0465  0.0398
19699W        W35316  14.395   8.273  14.919 -0.1914 -0.0690 -0.2553
19700W        W35317  15.069   0.531  13.620 -0.1528  0.2951 -0.1090
19701W        W35318   0.454   4.260  13.493 -0.0455 -0.1972  0.1387
19702W        W35319   1.822   5.783   0.597  0.1310 -0.3784  0.1920
19703W        W35320  14.828  10.433   2.219  0.0491 -0.2393  0.1514
19704W        W35321  13.042  10.578   5.147 -0.1169 -0.0380  0.2164
19705W        W35322  14.524  14.082   1.007  0.3214  0.0635 -0.0886
19706W        W35323   5.490   0.060   5.334  0.1410  0.0710  0.0135
19707W        W35324   7.871   6.258   4.457  0.0892 -0.1726 -0.3558
19708W        W35325  17.796   9.567   0.600  0.0851  0.0161 -0.3447
19709W        W35326  15.681   6.387  13.481  0.0360 -0.2179 -0.0827
19710W        W35327  12.819   7.971   0.114 -0.0911  0.2548  0.0806
19711W        W35328   0.407  16.631  11.485 -0.1363 -0.2690  0.0905
19712W        W35329   0.899   5.846   2.862 -0.2156 -0.1495  0.1242
19713W        W35330  12.417   8.126  13.060  0.0747  0.1587  0.0571
19714W        W35331   4.369  11.159  13.374  0.0736 -0.0633  0.0028
19715W        W35332  11.424   4.684  13.374  0.3188 -0.2444  0.1506
19716W        W35333  17.669   7.502  15.783 -0.0245  0.0573 -0.3909
19717W        W35334   6.678  17.061   3.643  0.0123 -0.0520  0.3559
19718W        W35335  17.253   8.493  16.681  0.3216  0.0735  0.0352
19719W        W35336  12.069   5.261  15.410 -0.0963 -0.0387  0.1752
19720W        W35337   9.293  16.742   2.322 -0.1234 -0.1864  0.1353
19721W        W35338   2.069   9.909   2.484  0.0296 -0.0959 -0.0261
19722W        W35339   6.227  12.754   4.655 -0.0885  0.1460  0.1134
19723W        W35340   7.725   1.273   4.206 -0.4069  0.0103  0.3290
19724W        W35341  11.853  13.477   3.668  0.4246 -0.0459  0.2705
19725W        W35342  17.152  14.128   4.452 -0.0083  0.0574  0.0140
19726W        W35343   0.438  11.750  15.004  0.0700  0.0346  0.0800
19727W        W35344   8.489  15.775  16.049  0.3301 -0.0461 -0.1709
19728W        W35345   1.233  15.113  12.614 -0.0014 -0.3137 -0.3579
19729W        W35346  14.855  14.404  13.092  0.1329 -0.2424  0.0124
19730W        W35347  15.070   9.410   4.961  0.1637  0.1475  0.0692
19731W        W35348  17.045  15.590   4.673 -0.0926 -0.2902 -0.0425
19732W        W35349   2.215   2.312   6.378 -0.1105  0.0931 -0.0892
19733W        W35350  17.753  11.130  16.426  0.2681  0.0136 -0.0953
19734W        W35351   5.714   6.695   5.409  0.3873  0.0585  0.2815
19735W        W35352   8.210  14.723   4.328  0.0230  0.1239 -0.2333
19736W        W35353   1.585   4.330  13.867 -0.3559 -0.0436 -0.3257
19737W        W35354  14.784   1.830   3.869 -0.3030  0.2076 -0.1966
19738W        W35355   3.605   7.842   4.853 -0.0973 -0.0782 -0.0118
19739W        W35356  10.043  13.080  13.094  0.1221  0.0931 -0.1617
19740W        W35357   2.215   2.939   4.668 -0.2090  0.1045 -0.0673
19741W        W35358   9.805   0.108  10.744 -0.0216  0.1152  0.0014
19742W        W35359   5.238   0.090   4.834 -0.2570 -0.0735  0.1664
19743W        W35360  15.595  16.037   2.417  0.0522  0.0060 -0.3349
19744W        W35361   8.671   3.314  12.096 -0.0778 -0.1084 -0.1189
19745W        W35362   0.638   5.406  15.403 -0.1718 -0.2261  0.1335
19746W        W35363   8.514   7.081   1.963 -0.0857 -0.1071 -0.0181
19747W        W35364   0.066  15.897   4.443  0.0104 -0.0561 -0.2180
19748W        W35365   9.710   3.069  11.475  0.0047 -0.1533  0.2542
19749W        W35366   0.623   0.074  13.074  0.0521  0.0978  0.1085
19750W        W35367   8.751   6.061  13.668 -0.0117 -0.3600  0.0084
19751W        W35368  16.135   6.345  13.316  0.1148 -0.2233  0.3026
19752W        W35369  11.687   0.610  12.758  0.1643  0.0445  0.2056
19753W        W35370  14.922  17.037   6.240 -0.3607  0.1316  0.1545
19754W        W35371  15.091  13.236   4.506  0.4636 -0.2683  0.1624
19755W        W35372  16.902   3.033   1.918  0.2584 -0.1166 -0.0159
19756W        W35373  17.712  16.068   3.968  0.0021  0.1014  0.1284
19757W        W35374   9.636   5.283   5.116  0.1010 -0.2260 -0.3058
19758W        W35375   1.249   6.553   3.026 -0.1819  0.3166  0.1281
19759W        W35376   1.714   8.596  15.949  0.2567  0.1761  0.3188
19760W        W35377  11.854  11.163   3.305  0.2020  0.0577  0.1732
19761W        W35378  16.315  11.299   2.907 -0.0141  0.1507  0.0171
19762W        W35379  15.610  11.499  12.137  0.1707  0.0500 -0.2213
19763W        W35380  13.940  16.336   2.834 -0.1555  0.1506 -0.2374
19764W        W35381   5.941   6.078  12.308  0.1366  0.1983 -0.0965
19765W        W35382   6.253   7.952   4.328  0.0414  0.2086  0.1379
19766W        W35383  14.913   7.169  16.486 -0.1808  0.1896  0.0017
19767W        W35384  12.467  17.137   0.095  0.2978  0.0815 -0.0604
19768W        W35385   2.627   7.946  13.279  0.0206  0.2303  0.1386
19769W        W35386  16.521   6.855   0.815  0.0323 -0.1527  0.4111
19770W        W35387   3.346   4.036   0.426  0.0253  0.0302 -0.3539
19771W        W35388  16.178   1.754   1.304  0.0274 -0.0219 -0.2618
19772W        W35389  16.311  17.168   2.421 -0.0455 -0.0277 -0.0351
19773W        W35390   5.848  14.957  15.759  0.1925  0.0177 -0.2443
19774W        W35391   2.770  10.279   0.691  0.0431  0.0342 -0.3988
19775W        W35392   3.671   7.291  15.205  0.3059 -0.1147 -0.1552
19776W        W35393   4.977   3.590   2.959 -0.3051 -0.0258  0.0113
19777W        W35394   0.214  15.720  11.591 -0.0074  0.0695 -0.1624
19778W        W35395  15.821   5.935   2.559  0.3680  0.0266  0.1594
19779W        W35396   5.019  17.285  14.165  0.0989 -0.3288  0.0316
19780W        W35397  13.470   7.775   5.598 -0.1282  0.1584 -0.0137
19781W        W35398   0.459   9.364   3.976  0.2731  0.0051 -0.1985
19782W        W35399   8.668   1.869  14.667  0.0710 -0.2537 -0.1369
19783W        W35400   1.830   1.163  15.478 -0.1368 -0.1288 -0.1450
19784W        W35401   4.826   4.525  12.415 -0.0355  0.2568 -0.6076
19785W        W35402  14.439   3.134   4.048 -0.0163  0.2601  0.2944
19786W        W35403  16.136   5.287  12.862  0.1359  0.2975 -0.1439
19787W        W35404   9.441   2.448  12.873 -0.0462 -0.4047  0.0133
19788W        W35405   7.738  10.893  13.517  0.0868  0.0787 -0.0109
19789W        W35406   2.738  12.244  13.364 -0.0712  0.0783  0.0772
19790W        W35407   9.551   5.751   4.522 -0.0175  0.1907 -0.2200
19791W        W35408  12.299   7.151   5.412 -0.0847  0.0768 -0.1315
19792W        W35409   5.425  15.217   0.244  0.1869 -0.1866 -0.0012
19793W        W35410  10.474   8.666   1.475  0.2826  0.1297 -0.1666
19794W        W35411   6.341   7.293  10.622 -0.3132 -0.1308 -0.0358
19795W        W35412   1.644  14.939  16.361 -0.2558 -0.3451 -0.3035
19796W        W35413   8.247   5.154   3.580 -0.2296  0.2307 -0.2222
19797W        W35414  10.880  12.528  12.104  0.0617 -0.0488 -0.0066
19798W        W35415  13.321  15.644  11.624  0.1790 -0.0278 -0.0336
19799W        W35416  16.130   8.026  16.324  0.0642 -0.1159 -0.0042
19800W        W35417  10.889  10.221  14.654 -0.0292  0.0920  0.2002
19801W        W35418  15.705   3.865  14.664  0.2778  0.0310 -0.2298
19802W        W35419   0.280  15.846   3.107  0.3516 -0.4010 -0.0698
19803W        W35420   0.004   8.015  12.725  0.0550  0.0602 -0.2373
19804W        W35421  16.009  14.138  15.685  0.1188 -0.1155  0.0090
19805W        W35422   5.442  16.992  15.602  0.0565  0.1491  0.2008
19806W        W35423  11.628  16.689  12.526  0.1408  0.2137  0.3845
19807W        W35424   3.268  10.737  16.548 -0.0082 -0.1962 -0.1173
19808W        W35425  11.444   9.582  13.742  0.0108  0.1533 -0.3841
19809W        W35426  17.414   7.973   3.984  0.2882 -0.1082 -0.0361
19810W        W35427  15.394  15.978   3.805 -0.0963  0.2084  0.0135
19811W        W35428  16.658   2.975  13.162 -0.2666 -0.1397  0.1577
19812W        W35429  15.764  11.968   4.507 -0.0916  0.1364 -0.0021
19813W        W35430   5.059  11.053  12.139  0.2555 -0.0266  0.1147
19814W        W35431   1.442   3.790   3.984 -0.3908  0.1366  0.0317
19815W        W35432  11.562  15.923   0.941  0.2186 -0.1474  0.1000
19816W        W35433   6.759   1.583   6.209  0.1261 -0.3481 -0.1353
19817W        W35434  13.998   2.483  14.283 -0.1914  0.1841  0.0979
19818W        W35435   0.036   6.290   6.162 -0.0091 -0.1236  0.3317
19819W        W35436  17.692  12.029  15.713 -0.2599 -0.1353  0.1230
19820W        W35437  13.446   4.385  16.126 -0.0957  0.3080 -0.0825
19821W        W35438   0.636   9.752  13.767  0.2866 -0.0362 -0.1948
19822W        W35439  14.799  10.939   3.497  0.0514  0.0204 -0.1536
19823W        W35440   1.168  15.933  16.030  0.2820 -0.0131  0.0201
19824W        W35441   6.937   1.878   0.590  0.0063 -0.0267  0.0348
19825W        W35442   5.294  15.928  16.278  0.0217  0.1933 -0.3258
19826W        W35443   0.768   0.854   4.328  0.2340  0.1364 -0.0652
19827W        W35444  16.585   6.514   1.485  0.4522  0.1878 -0.1794
19828W        W35445   2.505   2.259   1.522 -0.0277 -0.4745 -0.2266
19829W        W35446  14.509  11.865  16.243 -0.1144  0.0252 -0.1285
19830W        W35447   1.935   9.518  16.214 -0.3138  0.2667  0.0600
19831W        W35448  17.068   6.643  14.276  0.1226  0.1031  0.0699
19832W        W35449  14.563  10.621  16.772 -0.1274  0.3584  0.1246
19833W        W35450  15.165  16.731  11.951 -0.2222  0.0573 -0.0327
19834W        W35451  17.034   3.070  15.661  0.0951  0.2783 -0.1568
19835W        W35452  17.845   9.828   5.462  0.2703  0.1412 -0.1205
19836W        W35453  17.015   7.628   2.091 -0.1268 -0.1967  0.0128
19837W        W35454  11.172  13.229   4.755 -0.0990 -0.0384  0.0132
19838W        W35455   1.765   4.795   2.035  0.0840  0.0374 -0.1544
19839W        W35456  12.526   5.371  12.701  0.0988 -0.0844 -0.1188
19840W        W35457  14.299   7.879  14.106  0.0159 -0.1165 -0.0498
19841W        W35458   2.212   6.447   5.748  0.1608 -0.0689  0.0997
19842W        W35459  16.540  16.370   2.951 -0.0475  0.0503  0.0011
19843W        W35460   9.919  15.671  11.296  0.0646  0.1129  0.0664
19844W        W35461   7.768   7.227   4.702 -0.0210  0.0952 -0.0026
19845W        W35462  11.926  11.859  12.018  0.0250  0.1342  0.4529
19846W        W35463  17.174   3.800   3.163  0.0808 -0.0343  0.0515
19847W        W35464  12.975  13.587   4.819  0.1398  0.0704  0.3976
19848W        W35465   9.415   2.139   1.954 -0.1715 -0.1603  0.1153
19849W        W35466   8.754  15.562   5.602 -0.0387  0.2709 -0.1345
19850W        W35467  14.931  11.284  12.790  0.1157  0.0849 -0.2768
19851W        W35468  15.013   6.664  13.073  0.2450  0.0289 -0.2705
19852W        W35469  13.557   7.833  16.212  0.2411 -0.1009  0.3270
19853W        W35470   1.005  14.596   5.303  0.1718 -0.0797  0.0249
19854W        W35471   1.194   8.606   4.979 -0.1076  0.4241  0.0921
19855W        W35472   6.214   0.536   4.040 -0.0734  0.0479  0.1451
19856W        W35473   6.288  15.254   2.524 -0.0562 -0.4375  0.0124
19857W        W35474   8.849  17.864   1.516 -0.2316  0.0762  0.3492
19858W        W35475  17.425   4.975  15.252  0.2879  0.1500 -0.3642
19859W        W35476   5.311   9.430  13.157 -0.0654 -0.0935 -0.2645
19860W        W35477  14.949   8.720   3.900  0.3339 -0.0368 -0.1717
19861W        W35478   6.947   7.211   4.648 -0.0604  0.1287  0.0683
19862W        W35479  12.262  11.884  13.471 -0.2074 -0.2604 -0.0035
19863W        W35480  17.803   1.271   1.262 -0.0740 -0.0394  0.3210
19864W        W35481   3.083  17.554  15.726  0.2429  0.1116  0.1993
19865W        W35482  16.618   2.834   0.081  0.0476 -0.0974  0.1090
19866W        W35483   4.088   1.643  11.801 -0.2018 -0.2326 -0.2557
19867W        W35484   8.876  13.870   2.810 -0.2220 -0.0198 -0.0936
19868W        W35485  14.078  16.688  12.819 -0.0612 -0.1577 -0.0926
19869W        W35486   8.125   1.078  13.500 -0.0062 -0.0391 -0.1113
19870W        W35487  16.429   5.456  14.557 -0.0437  0.0306 -0.1774
19871W        W35488  11.296   0.649   1.372 -0.1187 -0.0623  0.2046
19872W        W35489   5.047  15.642  14.539 -0.1008 -0.1672 -0.0192
19873W        W35490  12.246  10.291   5.863  0.0731  0.1990  0.0928
19874W        W35491   4.560  15.906  15.068 -0.3893  0.0803  0.0060
19875W        W35492  12.506   1.981  12.456 -0.2464  0.2780 -0.0531
19876W        W35493   2.074  15.076  12.020 -0.0805  0.2481  0.0968
19877W        W35494  15.671   8.238   5.257 -0.0307 -0.0251 -0.1526
19878W        W35495   7.868  11.402   2.151 -0.2945  0.0586  0.4761
19879W        W35496  14.796   8.037  16.156  0.2345  0.0814 -0.0948
19880W        W35497   1.646  14.458  13.147 -0.0352  0.0217 -0.2224
19881W        W35498   4.808  17.701   1.154  0.3101 -0.1316 -0.0809
19882W        W35499   1.239   1.976  15.312  0.3166 -0.1648  0.2242
19883W        W35500  10.104  16.059   0.915 -0.3420  0.0724  0.0362
19884W        W35501  12.757  16.035   4.314 -0.2057 -0.0876  0.0007
19885W        W35502  12.410  15.879  15.156  0.0844 -0.1485  0.3267
19886W        W35503  17.855   7.756   0.943 -0.0442  0.0376  0.1516
19887W        W35504  15.094   6.188   4.246  0.1874 -0.1976 -0.4157
19888W        W35505   2.884  15.456  13.717 -0.0784  0.1243  0.0440
19889W        W35506   8.042  16.797  13.035  0.0259 -0.0092  0.0209
19890W        W35507  16.420  11.359   4.760  0.0886 -0.1468 -0.2493
19891W        W35508  10.932   5.306  16.164  0.3078 -0.1900 -0.1263
19892W        W35509   0.962   1.496   2.022 -0.0895 -0.3469 -0.1862
19893W        W35510  12.917  17.161  12.040 -0.0012  0.0582 -0.1473
19894W        W35511   1.461  12.618   0.707  0.2180 -0.1237  0.1929
19895W        W35512   5.405  17.732   0.772 -0.0046  0.0066  0.0553
19896W        W35513  12.447   2.071  12.935  0.1595  0.0176 -0.1550
19897W        W35514  14.932  17.503  15.090 -0.0280 -0.0858 -0.2542
19898W        W35515   1.434   1.543  15.527 -0.0645  0.3522 -0.1755
19899W        W35516  14.607  11.095  15.081 -0.0559  0.2329 -0.1592
19900W        W35517  15.072  15.832   5.055 -0.1505  0.0509 -0.4447
19901W        W35518   0.732   9.365  13.372  0.1535 -0.0624  0.0611
19902W        W35519   7.487   0.295   4.559 -0.0299  0.0884  0.4188
19903W        W35520   2.246  11.653  11.122 -0.2474 -0.4765  0.2341
19904W        W35521  14.712  17.612   3.658 -0.0284 -0.1723  0.2138
19905W        W35522  15.752   9.391   1.886  0.3293  0.1292 -0.1982
19906W        W35523  12.951  13.213   1.107  0.1235  0.1715  0.0379
19907W        W35524  12.093  17.767  12.046 -0.2712  0.1424  0.0410
19908W        W35525   9.412  15.794   2.445 -0.0141 -0.2517  0.0550
19909W        W35526   0.132  12.493   4.286 -0.1140  0.1525 -0.1526
19910W        W35527  13.789   9.892   0.204  0.0951 -0.1035 -0.0038
19911W        W35528   7.333   4.723   5.342 -0.1833  0.2708  0.1779
19912W        W35529  16.821   6.746  12.535 -0.3048  0.0417  0.2047
19913W        W35530   8.220   6.474  13.898 -0.2364 -0.0735 -0.0799
19914W        W35531   6.382   4.981   4.262 -0.0989  0.1126  0.1239
19915W        W35532  11.676   3.831  13.848 -0.0121 -0.0203 -0.2966
19916W        W35533   2.356   2.946  13.678  0.1830  0.1199 -0.2371
19917W        W35534   0.227   5.719   1.629  0.0071  0.1016  0.1084
19918W        W35535   7.813  15.832   5.952 -0.2094 -0.2280  0.0475
19919W        W35536   7.761   8.279  16.267 -0.0303 -0.2187 -0.2268
19920W        W35537  13.728   1.399   4.140  0.1439 -0.1059  0.0744
19921W        W35538   3.520   6.895   3.710 -0.2362 -0.0959 -0.0027
19922W        W35539  16.395  14.814  14.219  0.2137  0.0102  0.1652
19923W        W35540   5.411   7.401  15.738  0.2429  0.3050  0.1249
19924W        W35541  15.229  10.315  14.065 -0.2210  0.1912 -0.0306
19925W        W35542  14.805  16.562   0.475 -0.0403 -0.1783  0.1713
19926W        W35543   6.450   6.835  11.889  0.0679  0.0273  0.1516
19927W        W35544   4.406   4.940  13.903  0.3132  0.2402 -0.2398
19928W        W35545  17.528  17.123  12.094 -0.1225 -0.1773 -0.0639
19929W        W35546  11.545  14.011   1.964 -0.1717  0.2170 -0.0249
19930W        W35547   7.313  15.806   2.354 -0.3494  0.2443 -0.0872
19931W        W35548   8.688   6.476  15.823  0.0002  0.0062 -0.0863
19932W        W35549   1.879  12.237  16.462  0.0982  0.0470 -0.3420
19933W        W35550   3.612  16.464   5.606  0.1603  0.1624  0.2565
19934W        W35551  16.430  16.731  12.961  0.0278 -0.1728 -0.1772
19935W        W35552  10.110   1.543  12.256 -0.0510 -0.2187 -0.0925
19936W        W35553   6.877   1.988   5.531  0.0072  0.5094  0.0026
19937W        W35554  14.741  12.250  16.563  0.0202  0.1384  0.1554
19938W        W35555  12.210   7.332  13.372 -0.3934 -0.0452 -0.3492
19939W        W35556  16.617   1.633  11.742  0.0009  0.0120 -0.0346
19940W        W35557  17.313  16.121  13.302 -0.0685 -0.4825 -0.1036
19941W        W35558  12.647  17.385   3.976  0.2592  0.0656 -0.0619
19942W        W35559   7.007  12.827   2.177  0.1509 -0.0492 -0.2859
19943W        W35560   5.187   7.339   2.988  0.0536  0.2365  0.1999
19944W        W35561  14.067   7.727  11.969  0.2110 -0.1000  0.0649
19945W        W35562  11.140   5.783   6.027 -0.1693 -0.2694 -0.1227
19946W        W35563   4.267   8.221  16.218  0.1627  0.0177  0.1065
19947W        W35564   0.194   3.038  12.953  0.2494 -0.0305  0.1620
19948W        W35565   8.557   2.417   4.527 -0.0378  0.2791  0.0824
19949W        W35566  14.077  17.052  13.221  0.1032  0.1317 -0.1478
19950W        W35567   4.591  14.036   3.074 -0.2599  0.0277  0.0818
19951W        W35568   8.466  16.743   0.334 -0.0993 -0.3063  0.2728
19952W        W35569   4.563  15.568  14.690  0.0002 -0.3241 -0.1650
19953W        W35570   8.655   5.478   6.254 -0.1804  0.2445 -0.1564
19954W        W35571  13.254   3.073   4.492  0.0441 -0.0440 -0.2471
19955W        W35572   8.483  13.785   1.374 -0.2337 -0.0094  0.1106
19956W        W35573  13.423   2.419  12.705 -0.0535 -0.0227 -0.2791
19957W        W35574   1.702   6.173   2.930 -0.1307  0.0291  0.0720
19958W        W35575   6.683  14.778  13.719 -0.1597 -0.1109 -0.0995
19959W        W35576   5.085   7.404   1.810  0.1607 -0.0274 -0.5021
19960W        W35577  11.759   5.846   2.905 -0.1672 -0.0712 -0.0802
19961W        W35578   1.175   8.775   0.023 -0.1464  0.0359  0.0718
19962W        W35579  11.877   2.593   1.303 -0.0466  0.3101  0.1226
19963W        W35580   9.006  13.325  12.197 -0.2143 -0.0434 -0.1671
19964W        W35581   8.683  16.670   1.340  0.0771  0.3593 -0.0033
19965W        W35582  17.824  13.421   5.012 -0.1975 -0.0311 -0.1035
19966W        W35583   4.875  16.031   0.751 -0.0603 -0.1100  0.0527
19967W        W35584  12.681  12.924   3.547  0.0141 -0.0990 -0.0350
19968W        W35585  17.172   6.217   3.630 -0.0936 -0.1760 -0.0241
19969W        W35586  10.727   7.750   6.375 -0.0659 -0.0797 -0.1220
19970W        W35587   9.686   9.827   0.395  0.3083  0.0307  0.0057
19971W        W35588  16.329   1.887   3.866  0.0721 -0.1930 -0.1395
19972W        W35589  14.007  12.447   0.780 -0.0671  0.1285 -0.1825
19973W        W35590   2.129   4.204  15.128  0.1173 -0.0920 -0.1229
19974W        W35591  15.244  17.444   3.496 -0.1694  0.0130  0.0120
19975W        W35592   1.292   3.313   5.199 -0.0555 -0.1247 -0.1420
19976W        W35593   4.021   0.773   4.813  0.1827  0.0770  0.0428
19977W        W35594   4.323   8.816   1.729 -0.1146  0.1840  0.0726
19978W        W35595  14.118  13.449   5.703  0.0695 -0.0757 -0.2158
19979W        W35596   4.727   0.527   2.831 -0.3267  0.2163 -0.3418
19980W        W35597  11.565   2.624  13.145 -0.2954 -0.1844  0.1189
19981W        W35598   8.878   8.717  14.391  0.0511 -0.1211 -0.3027
19982W        W35599   2.811   8.353   2.896  0.0999  0.0218  0.0644
19983W        W35600   9.092  10.039   5.296 -0.0657 -0.1047  0.0095
19984W        W35601  15.270   2.590   1.068 -0.0869  0.0688  0.2466
19985W        W35602  17.538   7.081  13.456  0.3081  0.0820  0.1871
19986W        W35603   7.797   9.812   6.222  0.1130 -0.1438 -0.0019
19987W        W35604   5.289  11.904   2.372 -0.0640 -0.2494 -0.3202
19988W        W35605  11.897  14.196  15.990  0.1174 -0.1902 -0.2683
19989W        W35606   4.469  15.284  12.074  0.0518 -0.0972 -0.2564
19990W        W35607  17.542   5.327  16.286  0.2457  0.1436  0.2175
19991W        W35608   9.978  14.837   5.899  0.1898  0.2112  0.1575
19992W        W35609   9.978  13.461   2.459  0.0056  0.4122  0.1393
19993W        W35610   4.389   8.627  14.964 -0.0493  0.1405  0.1430
19994W        W35611   7.095  14.724   1.610 -0.3428 -0.1468  0.0028
19995W        W35612  14.705  16.016  11.435  0.2658  0.2429 -0.1422
19996W        W35613   9.089   1.068  13.023  0.0812 -0.1306 -0.0729
19997W        W35614   5.871  11.397   1.844 -0.0997 -0.1602 -0.1126
19998W        W35615  16.240  14.106   1.084  0.3029 -0.0460 -0.2177
19999W        W35616   6.022  13.906   1.728 -0.3673 -0.1658  0.1883
20000W        W35617  15.875   4.502   0.631 -0.2977  0.0892  0.2647
20001W        W35618   4.620   3.231  12.793  0.0336 -0.0547 -0.1177
20002W        W35619  11.095  12.087   1.053 -0.1379  0.0339 -0.1068
20003W        W35620   3.990  16.381  11.002  0.0289  0.1168 -0.1226
20004W        W35621  12.101  14.443   0.829 -0.0196 -0.2840  0.0193
20005W        W35622  12.419  17.308  13.223  0.1367 -0.1122  0.0508
20006W        W35623   2.598  12.537  15.402 -0.2818 -0.0162 -0.0615
20007W        W35624   2.053   9.258  13.122  0.0864 -0.1084 -0.1645
20008W        W35625   8.532   1.545   0.024 -0.1416  0.0023 -0.2349
20009W        W35626   3.957   5.682   6.529 -0.0479  0.0532  0.1611
20010W        W35627  11.111  16.353   3.239 -0.1150 -0.0629 -0.2557
20011W        W35628  13.238  12.553  11.878  0.0533  0.1040 -0.0187
20012W        W35629   5.992   2.152  13.726  0.0816  0.0099  0.0877
20013W        W35630  15.089   3.270   0.429 -0.1092  0.0083 -0.1982
20014W        W35631  16.742  15.055  15.148 -0.4288  0.2742 -0.0162
20015W        W35632   0.891   9.025   1.950 -0.1117 -0.2699  0.1300
20016W        W35633   4.520   6.445  13.934 -0.1190  0.0979  0.0975
20017W        W35634  17.783  14.857  11.241 -0.0402 -0.2060  0.2669
20018W        W35635   8.333   8.705  14.713 -0.4462  0.0410 -0.2818
20019W        W35636  17.181   3.323  16.132 -0.0229  0.0314  0.0247
20020W        W35637   9.207  13.552   0.286  0.3960 -0.0632 -0.1122
20021W        W35638   3.171   9.376   1.459 -0.0741  0.0058 -0.0081
20022W        W35639   7.205   1.330   4.401 -0.1346 -0.0228  0.1049
20023W        W35640   4.859   7.761   1.580  0.1763 -0.0211  0.2984
20024W        W35641  11.380  13.871  15.646 -0.1629  0.0714  0.1496
20025W        W35642  16.207   7.208   1.075  0.0816 -0.0665  0.3129
20026W        W35643  15.022  17.858  15.501 -0.1368  0.1366 -0.2348
20027W        W35644   7.511   6.998   1.307 -0.1365 -0.3863 -0.0060
20028W        W35645  17.199   8.119   5.150 -0.0312  0.0058  0.3239
20029W        W35646  15.265   4.784   1.109 -0.0604  0.1252 -0.4449
20030W        W35647   9.148  15.134   5.467  0.0285 -0.0254 -0.1518
20031W        W35648  12.392   9.560   2.925 -0.2937  0.1030 -0.0710
20032W        W35649   8.713   3.343  16.552 -0.2520  0.1252 -0.0726
20033W        W35650  10.257  11.035  11.582  0.0376 -0.0338 -0.1195
20034W        W35651   1.710  11.257   1.732  0.0284  0.0321  0.1587
20035W        W35652   2.409  12.927  13.439  0.0252  0.1933  0.1228
20036W        W35653   1.332   7.314  16.530  0.0565 -0.0779 -0.4294
20037W        W35654   8.224  16.541  14.012 -0.0669 -0.0340  0.2741
20038W        W35655   6.252   6.095   3.764 -0.0271  0.1286  0.1597
20039W        W35656  15.590  10.250  13.745  0.1184  0.1083  0.1316
20040W        W35657   3.124  10.172   2.554 -0.0992 -0.2834 -0.1468
20041W        W35658  10.870  11.087   4.241 -0.1172  0.0855  0.0535
20042W        W35659  14.685   0.101   2.948 -0.0515  0.0570  0.2115
20043W        W35660   4.785   8.992  16.165  0.3992  0.0367  0.3240
20044W        W35661   8.083  11.520  16.004  0.0361  0.0603 -0.0947
20045W        W35662  12.926  17.491   0.281 -0.1451 -0.1791  0.0386
20046W        W35663   9.160   2.395   1.071 -0.0991 -0.2247 -0.2546
20047W        W35664   4.201   2.171  14.661  0.0668 -0.2747 -0.2135
20048W        W35665   0.212   4.345   0.437  0.0760 -0.1052  0.2575
20049W        W35666   2.264   8.177  12.656  0.0736  0.1950 -0.0645
20050W        W35667   6.597   3.020  11.885  0.1199  0.0797 -0.0300
20051W        W35668  13.198   5.461  15.410  0.3966 -0.0774 -0.1459
20052W        W35669   2.604  10.326  11.310  0.1411  0.1150 -0.0721
20053W        W35670  12.936  14.954  13.910 -0.1266 -0.3128 -0.0962
20054W        W35671   8.205  10.864  16.246  0.0022 -0.0430  0.3021
20055W        W35672  15.322   7.758   6.005 -0.0179 -0.1318  0.0941
20056W        W35673   2.530   0.121   4.361  0.0623  0.1743 -0.4563
20057W        W35674  10.165  10.687   3.704 -0.0093  0.2839  0.1371
20058W        W35675   5.000   7.530  13.927  0.0436 -0.0709  0.2154
20059W        W35676   8.970   2.822   4.265  0.1032  0.2943  0.1558
20060W        W35677   1.961  11.335  16.297  0.0948 -0.2821 -0.1619
20061W        W35678   3.774   5.948  14.029 -0.1752 -0.0010  0.1061
20062W        W35679   8.628   1.956  13.781  0.1058  0.1260 -0.1747
20063W        W35680  12.348   3.622   2.956 -0.2579  0.0335  0.0082
20064W        W35681  16.858   0.696  16.244 -0.1192  0.1429 -0.0023
20065W        W35682   3.848   1.388  15.035 -0.1904  0.0438  0.0401
20066W        W35683   4.864   3.168   3.625  0.5376 -0.0443 -0.1090
20067W        W35684   2.752   1.043  16.641  0.0775 -0.3386 -0.0150
20068W        W35685  11.612   6.596   1.225  0.0363  0.0699  0.3059
20069W        W35686  16.645  14.970   5.924 -0.0866 -0.0015  0.2595
20070W        W35687   4.276   9.811   3.182  0.1884 -0.0831  0.0007
20071W        W35688  17.352   5.569   1.092 -0.1079  0.2467  0.0018
20072W        W35689  16.878   7.658   4.909 -0.1472  0.0828 -0.0956
20073W        W35690  14.747  17.502   1.027  0.1570  0.2350 -0.1377
20074W        W35691   1.427  17.187   1.190 -0.2390  0.1660  0.2864
20075W        W35692   8.422   3.213  15.068 -0.1408  0.2364 -0.0164
20076W        W35693   3.516   6.234   5.214 -0.2446  0.1398  0.0736
20077W        W35694  11.771   5.795   2.318  0.3719  0.1794 -0.5119
20078W        W35695   4.563  17.782   3.487 -0.0343  0.1320 -0.0957
20079W        W35696  15.260   8.947   5.016  0.2040 -0.0550 -0.0544
20080W        W35697   1.417   4.004   2.098  0.0355  0.2270  0.0591
20081W        W35698   6.937  15.299  13.952 -0.1787  0.0669  0.1590
20082W        W35699   5.051   5.563   3.697 -0.0615 -0.0988 -0.0092
20083W        W35700   0.698   3.716  16.764 -0.2373 -0.2065 -0.1695
20084W        W35701   5.813  15.273  11.823 -0.0861  0.3367  0.1429
20085W        W35702   0.398   8.025   5.155 -0.0419  0.0649  0.1367
20086W        W35703   6.629   1.218   5.086 -0.0954 -0.0429 -0.3173
20087W        W35704  13.386  17.682  14.314 -0.2513  0.1139 -0.0231
20088W        W35705  16.785   0.320   5.018 -0.1050 -0.1589 -0.3013
20089W        W35706   1.621   8.069   5.675 -0.2439  0.0785  0.1446
20090W        W35707  17.103  17.372   0.686 -0.1564 -0.1253  0.0477
20091W        W35708  16.764  11.123  15.749  0.1107 -0.3633 -0.1495
20092W        W35709   7.436  15.958   1.904 -0.3225 -0.3688 -0.0939
20093W        W35710   5.622  14.448   0.294 -0.0746 -0.2020  0.2976
20094W        W35711  11.255  14.749   5.058 -0.2227  0.0712 -0.1090
20095W        W35712   5.069   1.841  15.635  0.0556  0.5089  0.0948
20096W        W35713   0.378  17.808   2.730  0.0607 -0.0255  0.1146
20097W        W35714   9.296  16.754   4.057 -0.0739  0.1000  0.0118
20098W        W35715  17.677  12.156  16.260  0.3523  0.0958 -0.0067
20099W        W35716  12.382   5.790   0.435 -0.1237 -0.0142  0.2341
20100W        W35717  12.773  15.473  14.379 -0.1156  0.3342  0.0196
20101W        W35718   8.021   9.295  13.576  0.0490 -0.0823 -0.1764
20102W        W35719   9.208   2.510  14.159  0.1116 -0.3823  0.0638
20103W        W35720  12.529  17.558  14.917  0.0735 -0.1232  0.0660
20104W        W35721   4.804  12.978   2.904  0.1139  0.0689 -0.1281
20105W        W35722   4.137   3.451  16.508  0.0240  0.1303  0.0824
20106W        W35723   2.890   5.363   4.690 -0.2927 -0.0065 -0.0578
20107W        W35724   1.182   1.507   2.516  0.1044  0.2054  0.0133
20108W        W35725  10.322  13.239  12.157 -0.3635  0.2376 -0.3267
20109W        W35726  10.854  14.437   3.450  0.3329 -0.1449  0.2860
20110W        W35727  16.940   0.188  16.252 -0.1594  0.1271  0.0185
20111W        W35728   0.504   8.525  13.984  0.0797 -0.0016  0.0186
20112W        W35729   2.547   9.513   3.104 -0.0391 -0.0461 -0.0196
20113W        W35730   2.593   1.915   0.523 -0.0985  0.3157 -0.2752
20114W        W35731  16.045  13.249   2.035  0.3223 -0.0559  0.0713
20115W        W35732  15.277  15.317   1.897 -0.0139  0.2340 -0.1405
20116W        W35733  14.829   1.488  12.260 -0.0970  0.1570 -0.0868
20117W        W35734   0.091  17.647  16.589  0.1989  0.1720 -0.2385
20118W        W35735   3.971   3.988  15.806 -0.1284  0.3762  0.0438
20119W        W35736  14.149  13.713  16.590 -0.2285  0.1463 -0.1857
20120W        W35737   5.157   4.183   2.721  0.3065 -0.4357 -0.2470
20121W        W35738   5.433  12.267   4.843 -0.3379 -0.0995 -0.0065
20122W        W35739  16.595   8.934   4.647 -0.0673 -0.2101 -0.0650
20123W        W35740  14.971  11.056  15.906  0.1041 -0.0408 -0.3040
20124W        W35741   6.536   3.018  12.370 -0.1511 -0.2668 -0.1549
20125W        W35742  15.761  10.735  13.727 -0.1649 -0.1382 -0.0066
20126W        W35743   1.985   3.810   3.895  0.0583  0.0152 -0.0037
20127W        W35744   4.162  10.353  11.594 -0.1440  0.2273 -0.2687
20128W        W35745   3.689  16.591  11.998  0.0793 -0.1241 -0.0325
20129W        W35746  14.111  11.868  15.512 -0.4064  0.1521 -0.2378
20130W        W35747   1.502  14.871   3.399  0.3016  0.1431 -0.1446
20131W        W35748   8.724   0.499  16.745  0.0111 -0.0282  0.0580
20132W        W35749   3.128  12.232   4.001 -0.0301  0.3121 -0.0789
20133W        W35750   0.369   6.957   3.450  0.2308  0.2161  0.0820
20134W        W35751   7.247   6.104  15.752 -0.0333  0.0616 -0.0016
20135W        W35752  10.684   3.856   4.420 -0.0087  0.0094 -0.2273
20136W        W35753   0.576   8.248   2.830 -0.0483  0.2015  0.0259
20137W        W35754   2.457  13.359  11.497  0.1788 -0.3513  0.0765
20138W        W35755  14.263  10.839   2.516  0.2076  0.4830 -0.1689
20139W        W35756   4.096  14.269   1.279 -0.3542  0.3000 -0.1361
20140W        W35757   9.370  17.414  16.315 -0.0518  0.0849  0.1811
20141W        W35758  13.559  14.994   1.826  0.0485 -0.1590 -0.1334
20142W        W35759   7.358   7.486   4.811 -0.0386  0.0013  0.1615
20143W        W35760   5.851  14.079  15.060  0.2338  0.0400 -0.0046
20144W        W35761  13.769   6.030   2.981 -0.1045 -0.2243  0.0902
20145W        W35762  17.585  10.862  14.637  0.1361 -0.2050 -0.1363
20146W        W35763  10.711   9.570  13.440  0.1435 -0.0278 -0.1669
20147W        W35764  17.293   9.455   1.676  0.0817  0.1025  0.1140
20148W        W35765  15.296  16.899  11.481 -0.0480  0.1504  0.1239
20149W        W35766  13.815  16.445   0.391 -0.0424  0.1657  0.2367
20150W        W35767   4.117  16.657   2.196  0.2627  0.1994 -0.1781
20151W        W35768   4.706  14.759   0.363  0.1453  0.0905  0.0892
20152W        W35769   5.462   5.276   3.571  0.0209  0.1995  0.2927
20153W        W35770   5.214  11.618   1.929 -0.1751  0.0640  0.0733
20154W        W35771   0.407  14.670  11.064  0.0284  0.1271  0.1552
20155W        W35772   9.422   2.687   1.964 -0.1248  0.0816 -0.0983
20156W        W35773   0.845   0.339   1.511  0.1715 -0.2200  0.1737
20157W        W35774  16.673   6.146   3.789 -0.0815  0.1626 -0.4107
20158W        W35775  12.838  13.927  11.840  0.0604  0.1770  0.0330
20159W        W35776   5.961   5.860   0.958 -0.1820 -0.0503 -0.1024
20160W        W35777  11.650  10.213   1.980  0.1809  0.0423  0.0986
20161W        W35778  13.673  16.421  15.671  0.3140 -0.1607  0.4438
20162W        W35779  11.174  15.117  15.781  0.0971  0.1250  0.0747
20163W        W35780  15.562   9.835   0.342  0.1270  0.1398  0.0985
20164W        W35781   6.000   0.170  16.577 -0.3175 -0.2233 -0.0354
20165W        W35782   2.792   9.684   1.336 -0.2462 -0.1302 -0.1735
20166W        W35783   9.161   0.909   4.568  0.0831 -0.3038  0.1380
20167W        W35784   7.557  12.156  15.509  0.0146 -0.0905 -0.3217
20168W        W35785   1.053   6.510  15.966 -0.3265  0.0969 -0.0951
20169W        W35786  15.551   4.808  14.410  0.0959  0.1593 -0.4788
20170W        W35787   5.316   8.590  12.321 -0.3177  0.2005 -0.3276
20171W        W35788  10.168  17.039   0.531  0.1391 -0.4185 -0.1630
20172W        W35789  15.279  12.403  15.895  0.1685  0.2189  0.1280
20173W        W35790   0.593  12.895  13.947  0.2874 -0.0176  0.0473
20174W        W35791   5.819   2.339   3.587  0.1307  0.0097 -0.1454
20175W        W35792   8.306   7.541   0.876 -0.0032 -0.1728 -0.3252
20176W        W35793  15.848  14.947  11.852 -0.1086  0.1669  0.2997
20177W        W35794   0.535   6.778   1.473 -0.0623 -0.1029  0.0987
20178W        W35795  17.570  16.781  16.320 -0.0774 -0.1799  0.2056
20179W        W35796  11.254   0.244   2.337  0.1230 -0.3270 -0.3083
20180W        W35797   3.068   5.942  12.067 -0.2126 -0.4229 -0.0771
20181W        W35798   2.690   3.780   2.355 -0.0938 -0.1902 -0.1774
20182W        W35799   6.321   6.712  11.133  0.1137 -0.0042  0.0638
20183W        W35800  16.914   6.957  16.150  0.1867 -0.0290 -0.0073
20184W        W35801  10.545  14.001   6.040 -0.6960  0.0858 -0.1848
20185W        W35802   8.145   2.584   2.299  0.0191 -0.0347  0.0963
20186W        W35803  15.925   7.725  12.792 -0.1432  0.2854  0.4041
20187W        W35804   6.187  14.984  16.560  0.0883 -0.2364 -0.0781
20188W        W35805   2.191   9.152   1.826 -0.1887  0.2758 -0.1258
20189W        W35806  13.636   2.319  13.281 -0.1579 -0.0948  0.0622
20190W        W35807   3.468  12.721   1.742  0.2414  0.1950  0.3584
20191W        W35808   6.355   6.423   6.083 -0.0693  0.2506  0.0308
20192W        W35809  14.476   4.104  15.846 -0.2265 -0.0330  0.1206
20193W        W35810  11.284  10.323   5.293 -0.1265 -0.3836  0.0298
20194W        W35811   5.579  17.562   3.059 -0.0345  0.0603 -0.1987
20195W        W35812   4.675  15.695  16.151 -0.1193 -0.2051  0.0652
20196W        W35813   0.652  12.362   5.322 -0.2925 -0.1190 -0.0962
20197W        W35814  11.101   5.453   4.503  0.0914 -0.3203 -0.1465
20198W        W35815  17.768   2.447  13.523 -0.2353  0.0285 -0.1133
20199W        W35816   3.127   9.134  13.174  0.0879  0.1350  0.2731
20200W        W35817  11.477  10.581   4.098 -0.2272 -0.0373 -0.2728
20201W        W35818   0.439   3.858   2.961 -0.0468 -0.0243  0.0184
20202W        W35819   8.341  13.948   2.784  0.2623  0.1660 -0.1348
20203W        W35820  16.357  17.578   0.254 -0.1058  0.1521  0.0942
20204W        W35821   6.986   4.838   4.939  0.2806 -0.0722  0.0126
20205W        W35822  15.785  13.169  16.497  0.2212 -0.1707 -0.3164
20206W        W35823   5.517  15.120  14.091  0.1823  0.0123  0.1638
20207W        W35824   7.031   2.330  15.688  0.1923  0.0155 -0.2251
20208W        W35825   4.072  17.112   2.398 -0.3051  0.0007 -0.1375
20209W        W35826  16.992   7.798   2.827 -0.0287  0.0946 -0.0830
20210W        W35827  11.084   2.986  14.900  0.1247 -0.1126 -0.1166
20211W        W35828   6.543  16.641   6.099  0.0406 -0.2814 -0.2722
20212W        W35829   0.960   9.478   5.317  0.1915  0.0655  0.0037
20213W        W35830   2.114   0.451  13.443  0.1091 -0.0806  0.2106
20214W        W35831   4.156  10.178   1.420  0.0760 -0.1465  0.1564
20215W        W35832   9.893   1.609   2.415  0.2143  0.2178 -0.1740
20216W        W35833   1.944   8.442   5.370 -0.1885 -0.1795 -0.3687
20217W        W35834  15.572   4.391  16.620 -0.0593 -0.2675  0.2285
20218W        W35835  16.746   9.168   2.609 -0.3141  0.1295  0.1241
20219W        W35836  14.802  12.693   5.565  0.1275 -0.0650  0.0947
20220W        W35837   8.208  11.602   4.927 -0.0046  0.1943  0.0920
20221W        W35838   6.556   8.061   3.397  0.2786  0.0525 -0.4412
20222W        W35839  13.426   6.122   3.735  0.1579 -0.0203  0.1965
20223W        W35840   1.234  14.627  11.811 -0.0029 -0.2795 -0.1690
20224W        W35841  12.338   1.647  11.685 -0.2821  0.0972 -0.2498
20225W        W35842   0.215   8.220   0.731  0.2213 -0.0265 -0.2413
20226W        W35843   3.072  11.747   5.293  0.2963  0.1715  0.0367
20227W        W35844  10.444   1.836  14.642 -0.4192 -0.2312  0.1907
20228W        W35845   7.892  17.498  14.405 -0.0208 -0.2732  0.0792
20229W        W35846  15.571   6.208  15.235  0.0920 -0.3066  0.1368
20230W        W35847   9.729   3.469  10.690  0.1254 -0.0778  0.0197
20231W        W35848  11.138   9.705   4.242 -0.2850 -0.1445 -0.1121
20232W        W35849  13.336   3.368  11.814 -0.0644 -0.0404  0.0469
20233W        W35850  16.098   6.608  15.900 -0.0141  0.0273  0.0781
20234W        W35851   6.794  10.266  16.428  0.1130 -0.2081 -0.2222
20235W        W35852  10.115  13.325   4.114 -0.0516 -0.1561  0.0306
20236W        W35853  16.219   9.903   6.260 -0.0576  0.0578  0.1673
20237W        W35854   2.134   1.502   2.782  0.0117 -0.3498 -0.0117
20238W        W35855   0.762  10.924   5.000 -0.0285 -0.0436 -0.2521
20239W        W35856  15.038   1.004   3.652 -0.1530 -0.1308  0.1585
20240W        W35857   5.695   9.188  16.475 -0.0119 -0.2136  0.0065
20241W        W35858   0.518   9.435  12.074 -0.1248 -0.0363 -0.0168
20242W        W35859   5.141  17.257  16.053  0.3230  0.0180 -0.0334
20243W        W35860  12.818   2.006   2.412 -0.0598  0.0503  0.3783
20244W        W35861   5.149  11.390   2.402 -0.1141 -0.2282  0.1886
20245W        W35862  16.400  11.766  12.232 -0.0324  0.0906  0.1308
20246W        W35863  11.804  11.040   2.374 -0.1543  0.0196 -0.2669
20247W        W35864  14.613  10.163   0.090  0.0023 -0.0265  0.0347
20248W        W35865   8.466  17.508  13.548  0.0758 -0.1384  0.1923
20249W        W35866   9.741   7.647   4.514  0.2332 -0.3196 -0.0469
20250W        W35867   0.112   9.239   4.798  0.0849  0.0217 -0.2782
20251W        W35868   3.593  17.861   3.634  0.2702 -0.0272 -0.1125
20252W        W35869   2.729  16.635   1.279  0.0035  0.0026  0.0071
20253W        W35870   3.834   4.517  14.636  0.5167  0.3437 -0.1605
20254W        W35871   2.178   6.266   3.103  0.3650 -0.3449  0.0994
20255W        W35872   1.603  17.331  15.137 -0.0464 -0.2078  0.0973
20256W        W35873  16.823   0.083   1.859 -0.0029  0.0174  0.0747
20257W        W35874   9.641   9.489  13.045 -0.0150  0.0089 -0.1247
20258W        W35875   0.276  16.471  13.093  0.0743  0.0034 -0.1662
20259W        W35876   3.400   7.658   2.658 -0.0892 -0.1878  0.1272
20260W        W35877   4.978  11.120   1.865  0.3315 -0.1688  0.2518
20261W        W35878  14.772   5.463  16.684  0.0252  0.1418 -0.0391
20262W        W35879  12.660   2.459  13.189  0.1780  0.0457  0.1835
20263W        W35880   1.723   3.899  13.641 -0.3863  0.2237 -0.1780
20264W        W35881   6.125   6.105  15.016  0.1723  0.0015 -0.2497
20265W        W35882   5.449   0.793  14.592 -0.0786 -0.0561  0.1023
20266W        W35883   5.832   4.492  14.120  0.0553 -0.1970  0.0228
20267W        W35884   9.458  17.245  11.344  0.0421 -0.0952 -0.2639
20268W        W35885   3.343   6.357  16.035 -0.2457  0.2534  0.2315
20269W        W35886   5.400   7.600  13.217  0.0929  0.1904  0.1208
20270W        W35887  12.093  10.771  12.948 -0.1368  0.2166 -0.0688
20271W        W35888  15.704  15.256   2.716  0.1546 -0.0490 -0.1734
20272W        W35889  14.213  11.699   4.794 -0.2652 -0.2160  0.1302
20273W        W35890  17.492   8.715  14.825 -0.3327 -0.0752 -0.0462
20274W        W35891   2.629   6.775   3.606 -0.0885 -0.1500 -0.1887
20275W        W35892   0.527  10.701  12.011 -0.1225  0.0956 -0.2347
20276W        W35893   0.919   0.848  14.194  0.1884 -0.1462 -0.3285
20277W        W35894  14.735  12.989   5.204  0.1699  0.1196  0.3092
20278W        W35895  14.872  13.236  16.771  0.2242  0.0352 -0.3192
20279W        W35896   5.722   4.763   3.246  0.3098  0.0286 -0.1082
20280W        W35897  13.480  13.775  14.296 -0.0221  0.0837  0.0400
20281W        W35898  10.006   4.571  12.509  0.2575 -0.2196  0.1025
20282W        W35899   5.417  12.912   4.161 -0.0480 -0.3356  0.3306
20283W        W35900   9.560   9.244   3.289 -0.0641 -0.1538  0.1817
20284W        W35901  14.200  11.715  13.030 -0.1077 -0.0197  0.3075
20285W        W35902   7.829  15.630  15.389  0.1930 -0.0115 -0.0242
20286W        W35903   9.153  17.039   4.517 -0.1303  0.5265  0.2648
20287W        W35904   9.878   8.579   2.267 -0.0753 -0.0341 -0.0588
20288W        W35905   6.955   9.354   3.195 -0.0349  0.2046  0.0319
20289W        W35906   1.790   2.219   2.368 -0.0815 -0.1563 -0.2864
20290W        W35907  13.191   8.620  13.933  0.1153  0.0118 -0.0627
20291W        W35908   6.236  12.589   4.180 -0.0875  0.0761  0.1150
20292W        W35909   9.468   5.542  14.544 -0.2845 -0.0100 -0.0528
20293W        W35910   1.774  12.286   0.800  0.2482  0.0161  0.2278
20294W        W35911  16.651  15.795   3.481  0.1114 -0.0131 -0.3195
20295W        W35912   8.841   0.631  15.533 -0.0053  0.1000 -0.4348
20296W        W35913   7.964   0.472  15.467  0.3205  0.1499 -0.2824
20297W        W35914  13.827   3.661  13.434 -0.1094  0.1208  0.4571
20298W        W35915  11.762   1.198  13.744 -0.3664 -0.1046 -0.2470
20299W        W35916  17.206  14.117  11.609  0.0878  0.1829  0.2637
20300W        W35917   8.806  17.824   5.787 -0.4358  0.0845  0.1425
20301W        W35918   5.274  17.759  16.039  0.0285 -0.3093  0.0839
20302W        W35919  13.367  11.670   1.741  0.2424 -0.3332 -0.0898
20303W        W35920   6.602   1.973  12.034 -0.3694 -0.4069  0.2296
20304W        W35921  10.345   3.834   1.153  0.0800 -0.3292  0.0156
20305W        W35922  10.893   4.561   4.918 -0.0420 -0.0190  0.0148
20306W        W35923  15.665  13.533  15.107 -0.0771  0.1046  0.0921
20307W        W35924   7.631   2.311  16.312 -0.1128 -0.3010  0.1310
20308W        W35925   1.693   6.485  14.881  0.1727  0.0781 -0.0215
20309W        W35926   3.707   2.676   2.764 -0.2614  0.0783 -0.0344
20310W        W35927  16.024  14.306   1.760 -0.1256 -0.0354  0.2279
20311W        W35928   8.160   1.688  13.948  0.2641  0.2609  0.0546
20312W        W35929   5.295  13.251   1.523  0.4241  0.2565  0.0476
20313W        W35930   9.890   3.346  11.970  0.1112 -0.0465 -0.0639
20314W        W35931   1.763  12.903  12.565 -0.0504 -0.1590 -0.0543
20315W        W35932   1.049  17.742   0.705  0.0200  0.4436 -0.0142
20316W        W35933   1.276  16.301   1.179  0.0074  0.1282 -0.3611
20317W        W35934  11.768   4.179   0.266  0.0634  0.2354  0.0581
20318W        W35935   9.156  16.230   3.911 -0.0730 -0.1841 -0.0515
20319W        W35936   3.837   4.578  12.309 -0.2052 -0.0314  0.1342
20320W        W35937   0.281  16.107   2.612  0.2403  0.0307 -0.1103
20321W        W35938  17.420  15.547   2.494  0.0867  0.2491  0.2865
20322W        W35939   8.630  13.434   4.112 -0.1052  0.1835 -0.1670
20323W        W35940  14.347   2.981   1.496 -0.0484  0.1925  0.0377
20324W        W35941  17.473  16.553   2.776  0.1205 -0.1049  0.0204
20325W        W35942   0.026  12.852   3.943  0.1000 -0.2136 -0.0527
20326W        W35943   9.003   4.327  12.032 -0.1991  0.3042 -0.2331
20327W        W35944   2.156  11.730   2.373 -0.1233 -0.1180  0.1846
20328W        W35945   3.073  13.225   2.392  0.4099  0.0228 -0.1990
20329W        W35946   0.212  16.104   5.388 -0.1289 -0.2357 -0.0835
20330W        W35947   2.199  16.313   0.686  0.2233 -0.1333 -0.1902
20331W        W35948  13.736   1.904  13.576  0.2937  0.1551  0.0539
20332W        W35949   5.700  10.281   5.102 -0.3264 -0.3225  0.2124
20333W        W35950   9.619   3.747  12.179  0.0512  0.1579 -0.0939
20334W        W35951  13.841   2.786  13.473 -0.1266 -0.1343  0.0423
20335W        W35952   2.192  17.447   1.503 -0.1517 -0.2282 -0.1394
20336W        W35953  14.276  12.840   1.060  0.1367  0.2367  0.0131
20337W        W35954   1.346  17.163  14.684  0.0785 -0.0254 -0.0982
20338W        W35955  11.578   2.966  13.542  0.1820  0.4791 -0.2292
20339W        W35956  17.802  12.208   0.264  0.1544 -0.0911  0.2895
20340W        W35957  13.698   6.759  15.368 -0.1682 -0.1500  0.1581
20341W        W35958   3.526  10.422   2.810 -0.2254 -0.0596 -0.5550
20342W        W35959  16.453   0.195  15.609 -0.0533 -0.0635  0.1026
20343W        W35960   1.031   8.811  15.288 -0.0326 -0.0193 -0.1210
20344W        W35961  13.361   1.443   4.659 -0.1104 -0.1168 -0.1462
20345W        W35962   0.473   6.139   2.493 -0.2199 -0.0240  0.0204
20346W        W35963   4.127  13.147   1.952  0.2427  0.0406  0.5407
20347W        W35964   4.769   6.523  11.428 -0.2020  0.1087 -0.1319
20348W        W35965  12.662   6.158   0.687  0.0385 -0.2733  0.2166
20349W        W35966   2.570   0.795  15.878 -0.2193  0.1742  0.1885
20350W        W35967   6.036  13.138  12.706  0.0074  0.0239  0.1252
20351W        W35968   8.264  15.007  16.746 -0.1076  0.1903 -0.2966
20352W        W35969  15.472   7.657   0.551 -0.1223 -0.2488  0.0499
20353W        W35970   2.015   0.092  15.957  0.0588  0.0092  0.0835
20354W        W35971   6.177  16.746  14.963 -0.1371  0.0675 -0.4046
20355W        W35972   5.325  14.334   0.732 -0.3090  0.1953 -0.1553
20356W        W35973   0.343   4.057  12.137  0.1326  0.1244 -0.1418
20357W        W35974  14.764  10.592  12.676  0.0550 -0.0487 -0.1153
20358W        W35975   0.059  14.430  12.477 -0.0450 -0.1150 -0.0051
20359W        W35976  17.792   5.716  15.612  0.2432 -0.1726  0.0224
20360W        W35977  12.240  16.565   2.734  0.3957 -0.0855  0.1661
20361W        W35978  12.973  16.348  12.702  0.1112 -0.0948  0.1284
20362W        W35979   6.186   7.649  14.378 -0.1624 -0.1684 -0.0992
20363W        W35980  12.128   5.384  16.307 -0.0385 -0.2578 -0.2020
20364W        W35981  13.841  13.379  10.476 -0.0120  0.2634 -0.1205
20365W        W35982   9.301   6.422   6.412 -0.2139 -0.0133 -0.1348
20366W        W35983  10.317   7.313   2.289 -0.2122  0.1591  0.0637
20367W        W35984   0.471   4.703   3.610 -0.1959 -0.0277 -0.1770
20368W        W35985   0.462   3.823  14.223 -0.2815  0.2816 -0.0323
20369W        W35986  14.375  10.104   4.144 -0.0042  0.0694 -0.3324
20370W        W35987  10.135  16.786   4.605  0.0825 -0.3512  0.3523
20371W        W35988   6.101   2.411   2.570  0.1341 -0.2928 -0.1845
20372W        W35989  16.497   7.708   5.374  0.0481  0.0828  0.3013
20373W        W35990  15.006   5.995  14.543  0.3355 -0.0916  0.1302
20374W        W35991  15.983   5.744  14.493 -0.1179  0.0508  0.0368
20375W        W35992   1.572  10.537   6.430 -0.3427 -0.0937 -0.2524
20376W        W35993   9.075   6.193  15.951 -0.0979  0.3849  0.2741
20377W        W35994  12.431   2.117   2.106  0.3832  0.0117 -0.0018
20378W        W35995  14.762   6.267   5.803 -0.1669  0.0621  0.5718
20379W        W35996  17.405  17.248  14.574 -0.0331 -0.0840 -0.1157
20380W        W35997   5.450   8.709   1.302  0.2818  0.1021 -0.2372
20381W        W35998  15.817  17.477   2.246  0.4392 -0.1520 -0.1121
20382W        W35999  14.572   7.984   5.769  0.3509  0.1124  0.1544
20383W        W36000  15.214  15.225   5.673 -0.1074 -0.3622  0.2609
20384W        W36001  15.316   0.823  12.425 -0.0786  0.3073  0.3088
20385W        W36002   9.921   1.113  12.431 -0.2479  0.0106  0.1421
20386W        W36003  10.212  14.389   0.814 -0.0128  0.1668 -0.1133
20387W        W36004   2.640   2.520  16.729 -0.1673 -0.0756 -0.1557
20388W        W36005   9.244  14.503   5.286  0.0837  0.2047 -0.0705
20389W        W36006  14.744  14.339   5.217 -0.0606 -0.1937  0.1156
20390W        W36007   4.684  13.504  11.213 -0.2362 -0.1247  0.2778
20391W        W36008   9.639   2.226   3.980  0.2327 -0.2477  0.1199
20392W        W36009   6.526   6.827   5.054  0.2418  0.1182 -0.0981
20393W        W36010   6.047  10.081   4.836 -0.2732  0.0580 -0.1995
20394W        W36011  13.397   4.632  11.118 -0.2465  0.0134  0.2453
20395W        W36012   9.773   4.321   3.943 -0.1233 -0.2662 -0.1760
20396W        W36013  15.219   9.702  15.482  0.0791  0.1804 -0.1985
20397W        W36014  17.600   2.423  15.307  0.2952 -0.2085 -0.0060
20398W        W36015  16.561   2.849  16.394 -0.1293  0.1000 -0.1456
20399W        W36016   0.138  17.337   0.694  0.1514  0.0213 -0.0539
20400W        W36017  14.721   4.171  14.181  0.5103  0.1484 -0.1039
20401W        W36018   0.686   6.007  16.612 -0.1315  0.0018 -0.0389
20402W        W36019   3.679  11.918   0.309  0.1463 -0.0931  0.1828
20403W        W36020  14.514   2.999   0.920  0.1020  0.1922 -0.1296
20404W        W36021   2.238   8.848  16.679  0.1353  0.1265  0.0605
20405W        W36022   1.317   6.071  15.666  0.0062  0.0007  0.4194
20406W        W36023  10.540  12.888   0.783 -0.1429  0.1103 -0.0254
20407W        W36024   6.531  16.548  14.167 -0.0242  0.2731  0.1991
20408W        W36025   9.864  16.559   4.980 -0.0744  0.1629 -0.0139
20409W        W36026  12.684   4.936  14.909  0.0742 -0.2934 -0.1614
20410W        W36027  10.390  17.380   3.243 -0.1187  0.0804  0.0384
20411W        W36028   4.682  16.197   2.999 -0.0048 -0.1079  0.1596
20412W        W36029  10.306  10.127   1.596 -0.1025  0.2706 -0.0353
20413W        W36030   4.765  11.204   5.366 -0.2088 -0.3837 -0.2289
20414W        W36031  13.897   9.610   2.737  0.1086  0.1316 -0.0015
20415W        W36032  13.585   5.072  11.777 -0.0604 -0.1179 -0.0018
20416W        W36033  12.225   0.717   1.543  0.0382 -0.1170 -0.1822
20417W        W36034  14.427  12.311  11.433  0.2685 -0.1678  0.1894
20418W        W36035   9.054  13.569  11.675 -0.1107 -0.2252 -0.5464
20419W        W36036  16.290  10.418  16.247 -0.0657 -0.0629  0.1576
20420W        W36037   9.430  10.753  15.945  0.0107  0.2760 -0.2870
20421W        W36038   8.612   5.961  13.074  0.0388  0.1419 -0.0100
20422W        W36039  17.198   8.042   6.025 -0.1093  0.1313  0.0601
20423W        W36040  16.596  10.005   3.507  0.2871 -0.1545  0.2199
20424W        W36041  15.850  10.786   0.124  0.1041 -0.0738  0.1945
20425W        W36042   3.826   3.616   2.157 -0.1121 -0.1985  0.0411
20426W        W36043   0.705   2.347   5.047  0.2213  0.0657 -0.2263
20427W        W36044  11.104   2.922   0.691 -0.4472 -0.2602 -0.2630
20428W        W36045   6.205   4.845   1.647  0.1969  0.0589 -0.0342
20429W        W36046  12.242   8.892   4.473  0.0949 -0.0143 -0.0328
20430W        W36047  11.850   4.940   4.593 -0.3926 -0.0101  0.1215
20431W        W36048   2.510   7.035  12.932 -0.1038  0.2298  0.1342
20432W        W36049  14.406   6.400   2.581 -0.0177 -0.2439 -0.1576
20433W        W36050  13.765  15.382   0.518  0.0213  0.2177  0.3220
20434W        W36051  10.690  15.301  15.713 -0.0646 -0.1287 -0.1494
20435W        W36052   3.776   6.362   2.453  0.2620  0.2961 -0.1645
20436W        W36053   3.613  13.023   2.198  0.3101  0.1579  0.1599
20437W        W36054   8.248   9.992  14.436 -0.0720  0.0991 -0.0715
20438W        W36055   6.522  17.860  16.826  0.1008  0.2368  0.3550
20439W        W36056  10.133   8.786  16.608 -0.0328 -0.1984 -0.0720
20440W        W36057  13.057   5.779   2.847 -0.0005  0.0700  0.0191
20441W        W36058   1.103   6.032   0.046 -0.0594  0.1871  0.2698
20442W        W36059   4.952   0.614  16.003 -0.0879  0.0175 -0.1635
20443W        W36060  14.070   1.862   2.875  0.0288 -0.0947  0.0565
20444W        W36061   2.672  17.087   4.294  0.0506  0.0733  0.1605
20445W        W36062   0.449  16.811   5.814 -0.1532 -0.4979  0.0061
20446W        W36063  15.654  15.379   4.368  0.1123 -0.1261 -0.2484
20447W        W36064   9.076  12.031  13.597  0.1568  0.1677 -0.2255
20448W        W36065   6.872   1.739  12.670 -0.1787  0.2333  0.2407
20449W        W36066   3.760   4.438  12.908 -0.1790 -0.0929  0.0885
20450W        W36067   2.346  12.590   6.441 -0.0252 -0.0847 -0.1474
20451W        W36068  11.403   3.720  13.339  0.0048  0.0166 -0.0410
20452W        W36069   2.119   6.239  13.264 -0.3324  0.0738  0.1939
20453W        W36070   7.959   2.946   3.085 -0.1834  0.5742  0.1095
20454W        W36071  10.396  11.347  14.400  0.0278 -0.1392 -0.0810
20455W        W36072   7.121   7.908  12.962 -0.0436  0.0585 -0.3893
20456W        W36073  13.856   0.068   4.756  0.0590 -0.1672  0.0515
20457W        W36074   8.295   3.808   3.483 -0.0120  0.1642  0.2485
20458W        W36075   9.160  11.110   0.783 -0.0314 -0.0030 -0.1867
20459W        W36076  11.558   0.685  16.724  0.0514 -0.0324  0.0885
20460W        W36077  15.422  13.656  12.641 -0.0997 -0.1252  0.0286
20461W        W36078   6.215  13.865   1.263  0.1001  0.1900 -0.0653
20462W        W36079   0.722   4.098  15.174 -0.0126 -0.2711 -0.2259
20463W        W36080   1.032  10.190  14.456 -0.0818 -0.1760  0.0923
20464W        W36081   8.077   5.621  13.422  0.2886  0.0973  0.0884
20465W        W36082  12.081  13.173   1.839 -0.0997 -0.0771 -0.3223
20466W        W36083  12.834   7.343  14.975 -0.1874 -0.0431  0.3074
20467W        W36084  17.266  16.397  15.281  0.0902 -0.0308 -0.2113
20468W        W36085  14.452  17.723  12.658 -0.1252 -0.0235  0.2281
20469W        W36086  16.271  16.951  15.807  0.0211  0.2833 -0.1178
20470W        W36087  15.842  12.690   1.988  0.1474 -0.0147 -0.3321
20471W        W36088   8.255  13.864   1.864  0.0464  0.2851 -0.1981
20472W        W36089   3.447  15.662   3.037 -0.1735 -0.0229 -0.0842
20473W        W36090  12.788  16.526  14.055  0.0304  0.1321 -0.0530
20474W        W36091   8.368  15.078   4.718  0.0960  0.0428 -0.2313
20475W        W36092   8.099   4.518  12.496  0.1627 -0.2042 -0.1888
20476W        W36093  14.373  16.319   0.314  0.0779  0.3021  0.0376
20477W        W36094   2.080  10.802   3.157  0.1197  0.0131 -0.0278
20478W        W36095   1.198  14.793  13.044  0.1270 -0.1876  0.0672
20479W        W36096   3.687   6.454   6.225 -0.1950 -0.0574  0.1382
20480W        W36097   6.987  17.302   5.771 -0.3003 -0.0138 -0.1052
20481W        W36098  15.769  17.532  15.596  0.1485 -0.2169  0.0260
20482W        W36099  16.843  10.076   4.438 -0.0983 -0.1102 -0.1977
20483W        W36100  16.684   7.440   3.013  0.1998 -0.0907 -0.2132
20484W        W36101   9.880  11.220  14.457  0.0852  0.1136  0.3886
20485W        W36102   6.969   9.211   5.191 -0.3767 -0.2020  0.0597
20486W        W36103   4.538   9.453   0.995 -0.1180  0.1164  0.0165
20487W        W36104  15.766   4.333  14.034 -0.0466  0.0871  0.1308
20488W        W36105   9.960  11.845  16.772 -0.0624 -0.3643  0.1344
20489W        W36106  11.176   3.160   6.316  0.0267  0.0987 -0.1079
20490W        W36107  12.958   8.491   0.231 -0.1258 -0.1280  0.1681
20491W        W36108   8.075   5.552   0.796 -0.0331  0.2151  0.0796
20492W        W36109  13.187  17.246  12.535 -0.0167  0.0755 -0.2057
20493W        W36110  10.617  15.122  13.978 -0.1049  0.3047  0.0759
20494W        W36111  17.699   8.762   4.216  0.0559  0.1561 -0.0680
20495W        W36112   4.504  12.086  14.214  0.1198 -0.1636 -0.1826
20496W        W36113   1.476  15.046   2.880  0.0237 -0.0934 -0.1951
20497W        W36114   7.995   3.838  11.863  0.0758 -0.1180 -0.0426
20498W        W36115  15.482   1.192   3.351  0.1234 -0.2018 -0.1803
20499W        W36116  15.893  15.051   6.399 -0.2563 -0.0085 -0.1259
20500W        W36117  16.609   4.396   1.122 -0.0773 -0.0450  0.0181
20501W        W36118   5.831  16.816   1.817  0.1770  0.1011  0.0734
20502W        W36119   8.677  10.837   4.537 -0.0721 -0.0506 -0.0260
20503W        W36120   6.487   4.861   5.287  0.0189 -0.0272 -0.0946
20504W        W36121   1.757  15.597   4.633 -0.0599  0.0228 -0.0744
20505W        W36122  13.978  14.877   2.244  0.2235  0.1703 -0.1142
20506W        W36123   3.532   4.065  16.050  0.0075 -0.0364 -0.1458
20507W        W36124  14.617  12.648  11.972  0.0762 -0.1646 -0.1372
20508W        W36125   7.061   3.524  13.434 -0.1577  0.1057  0.2589
20509W        W36126  13.471   3.936   4.596  0.0855  0.0515  0.0087
20510W        W36127   6.018  13.886   5.292 -0.2237 -0.1560  0.0492
20511W        W36128  13.523   1.255  15.546 -0.2109  0.0857  0.1658
20512W        W36129   4.878  12.986   5.608  0.1262 -0.0835 -0.0468
20513W        W36130   9.665   5.098  14.753 -0.3815 -0.0753  0.1117
20514W        W36131   6.533   8.723   0.660  0.2406 -0.1922  0.0514
20515W        W36132  14.446  10.500  14.120 -0.1608 -0.0594  0.0194
20516W        W36133  12.576  13.002   1.848  0.0088 -0.2444  0.0031
20517W        W36134   3.097   9.969  13.732 -0.1827  0.2277  0.0536
20518W        W36135   8.968   6.800   2.247 -0.2026  0.0754  0.0198
20519W        W36136  15.455  14.557   4.933 -0.2041 -0.4262  0.1635
20520W        W36137  15.747   3.129  14.911 -0.0750  0.2664 -0.0999
20521W        W36138   7.069   6.104  14.845  0.0958 -0.1787  0.1055
20522W        W36139   9.813   4.709  13.140 -0.3133  0.4494 -0.1311
20523W        W36140  15.675   9.503   5.680  0.4121  0.1061  0.1921
20524W        W36141   3.172  11.135  11.373 -0.1140  0.0147 -0.0584
20525W        W36142   0.511  13.629   0.651 -0.0969  0.0169  0.1049
20526W        W36143   2.268   2.698  14.175 -0.2679  0.1655  0.0040
20527W        W36144   9.898  11.558  15.832  0.0406  0.0276  0.1168
20528W        W36145   1.077   3.274   0.648 -0.1386 -0.1674  0.0376
20529W        W36146   2.955   5.783   2.135 -0.0177 -0.3099 -0.2114
20530W        W36147   8.869  16.903   0.023  0.0163  0.2175 -0.0114
20531W        W36148   6.269  14.790  12.803  0.2093 -0.1911 -0.1780
20532W        W36149   1.905  16.408   0.346 -0.1617 -0.2349  0.1079
20533W        W36150   3.828   2.866   1.818  0.1123  0.2192 -0.2623
20534W        W36151   4.007   5.424  16.397  0.0737 -0.0658 -0.2547
20535W        W36152   5.536  17.665  11.963  0.3843 -0.2223  0.0706
20536W        W36153  17.469  11.042  14.211  0.0222 -0.2696 -0.0648
20537W        W36154   8.983   0.163  12.892 -0.2155  0.1602  0.2442
20538W        W36155  15.703  13.527  12.101  0.4293  0.0513  0.1507
20539W        W36156   8.490   4.322  16.351 -0.0163  0.1028 -0.0024
20540W        W36157   4.744   4.569  15.150 -0.1290 -0.1239  0.0641
20541W        W36158  11.373  13.880   1.236 -0.1281  0.0786 -0.3770
20542W        W36159   7.070  17.369  14.301  0.1048 -0.2203  0.0630
20543W        W36160  13.044   0.842   6.048  0.2209  0.2993 -0.1066
20544W        W36161   2.738  17.589   0.032 -0.2131 -0.2325 -0.1459
20545W        W36162   3.501   6.370  11.836  0.1357 -0.0678 -0.2774
20546W        W36163   1.418   8.497  15.134  0.2304  0.2148 -0.1062
20547W        W36164  15.143   6.672  16.058 -0.0179 -0.4876  0.0043
20548W        W36165   2.932  10.072   5.176 -0.0925  0.1076 -0.0365
20549W        W36166   8.897  12.924   1.276  0.0048  0.0426  0.3047
20550W        W36167  14.714   6.527   4.375 -0.2683  0.3223  0.1916
20551W        W36168   7.770  13.585  13.580  0.2383 -0.0740 -0.0430
20552W        W36169  17.123  12.458  13.805  0.3072 -0.1652  0.1043
20553W        W36170   7.809  14.593  16.137 -0.0192 -0.3459 -0.1195
20554W        W36171  13.442  11.127   1.082  0.1625 -0.1345 -0.1174
20555W        W36172  15.447  12.126  12.395  0.0491 -0.0347 -0.2417
20556W        W36173  16.016  11.804  11.088 -0.1058  0.2416  0.3349
20557W        W36174   6.158  11.291   2.804 -0.0870  0.2419 -0.0972
20558W        W36175   3.684  17.560  13.395 -0.0489 -0.0582  0.1599
20559W        W36176  10.295   2.879  15.770 -0.0880  0.0024  0.1107
20560W        W36177  11.330   9.435  12.847  0.2825 -0.1437 -0.3036
20561W        W36178   1.586  16.199   2.014 -0.0048  0.0140 -0.0592
20562W        W36179  16.355  14.585   5.815  0.2988  0.0057 -0.1039
20563W        W36180   9.641  12.387  12.626 -0.1429 -0.2980  0.4644
20564W        W36181   3.398   7.979  11.670  0.0467  0.0211 -0.0782
20565W        W36182   5.866  13.146   1.574  0.0424  0.0280 -0.1490
20566W        W36183  15.709   3.474   1.350 -0.0754 -0.1410  0.0181
20567W        W36184  12.922  11.413  15.601 -0.1991 -0.0166  0.0882
20568W        W36185  16.871   4.765   1.684  0.1469  0.0193 -0.0060
20569W        W36186   2.712   3.796  14.664  0.1306  0.0150  0.3063
20570W        W36187   4.666  13.987  11.359  0.0762 -0.2117  0.3473
20571W        W36188   8.087   1.284   2.221  0.1312  0.3671  0.0984
20572W        W36189   7.368   8.301   0.343  0.3548  0.3685  0.3086
20573W        W36190  16.265   1.954  12.255 -0.2672 -0.0080  0.1972
20574W        W36191   6.167   4.486   4.512  0.1345 -0.1812 -0.1372
20575W        W36192  13.625   1.345  16.473 -0.1145  0.0069 -0.0050
20576W        W36193  13.165  14.462   6.256  0.1156 -0.1674 -0.1545
20577W        W36194  17.023  16.874  14.398  0.0973 -0.0257 -0.0588
20578W        W36195   0.316  17.202  13.651 -0.0287 -0.2082 -0.1239
20579W        W36196  16.449  14.361   0.301 -0.0929 -0.2744  0.0284
20580W        W36197   9.640  13.159   0.576 -0.0435 -0.0991  0.0143
20581W        W36198  10.169   8.671   6.296 -0.3020  0.4760  0.0222
20582W        W36199   7.158  16.042   3.789  0.1892 -0.1481  0.0531
20583W        W36200   8.125  17.440  12.303 -0.0887 -0.3134 -0.1562
20584W        W36201   6.687   1.949  16.597 -0.0987 -0.0140 -0.1594
20585W        W36202   3.357  13.379   3.275  0.1928  0.0665  0.0663
20586W        W36203   4.453   1.491   3.318 -0.3763  0.1911 -0.2398
20587W        W36204   2.926  12.115  12.204  0.2116 -0.0058 -0.1408
20588W        W36205   1.160  15.501   0.921  0.0129 -0.1250  0.0939
20589W        W36206   5.597   9.736  16.442  0.1710  0.2249  0.1163
20590W        W36207   3.033   4.193  13.937 -0.0106 -0.0680  0.0323
20591W        W36208  16.073   4.003  13.203  0.3261 -0.2576  0.1400
20592W        W36209  13.772  12.524   3.555  0.2414 -0.1822 -0.0975
20593W        W36210   3.378   6.622  13.431 -0.3178  0.1441 -0.0976
20594W        W36211   4.703  11.103   1.433 -0.0720 -0.1012 -0.0496
20595W        W36212  10.433   4.757   2.038 -0.4415  0.4237 -0.3344
20596W        W36213   6.519  13.585   2.609  0.1050 -0.1521  0.3539
20597W        W36214   8.383  11.550  16.412 -0.1606  0.0234  0.2531
20598W        W36215   1.305  13.199   0.422  0.2718 -0.2207 -0.0223
20599W        W36216  17.804  16.544  13.998  0.0619  0.0358  0.0496
20600W        W36217   1.105   6.533  13.710 -0.2279 -0.2682  0.3904
20601W        W36218   3.240  15.765  11.835 -0.1896  0.1393  0.1678
20602W        W36219  11.527   2.613   3.109  0.2095 -0.1294 -0.0060
20603W        W36220  13.191  10.397   4.140 -0.1331 -0.4765  0.4145
20604W        W36221   3.572   9.549   1.119 -0.0778 -0.0455 -0.0770
20605W        W36222  17.621   0.616  11.881 -0.1379  0.0525  0.2924
20606W        W36223   9.394  13.599   4.632  0.0699 -0.2648  0.1964
20607W        W36224   1.041   4.015  11.977 -0.3820 -0.0093 -0.1109
20608W        W36225   1.600  14.467   3.679 -0.4221  0.2766  0.0336
20609W        W36226   7.885   3.098   3.657 -0.1992 -0.0330  0.0274
20610W        W36227   6.225  17.624  14.901  0.4490 -0.0613 -0.1297
20611W        W36228  12.488  15.695   0.276  0.1580  0.2475  0.0807
20612W        W36229  10.144   4.291  11.270 -0.0838  0.2122  0.1323
20613W        W36230  12.202  15.330   0.476 -0.0927  0.0819  0.4173
20614W        W36231   8.325  11.136  16.705  0.2321 -0.2391  0.1540
20615W        W36232   0.217  13.532   1.035  0.1156  0.1880 -0.2526
20616W        W36233   9.027   8.573  12.926 -0.2309  0.0077 -0.2351
20617W        W36234  13.631   7.344  16.170  0.0851  0.1470 -0.1485
20618W        W36235  15.149  13.394  12.271 -0.1830 -0.1774 -0.0620
20619W        W36236   3.995   6.661  15.211 -0.2515 -0.0809  0.1287
20620W        W36237   9.170   2.435  13.288 -0.2922  0.1403 -0.0639
20621W        W36238  12.714  16.396   3.655 -0.1035 -0.1375  0.1256
20622W        W36239   6.081  10.918   1.825  0.1733  0.2255  0.1892
20623W        W36240  17.850   7.368   0.296 -0.0472  0.2459  0.1136
20624W        W36241   2.041   1.249   1.418 -0.4599  0.0714 -0.0935
20625W        W36242  14.264  11.218  13.154  0.2943 -0.1424 -0.0387
20626W        W36243   2.098   2.744   3.233  0.0919  0.1384 -0.0014
20627W        W36244   8.371  10.967  14.658  0.0522  0.2866 -0.1171
20628W        W36245   5.241  10.708   2.031 -0.0320 -0.1227 -0.1194
20629W        W36246   2.635  13.845  14.402 -0.0230 -0.1823 -0.0892
20630W        W36247  12.769   5.079  15.396 -0.0817 -0.2651  0.5324
20631W        W36248  16.347  10.765   1.005 -0.1081 -0.0972 -0.1963
20632W        W36249  13.082   7.291   3.766  0.2783  0.3204  0.1668
20633W        W36250  14.675  13.006  14.286  0.3109 -0.1317 -0.2425
20634W        W36251   7.660   5.413   4.809  0.0455 -0.0018 -0.0009
20635W        W36252   9.987  11.390   2.129  0.0273 -0.0601  0.1095
20636W        W36253   5.887   2.873   3.637 -0.1808 -0.0217  0.0634
20637W        W36254   1.650  13.992   5.612  0.1944 -0.2278  0.3971
20638W        W36255   4.219   8.089   0.463  0.0367  0.1247 -0.1609
20639W        W36256   9.162  12.066   1.352  0.1534 -0.0045 -0.0186
20640W        W36257  13.715  11.283   3.015 -0.0184 -0.1743  0.6067
20641W        W36258   2.599   8.475  13.473  0.1360  0.2469 -0.1994
20642W        W36259   6.187  12.495   1.046 -0.0123  0.3836 -0.0289
20643W        W36260  17.592   5.780   0.055 -0.0334  0.1737 -0.2210
20644W        W36261  15.556  16.212  14.088 -0.1877 -0.0013  0.0147
20645W        W36262   3.972   7.344   2.378 -0.2473 -0.0897  0.0926
20646W        W36263   4.668  17.645  12.848 -0.0381  0.4962  0.1000
20647W        W36264   3.267  15.309  15.315  0.1299  0.0722 -0.1127
20648W        W36265   3.442  13.622  13.430  0.1697  0.0955  0.1785
20649W        W36266  15.858   7.465   4.117  0.1162  0.3561  0.0316
20650W        W36267  14.481   7.442   4.413  0.1241 -0.3332 -0.3238
20651W        W36268   8.393   1.252  15.360  0.0620  0.0986 -0.1595
20652W        W36269   3.014   5.917   6.092  0.0653 -0.2770 -0.3640
20653W        W36270   1.649  11.770  13.467  0.1858  0.0309 -0.1911
20654W        W36271   0.557  15.411   2.842 -0.2150 -0.0090  0.3570
20655W        W36272  12.729  15.441   1.921  0.0534 -0.2446  0.0067
20656W        W36273  11.264  14.153   3.361  0.2180  0.1192 -0.1084
20657W        W36274   4.312   8.719  13.065 -0.1177 -0.1558  0.0739
20658W        W36275   5.296  12.995  15.107 -0.1656  0.0653 -0.0482
20659W        W36276   5.490  16.388   3.861 -0.0049  0.1493  0.2920
20660W        W36277  17.169  10.172  14.112 -0.1151  0.1573  0.0865
20661W        W36278   3.601  13.169   5.424  0.0627  0.2190 -0.1344
20662W        W36279   3.120  17.450  11.135  0.0329 -0.1972  0.2672
20663W        W36280   8.192  16.947   3.889  0.0812 -0.2345  0.1533
20664W        W36281  10.927   4.454  16.056  0.0459 -0.0965 -0.3034
20665W        W36282   5.156  17.507   5.373  0.0000  0.2259  0.0059
20666W        W36283   9.097   7.860  11.150  0.2359 -0.2895  0.1208
20667W        W36284   5.642  17.241  10.733 -0.5177  0.1434  0.1955
20668W        W36285  11.328   5.050   0.535 -0.1644 -0.4147 -0.1053
20669W        W36286  16.052  15.732   0.692 -0.0315 -0.3519  0.1701
20670W        W36287  16.860   0.204  15.216  0.1626 -0.0731  0.1836
20671W        W36288   8.453   2.555  14.408 -0.2389 -0.2766 -0.0063
20672W        W36289  11.702   1.618   2.400  0.0991  0.3274  0.2167
20673W        W36290  11.762   9.951  12.696 -0.0049  0.1411  0.0327
20674W        W36291   4.459  12.529   4.859 -0.0703 -0.0217 -0.0720
20675W        W36292  10.819   2.276   1.370  0.2207 -0.0250  0.4858
20676W        W36293   0.153  17.020  11.312  0.2399  0.1207  0.3215
20677W        W36294   4.598  15.274  12.821  0.1450 -0.0695 -0.1459
20678W        W36295  16.910   4.403   3.417  0.0479 -0.0864 -0.0275
20679W        W36296   2.997  15.184   1.301  0.0254 -0.1186 -0.1350
20680W        W36297   6.868   0.398  14.586  0.2643 -0.0269 -0.1977
20681W        W36298  16.933   5.977  15.925 -0.1282  0.0599  0.0718
20682W        W36299  12.727   8.624  15.550 -0.0330  0.2858  0.1890
20683W        W36300   9.636   1.932  12.138 -0.0031 -0.1509 -0.0945
20684W        W36301  14.896  10.309  16.570 -0.2164  0.0836 -0.0095
20685W        W36302   6.335   0.776   5.303 -0.0084  0.1423  0.1200
20686W        W36303   3.326  15.121  11.282  0.2628 -0.3563  0.0140
20687W        W36304   4.280  17.626  15.261  0.0308  0.2046 -0.1341
20688W        W36305  16.217  12.806  11.718 -0.1738  0.2172 -0.1733
20689W        W36306  16.182  11.972   5.411  0.4145  0.0522 -0.1167
20690W        W36307   8.345   0.531   4.940 -0.0675  0.1807 -0.1068
20691W        W36308  13.795  12.908   0.658  0.0193 -0.3195  0.1410
20692W        W36309   9.727   5.350  15.238  0.0156  0.1097 -0.4970
20693W        W36310   8.080  11.705   0.418  0.1499  0.1900 -0.1167
20694W        W36311   7.043   6.944   6.086 -0.3560 -0.1766 -0.0525
20695W        W36312  15.412  10.382   0.367 -0.1678 -0.3146 -0.3856
20696W        W36313   2.733   3.541  14.236  0.0340  0.2453  0.0288
20697W        W36314   5.930   9.082  15.420  0.3685  0.2087  0.2312
20698W        W36315  15.160  16.973   1.766 -0.1457 -0.2242 -0.0516
20699W        W36316   8.842   5.072   2.797  0.0368  0.1256 -0.2564
20700W        W36317   7.755  12.760   3.383 -0.1859 -0.0223  0.0578
20701W        W36318  15.666   0.873  15.269 -0.0193 -0.1337  0.0196
20702W        W36319   8.084   4.605  15.593 -0.0444 -0.0358  0.0197
20703W        W36320   4.552  13.919   4.702 -0.0527 -0.0069 -0.0370
20704W        W36321   9.048   1.776  15.989  0.3419 -0.1194 -0.2155
20705W        W36322   9.445   6.094   3.349 -0.0187  0.0264  0.0218
20706W        W36323   6.162  10.229  12.645 -0.2829  0.1366 -0.0082
20707W        W36324   9.874  17.526   5.771  0.0487  0.1564  0.3311
20708W        W36325   4.666  17.547   2.561 -0.3032  0.1112  0.0708
20709W        W36326   6.994   2.303   5.918  0.2837  0.1294 -0.0369
20710W        W36327   6.461  17.847  12.201  0.1481  0.1984 -0.0494
20711W        W36328  11.001  17.674   2.525  0.0371 -0.0279  0.1589
20712W        W36329   5.976   3.696  13.283  0.3750  0.1314 -0.2955
20713W        W36330  12.700  15.956   1.859  0.0573  0.1960 -0.0226
20714W        W36331   7.965  16.651   0.208  0.2286  0.1439  0.1873
20715W        W36332  11.842   6.098   3.589 -0.0393 -0.1967  0.1761
20716W        W36333   1.374   4.060   1.587  0.0455 -0.0306  0.2581
20717W        W36334   6.243   3.347  13.547  0.2873 -0.0510 -0.2814
20718W        W36335   1.067   0.853  14.707  0.1955 -0.2992  0.2200
20719W        W36336  10.870   5.321   5.142  0.1193  0.0032 -0.0655
20720W        W36337   6.072  17.272  16.197  0.2128 -0.0819 -0.1133
20721W        W36338   7.709   6.576   4.170  0.2187 -0.2460  0.2269
20722W        W36339   0.937  14.277  16.273 -0.1943  0.3328  0.5175
20723W        W36340   9.344   0.607  15.071  0.2431  0.0810 -0.0399
20724W        W36341  10.574  14.856  15.839 -0.0843 -0.1861 -0.3031
20725W        W36342  13.416  13.327   3.915  0.1829 -0.0334 -0.2187
20726W        W36343   7.828   7.083  14.931  0.0581 -0.0249  0.1049
20727W        W36344  12.035   6.898   1.315  0.0331  0.1364  0.2258
20728W        W36345  10.118  12.987   4.492 -0.2644 -0.3475  0.2322
20729W        W36346  13.383   8.785  12.504 -0.0687 -0.0892  0.1180
20730W        W36347   0.385   6.869   0.504 -0.0184 -0.1868 -0.1553
20731W        W36348  12.392   9.287  14.747  0.1403 -0.0869  0.1250
20732W        W36349  13.609   5.421  15.061  0.1046  0.0731 -0.1302
20733W        W36350   8.534  17.635   3.500 -0.1767 -0.0503 -0.0925
20734W        W36351   4.567   8.294  15.501  0.1536  0.2398  0.1995
20735W        W36352  14.507  10.691  14.692 -0.0946  0.1664  0.0732
20736W        W36353  12.319  16.439  16.155  0.0157 -0.0877 -0.0212
20737W        W36354  12.595  13.068   4.664 -0.2046 -0.4302 -0.0324
20738W        W36355  13.195  12.195  15.644 -0.0109 -0.1143  0.1203
20739W        W36356   2.649   3.211   1.306 -0.1638  0.0308 -0.1361
20740W        W36357  10.650  15.205   1.960  0.0222 -0.3067  0.1997
20741W        W36358  12.908  12.393   1.428  0.0569 -0.1282  0.0527
20742W        W36359   5.671   0.488   5.588  0.0576 -0.0375 -0.1019
20743W        W36360  16.668   3.971   2.999 -0.0887  0.2224 -0.1334
20744W        W36361   6.722   0.154  16.328 -0.0228 -0.3730  0.0045
20745W        W36362  10.588   3.823  12.026  0.1956  0.0374 -0.1923
20746W        W36363   0.318  11.578   1.166  0.0443  0.1160  0.2681
20747W        W36364   6.275   0.533   0.305 -0.0865  0.0334 -0.0394
20748W        W36365  14.570   6.919  16.179 -0.0506 -0.0846  0.3432
20749W        W36366   2.116  11.612   1.893  0.3012 -0.0395 -0.1558
20750W        W36367  10.483  15.218  11.883  0.2478 -0.2032  0.1507
20751W        W36368   1.605  11.856   0.530 -0.1336 -0.1499 -0.0600
20752W        W36369   0.844  10.266  14.911 -0.0682  0.0151 -0.1564
20753W        W36370   9.153  15.624   1.004 -0.3484  0.0374 -0.3026
20754W        W36371  12.044   1.078   4.512  0.1877  0.0811  0.2506
20755W        W36372  17.574   7.208   5.210  0.1504 -0.1133 -0.0048
20756W        W36373   8.109  17.184  13.368 -0.1611 -0.1769 -0.2328
20757W        W36374  13.144   2.855  11.952 -0.0583 -0.1576 -0.2802
20758W        W36375   1.257   3.253  11.395  0.0096 -0.2921  0.0059
20759W        W36376   1.185  15.680   3.568  0.0534 -0.1535 -0.0939
20760W        W36377  14.951   1.980  12.074  0.0140 -0.3139 -0.2918
20761W        W36378  13.816   0.064  13.557 -0.0534 -0.2778 -0.2314
20762W        W36379   4.482   5.147   0.143 -0.0165  0.1301 -0.1858
20763W        W36380   3.172  15.322   0.836  0.2059 -0.1413 -0.2462
20764W        W36381   4.310   6.934   0.353  0.1134  0.2625 -0.1135
20765W        W36382   8.770  16.211  13.842  0.0846 -0.1378 -0.1199
20766W        W36383  14.083  11.952   0.972 -0.0371  0.4047 -0.1581
20767W        W36384   4.790  11.123   2.703 -0.0822 -0.2911 -0.0118
20768W        W36385  17.767  11.302  14.475  0.0769 -0.0032  0.1431
20769W        W36386   0.416   4.229   4.969 -0.0604  0.0785  0.1574
20770W        W36387   5.522   3.097   0.003  0.1825  0.0832  0.0479
20771W        W36388   8.946   8.567   3.975 -0.1004  0.0637  0.0319
20772W        W36389   9.360   4.871  13.597 -0.1062 -0.1558  0.1759
20773W        W36390  11.542  10.284  13.023 -0.2875 -0.0072 -0.1943
20774W        W36391  11.755   7.709  12.561 -0.0998  0.2194  0.1410
20775W        W36392  16.686   4.346   1.947 -0.1885 -0.0914 -0.1086
20776W        W36393  13.264  11.602   3.651  0.2487  0.0072 -0.1182
20777W        W36394   0.126   1.658   1.683 -0.0208  0.0300  0.0167
20778W        W36395  14.743  12.175   1.479 -0.0496  0.0875  0.1243
20779W        W36396   1.582   0.217  15.760  0.1216 -0.4784 -0.5378
20780W        W36397  11.311   8.129  12.913  0.1631 -0.0615  0.2241
20781W        W36398  14.486   4.330   2.242  0.1146  0.0859  0.1688
20782W        W36399  11.513   7.195  16.814 -0.2264  0.3710 -0.1561
20783W        W36400  14.715   6.573   1.137 -0.0683 -0.1152 -0.0349
20784W        W36401  11.796  12.339  12.900  0.2675  0.2308  0.2648
20785W        W36402   5.240  16.509  15.513 -0.0382 -0.1542 -0.0623
20786W        W36403  11.701  11.767   3.847 -0.2133  0.0444 -0.0920
20787W        W36404   9.906  10.352  16.655  0.0873  0.0703 -0.0711
20788W        W36405  11.228   5.827  14.163 -0.1593  0.1452  0.1810
20789W        W36406  10.555  13.830   0.886 -0.0819  0.1460  0.1593
20790W        W36407   2.138  10.267  11.598  0.2321 -0.3941 -0.0664
20791W        W36408  14.401  17.248  12.873 -0.1743 -0.4454  0.3680
20792W        W36409   5.125  16.196   2.010  0.0653 -0.1820 -0.2169
20793W        W36410   7.495   2.921  16.118 -0.0499 -0.1926  0.0973
20794W        W36411  13.286   0.677  12.995  0.2386 -0.1514 -0.0115
20795W        W36412  11.687   1.213  16.637 -0.1936  0.0386  0.3889
20796W        W36413   7.814  10.244  13.173  0.3466 -0.2699  0.2993
20797W        W36414   1.271  11.879   2.229  0.0641  0.2097  0.2825
20798W        W36415   5.634  11.240   2.632 -0.0237  0.1059  0.0394
20799W        W36416  15.333  11.461  14.511  0.2524  0.0880  0.0180
20800W        W36417   5.570   0.233   2.180 -0.1788  0.0827 -0.1327
20801W        W36418  10.006  16.716  14.420 -0.3945 -0.4072  0.2178
20802W        W36419  14.862   1.796   0.592  0.1079  0.1767 -0.0042
20803W        W36420  12.475  16.521   3.233  0.2396  0.2806  0.2979
20804W        W36421   9.116  15.160  14.893 -0.4641  0.1259  0.1660
20805W        W36422  16.548  14.149  12.166 -0.0631  0.0383  0.0516
20806W        W36423  10.979  13.499  13.407 -0.1872  0.2939  0.1291
20807W        W36424  13.527  15.720   0.824 -0.1078  0.3129 -0.1373
20808W        W36425   9.774  13.400  11.757 -0.0800 -0.2861 -0.3476
20809W        W36426   4.405  12.136   3.521 -0.2378 -0.0901  0.1352
20810W        W36427  12.559  15.196   0.140  0.1268 -0.0762 -0.2347
20811W        W36428   4.188  17.196  11.459  0.2201 -0.0445  0.3498
20812W        W36429   1.255  15.170   0.494 -0.1690 -0.0678  0.0046
20813W        W36430   9.800   9.111   1.148 -0.0026  0.0677  0.0939
20814W        W36431  12.949   7.770  12.073  0.0542 -0.0567  0.3955
20815W        W36432   5.871   3.472   4.307  0.2406 -0.0208 -0.3355
20816W        W36433  13.627  16.059   2.141  0.0970 -0.2975  0.1307
20817W        W36434  16.837  11.010   4.775  0.0949 -0.0142  0.0113
20818W        W36435   3.363   9.420   4.304  0.1254  0.0095  0.2906
20819W        W36436  16.871   3.598  15.741 -0.1656 -0.1683 -0.0863
20820W        W36437   3.222   2.021  11.523 -0.0755  0.0384  0.0879
20821W        W36438   7.761   5.546   1.844 -0.0644  0.1479  0.1131
20822W        W36439   3.393  15.966   2.033  0.0981 -0.0241 -0.2052
20823W        W36440   4.141  16.705   9.946 -0.1710  0.2964  0.0653
20824W        W36441  16.068   2.625  14.960 -0.2588  0.1363 -0.0569
20825W        W36442  14.718  12.658  12.497  0.2511  0.4568 -0.3840
20826W        W36443  14.853  13.101   3.188 -0.0589  0.3955 -0.0482
20827W        W36444  12.501   8.957   4.907 -0.1560  0.0843 -0.2598
20828W        W36445  11.703  16.840   4.918 -0.1993 -0.3173 -0.2104
20829W        W36446  12.402   8.269   4.686 -0.0629  0.0017 -0.3241
20830W        W36447   3.276  10.059   3.603 -0.2747 -0.0698  0.0242
20831W        W36448   0.330  12.012  16.167 -0.0823  0.0536 -0.2290
20832W        W36449   9.670  11.682  13.836  0.0281  0.1753  0.1074
20833W        W36450  12.725   9.860   4.557 -0.0933  0.1249  0.0764
20834W        W36451   0.081  11.053   0.287  0.0132  0.0362  0.0721
20835W        W36452  14.740  16.952   3.025 -0.0222  0.2187  0.1153
20836W        W36453  15.535  11.217   5.827 -0.0692  0.1360  0.1207
20837W        W36454  14.757  10.739  15.589  0.2332 -0.1603 -0.0547
20838W        W36455  17.321  13.164  13.731  0.0336  0.0250 -0.1422
20839W        W36456  14.336  13.297   0.493 -0.1475  0.1553 -0.1716
20840W        W36457   1.465   7.695   0.075 -0.0504  0.1838  0.2142
20841W        W36458  10.633   3.524   1.407 -0.1425  0.4887  0.1845
20842W        W36459   3.791   2.527  12.090  0.2788  0.1784  0.3135
20843W        W36460   4.886   2.519   6.242 -0.0457 -0.0379  0.0294
20844W        W36461  10.826   2.122  15.588 -0.0116  0.0248  0.2355
20845W        W36462   7.246  13.933  16.329 -0.1438 -0.1511  0.0592
20846W        W36463   0.845   5.808   0.880  0.1196 -0.1688 -0.1025
20847W        W36464  17.004  12.453   4.445 -0.0072 -0.1870 -0.2062
20848W        W36465   5.874   4.799   0.392  0.2317  0.0944  0.2466
20849W        W36466   4.762   6.817  16.401 -0.1719 -0.1372  0.0327
20850W        W36467  12.395  13.072  12.747  0.2739  0.3055  0.2264
20851W        W36468   5.350   1.800  16.633 -0.0747  0.1178 -0.1566
20852W        W36469  17.722   0.402  15.255  0.0720  0.0950 -0.1428
20853W        W36470   2.800   2.479   1.207 -0.2308 -0.2846 -0.0410
20854W        W36471   4.782   6.735   1.289  0.1036 -0.2031 -0.1299
20855W        W36472   6.712   9.771  11.746 -0.0444  0.1274 -0.1405
20856W        W36473  11.827   3.517   3.390 -0.1017  0.1107 -0.3238
20857W        W36474   1.255  13.375  14.625  0.1163 -0.2942 -0.2816
20858W        W36475   5.714   4.312   5.058 -0.1451  0.0958  0.1298
20859W        W36476   2.853  15.599   1.611  0.1892  0.0927 -0.2341
20860W        W36477  12.327  10.395   4.826 -0.0106  0.0413  0.0534
20861W        W36478   9.196   3.325  12.181 -0.2523 -0.0960 -0.0849
20862W        W36479  10.231  17.546  13.800 -0.0840 -0.1478 -0.2298
20863W        W36480  16.057   1.571  12.503 -0.0593 -0.1167  0.0350
20864W        W36481  15.431   1.289  12.498 -0.1936  0.1808  0.3167
20865W        W36482   6.492   9.850   2.845 -0.3570 -0.0343 -0.1237
20866W        W36483  12.371   2.416  12.103  0.3776  0.3478 -0.1850
20867W        W36484   2.440  10.279  13.928 -0.2193  0.0659  0.2440
20868W        W36485   2.793  14.869   5.508 -0.2429 -0.4607 -0.3881
20869W        W36486   2.386   7.855  11.875 -0.0923 -0.2708 -0.3408
20870W        W36487  14.141  15.234  11.909  0.0050  0.2188 -0.2718
20871W        W36488   8.026   9.501  15.716  0.0377  0.1323  0.1318
20872W        W36489   6.699   2.451  16.562 -0.0295 -0.0335  0.0598
20873W        W36490  14.994   6.880  13.652  0.0281 -0.0197  0.2790
20874W        W36491  12.171  15.746   1.922 -0.1318  0.0972  0.2677
20875W        W36492  14.945   2.964  11.476  0.1824  0.2134 -0.3325
20876W        W36493   3.507  14.683   3.475  0.2473 -0.0665  0.0062
20877W        W36494  14.277  15.530   0.835 -0.1658 -0.0094  0.0910
20878W        W36495   6.345  11.904   0.933 -0.1570 -0.1244 -0.0905
20879W        W36496  16.089   8.917   3.884  0.1642 -0.3240 -0.2290
20880W        W36497  16.771  12.863   4.657 -0.0920 -0.0111 -0.0818
20881W        W36498   0.796  10.233  13.765 -0.3635  0.1122 -0.2908
20882W        W36499  10.112   6.871   2.526 -0.1397  0.2667 -0.1944
20883W        W36500  11.388  17.290   0.676 -0.2295  0.1130  0.0361
20884W        W36501   1.394   8.777  13.856 -0.1285 -0.3827  0.1636
20885W        W36502   2.216  13.605   1.568 -0.1908 -0.0312 -0.2472
20886W        W36503  11.102   0.114   2.896  0.0597  0.2219 -0.0127
20887W        W36504   0.955   8.001   5.067 -0.1874  0.2617  0.3870
20888W        W36505  13.539   5.667  15.841 -0.2800 -0.0708 -0.0777
20889W        W36506  12.749   6.350   1.546 -0.0353 -0.0548 -0.0864
20890W        W36507   2.093  11.277  15.027  0.0645  0.1555  0.3790
20891W        W36508  12.480   6.899   4.721 -0.0480 -0.0414  0.1618
20892W        W36509   7.371   3.404   2.752 -0.0894  0.1896  0.0822
20893W        W36510   1.170   4.970   0.865  0.1154 -0.0283  0.0852
20894W        W36511  14.573  16.512   5.170 -0.0800  0.0215 -0.0150
20895W        W36512  13.033   0.643  12.128  0.3294  0.0253 -0.1252
20896W        W36513  12.015  16.509   1.289  0.0221  0.0621 -0.0890
20897W        W36514  16.391  14.427  16.265 -0.0052  0.3054  0.2267
20898W        W36515   1.633  10.831  14.229 -0.4855  0.1209 -0.1211
20899W        W36516  10.174  10.465  14.234  0.1955  0.0882  0.4352
20900W        W36517  14.269   9.663   0.352 -0.0869  0.1754  0.0401
20901W        W36518  15.278  12.186   4.523  0.2259  0.0200  0.2675
20902W        W36519   5.446   4.393  12.342  0.3878  0.0768 -0.2581
20903W        W36520   6.252  16.736  16.038  0.1429 -0.2398  0.1417
20904W        W36521   2.305  16.799  12.925  0.0024 -0.0730  0.0337
20905W        W36522  16.061  16.627   0.387  0.5450 -0.0067 -0.0288
20906W        W36523  13.782  10.236   3.935  0.0703  0.0653  0.1697
20907W        W36524  10.181   6.529  14.800 -0.0184  0.0224 -0.1297
20908W        W36525   7.277   5.701  12.597  0.0031  0.0440 -0.1919
20909W        W36526  14.058   8.886  15.458 -0.4463 -0.2193 -0.2040
20910W        W36527   0.777   4.161   2.590 -0.0806  0.1401  0.2010
20911W        W36528   1.086   3.967   0.371 -0.0345  0.4227  0.0169
20912W        W36529  15.184   4.003   0.044 -0.0291  0.2843 -0.0086
20913W        W36530   3.850   8.535   5.008  0.1697 -0.1693  0.3048
20914W        W36531  11.826  11.713  15.919  0.0509 -0.1001  0.0829
20915W        W36532   7.191  12.104  11.389  0.0261 -0.2583 -0.1327
20916W        W36533   6.910  16.635  10.895  0.1082  0.0948  0.1731
20917W        W36534  11.481   3.031   0.222  0.0345  0.0764  0.0364
20918W        W36535  10.526   0.284  16.214  0.0169 -0.0215 -0.0735
20919W        W36536   3.505   0.508   3.603 -0.1746 -0.0563 -0.1496
20920W        W36537  13.773  10.025  14.300  0.0208  0.3041 -0.0218
20921W        W36538   3.729   8.571  13.775 -0.0780  0.1656 -0.1968
20922W        W36539  16.072   0.962  13.015  0.0659  0.1100 -0.0481
20923W        W36540   8.602   2.895   4.671  0.0061 -0.2942  0.4532
20924W        W36541  17.773   0.756  15.631 -0.0543  0.0111  0.0331
20925W        W36542   6.018   3.969   4.301 -0.1333 -0.2945  0.0626
20926W        W36543   5.054  12.014  13.195 -0.1287 -0.0112  0.3380
20927W        W36544   0.735  16.147  11.269  0.1668 -0.1657  0.0058
20928W        W36545  12.854   1.292   0.851  0.1410  0.1843 -0.1176
20929W        W36546   1.648   6.074   1.888  0.3244 -0.1443 -0.1000
20930W        W36547  11.556   2.907  14.847 -0.0844 -0.0795  0.1060
20931W        W36548   8.971   7.737  15.330  0.1011 -0.3900  0.0301
20932W        W36549   1.483   7.186  14.584  0.1253 -0.0733 -0.0651
20933W        W36550   2.050   6.765  15.128 -0.0024 -0.1665 -0.1215
20934W        W36551   6.034   5.386  16.347  0.0817 -0.1728  0.3128
20935W        W36552  16.385   1.252  15.924  0.1876 -0.0452 -0.2371
20936W        W36553   9.647   0.035   1.163 -0.1389 -0.0511  0.1449
20937W        W36554   9.449   8.482   1.276  0.2106  0.1475  0.0775
20938W        W36555   4.801   4.696  13.736 -0.1153 -0.2511  0.2458
20939W        W36556   1.291   3.724   2.659 -0.2315  0.1065  0.1082
20940W        W36557   3.719   1.703   1.024  0.0801 -0.0666 -0.0090
20941W        W36558  12.443   4.760   3.761  0.1553  0.3352  0.4561
20942W        W36559   9.255   3.000   3.255 -0.0660 -0.0469 -0.3265
20943W        W36560  13.669  11.766   0.540  0.1114  0.0106 -0.1008
20944W        W36561  15.740   8.892   1.723 -0.0264  0.0918  0.3169
20945W        W36562  15.410   4.488   4.444 -0.0147  0.0233 -0.1447
20946W        W36563   7.933  17.673   5.803 -0.2891  0.1471 -0.1196
20947W        W36564   5.642  14.610   4.119  0.0907 -0.1748  0.0171
20948W        W36565  16.528  12.461   4.662 -0.2941 -0.1014  0.0595
20949W        W36566   3.518   3.158   1.494  0.0412 -0.0183 -0.0032
20950W        W36567  16.163   4.202  13.695  0.1895 -0.0174  0.1920
20951W        W36568   9.659  17.269   2.057 -0.1150 -0.2048 -0.1230
20952W        W36569  12.640  12.939  14.676 -0.0886  0.0019  0.1225
20953W        W36570   0.624  16.860   0.885  0.1030  0.2876 -0.0982
20954W        W36571   4.177  11.702  14.325 -0.0723 -0.0966 -0.2369
20955W        W36572  11.130  14.729  16.684  0.2381 -0.2041  0.0840
20956W        W36573   9.257   7.322  15.410  0.0288 -0.3352  0.1277
20957W        W36574   0.754  17.394   3.864  0.1211 -0.2307 -0.1960
20958W        W36575   9.339   6.153   4.695  0.1525  0.1291  0.1542
20959W        W36576  10.644   8.763  16.725  0.1643 -0.1386 -0.1067
20960W        W36577  16.074  12.077  14.829 -0.1114  0.0145 -0.0784
20961W        W36578   1.555  17.597   1.454  0.1283  0.3279  0.1120
20962W        W36579  14.442   6.761  13.507 -0.0375 -0.4166 -0.1638
20963W        W36580   0.130   0.012   0.473 -0.0004  0.4449  0.0796
20964W        W36581   3.166   0.178  11.392 -0.1527 -0.0737 -0.2654
20965W        W36582  13.216   8.271  12.333  0.0290 -0.4359 -0.1394
20966W        W36583  16.727  11.029   2.312  0.3259  0.1316 -0.0328
20967W        W36584  14.759   0.921  13.571 -0.1048 -0.0191  0.1598
20968W        W36585   2.036  10.581   5.589  0.1117  0.3007 -0.0610
20969W        W36586  17.678  12.103  13.180 -0.0123 -0.3143 -0.0562
20970W        W36587   9.319   2.173  11.823  0.0587 -0.1953 -0.1538
20971W        W36588   8.085   9.404   1.625 -0.0366 -0.1485 -0.2633
20972W        W36589  14.230  14.950   2.689 -0.0379  0.0721 -0.2399
20973W        W36590  16.201  13.843  13.921  0.0357  0.0189 -0.1956
20974W        W36591  13.169  15.376   2.679 -0.1012  0.6553  0.0310
20975W        W36592   8.019  14.689  15.129 -0.0053  0.0084  0.0395
20976W        W36593  14.357  14.524   0.812 -0.0051  0.3812 -0.3612
20977W        W36594   0.320   3.492  14.808  0.0505 -0.0727 -0.1746
20978W        W36595  10.791  12.820  14.871  0.3366  0.0107 -0.0248
20979W        W36596   3.068  13.972   4.735 -0.2340  0.0195 -0.3064
20980W        W36597  13.855   1.365   5.048  0.0906  0.1012  0.0918
20981W        W36598  14.953  14.030  11.455  0.0372  0.1741 -0.0293
20982W        W36599  16.661  11.437   0.196  0.2413 -0.2509 -0.3600
20983W        W36600  15.906  14.778   5.125 -0.1758 -0.2718  0.0387
20984W        W36601  12.470  10.140   2.488  0.0647 -0.1808  0.2310
20985W        W36602  16.108   6.983  16.822 -0.0364 -0.1108 -0.1461
20986W        W36603   0.633  10.458   4.864  0.2942 -0.1198  0.2560
20987W        W36604   0.704   8.430   5.188 -0.1682  0.1713 -0.1463
20988W        W36605   6.551   8.247   5.608 -0.2248 -0.3140  0.1850
20989W        W36606   5.119  17.822  14.300  0.1603  0.0231 -0.0896
20990W        W36607  11.031  15.238  16.743 -0.0030  0.0461 -0.3083
20991W        W36608   6.878  10.999   3.433  0.1502  0.1476  0.4206
20992W        W36609  10.018   6.586   0.278  0.1753 -0.0821 -0.0257
20993W        W36610   9.769  12.015   4.333 -0.0179 -0.0736 -0.1228
20994W        W36611   8.715  13.200   5.170  0.2380 -0.3423  0.0714
20995W        W36612   8.237   4.999   4.054  0.1728  0.0180 -0.2535
20996W        W36613  14.462   4.458   0.558 -0.2312 -0.3422  0.2320
20997W        W36614  14.348  15.025   0.947 -0.1170 -0.2439 -0.2885
20998W        W36615  11.751  17.270  11.780 -0.1364  0.1353  0.1839
20999W        W36616  15.857   3.454   2.715  0.0555 -0.1568 -0.0461
21000W        W36617   6.986  15.948  15.328  0.4429 -0.1381  0.0978
21001W        W36618   8.951   1.252   0.667 -0.0476  0.1598 -0.0118
21002W        W36619  15.456   7.615   2.922  0.0494 -0.0106  0.1420
21003W        W36620   0.928  11.573  15.018  0.0386  0.0286  0.1602
21004W        W36621  16.262  15.607  12.189  0.1696 -0.3105 -0.0963
21005W        W36622  15.642   5.382  14.209  0.1012 -0.2190 -0.2894
21006W        W36623   8.997   4.707  14.989  0.1351  0.1423  0.0270
21007W        W36624   3.806   2.692   1.348  0.2129 -0.2807 -0.1644
21008W        W36625   2.015  14.101   2.846 -0.1946  0.0166 -0.0018
21009W        W36626   9.254  12.235   4.440  0.1204 -0.3358 -0.2998
21010W        W36627  12.589   8.780   3.987  0.3958 -0.2463  0.0658
21011W        W36628  10.796  12.318  15.521  0.3542  0.0490  0.3223
21012W        W36629   5.004   9.857  15.131 -0.0737  0.1563 -0.0312
21013W        W36630  14.701   3.880   0.098 -0.1248  0.1876  0.0938
21014W        W36631   9.511  10.212   3.678  0.1510  0.0053  0.0989
21015W        W36632  14.084  17.100   4.662 -0.1371 -0.2659  0.0634
21016W        W36633   2.704  10.091  15.971  0.1618  0.2692  0.0947
21017W        W36634  12.182   3.801  14.453 -0.0172 -0.2761  0.0319
21018W        W36635   0.716  11.744  14.531  0.1410  0.0958  0.0253
21019W        W36636  10.102   4.057   6.030  0.0471  0.3011  0.0087
21020W        W36637   6.648   0.110  14.969 -0.0851 -0.1776 -0.1323
21021W        W36638  11.478   5.348  14.961 -0.1088  0.0638 -0.1529
21022W        W36639   8.533  10.928   5.552  0.2763  0.1299  0.0458
21023W        W36640   8.901  17.042   0.987  0.1038 -0.1053 -0.0672
21024W        W36641  11.148  11.433  13.884  0.0209  0.0067 -0.2111
21025W        W36642   4.286  12.045  13.687 -0.0447  0.0433  0.1063
21026W        W36643  10.687   3.728  15.627  0.1397 -0.0588  0.1047
21027W        W36644   1.668   4.470  14.318 -0.1086  0.1128 -0.2866
21028W        W36645  14.009   0.272   1.821  0.2680 -0.0626  0.1489
21029W        W36646   3.322   0.606   0.247  0.0020  0.1398 -0.0557
21030W        W36647   6.667   7.699  13.529 -0.2037 -0.0729 -0.2099
21031W        W36648   4.298   2.563   5.029  0.2961 -0.1680  0.1037
21032W        W36649  16.216   0.255   4.715  0.0458  0.0130  0.1044
21033W        W36650  15.973   7.892  15.827  0.0508  0.1101  0.1986
21034W        W36651   7.972   7.746   3.530  0.2469 -0.0370  0.0989
21035W        W36652   4.983  11.358   3.387  0.2598 -0.1838 -0.0661
21036W        W36653  14.027   7.912  12.771 -0.2073  0.0518 -0.0482
21037W        W36654   6.969   5.982   2.099  0.3663 -0.0123 -0.1032
21038W        W36655  16.238   4.484   2.273  0.0900  0.0338 -0.0772
21039W        W36656   4.721  11.237   0.689 -0.2431  0.0752 -0.1017
21040W        W36657   4.858   2.704   4.909  0.0341 -0.1570  0.0647
21041W        W36658  11.794  16.368   1.738  0.0025  0.1146 -0.0757
21042W        W36659   0.258   3.022   4.037  0.2487 -0.0202 -0.3088
21043W        W36660  17.318  13.997  14.255  0.0900  0.3036  0.2611
21044W        W36661   6.066   2.011  15.401  0.2609  0.1900 -0.1644
21045W        W36662   7.475   6.978  16.215  0.2051  0.0741 -0.0120
21046W        W36663   5.551  15.486   4.130 -0.2444 -0.0539 -0.0438
21047W        W36664   0.786   6.548   5.472  0.1231  0.1921  0.0189
21048W        W36665  15.586  15.152   3.175 -0.1888 -0.0023  0.1647
21049W        W36666  11.000  10.001  13.501  0.1121  0.0609 -0.0249
21050W        W36667   2.676  17.204   2.868  0.1909  0.0127 -0.1627
21051W        W36668  17.006  13.164   1.096 -0.1455  0.0002  0.1750
21052W        W36669   2.214   0.910  14.431 -0.2133 -0.0864  0.0216
21053W        W36670   8.796  11.283  16.676  0.0007 -0.0713  0.0516
21054W        W36671   7.669  12.997   5.826  0.2073 -0.0892 -0.1398
21055W        W36672   3.854  17.751  11.557  0.0799  0.1386 -0.1145
21056W        W36673   9.986  12.946  11.940 -0.0067  0.0774 -0.2090
21057W        W36674  14.841   2.330  16.245 -0.1868  0.0745  0.0490
21058W        W36675   0.077  16.828   3.194  0.0549 -0.0620 -0.1315
21059W        W36676   9.656   4.187   4.457 -0.2312 -0.0007 -0.0239
21060W        W36677   1.894  11.551   0.281  0.2367  0.3921 -0.0363
21061W        W36678   4.799  17.155  12.720  0.0453 -0.3744  0.0276
21062W        W36679   9.744   6.494  13.630 -0.0440  0.0193 -0.1105
21063W        W36680   1.094   8.522   4.212  0.1565  0.1662  0.0176
21064W        W36681  16.246  11.106  14.611  0.0051 -0.0640 -0.5110
21065W        W36682  10.098  15.100   3.513 -0.1099 -0.2702 -0.0203
21066W        W36683   6.443   8.220   0.808 -0.0597 -0.1181  0.1988
21067W        W36684   7.462  16.102  14.300  0.1730  0.0755  0.0198
21068W        W36685  16.996  10.983  16.211  0.2036 -0.1158  0.0475
21069W        W36686   5.469   4.702   6.425  0.0914 -0.0003 -0.2967
21070W        W36687   7.773   4.899   5.543 -0.0056 -0.0075 -0.2933
21071W        W36688  14.024   8.047  16.329  0.2820  0.2240 -0.0474
21072W        W36689   6.231  17.231  10.942 -0.0937 -0.0697  0.2604
21073W        W36690   1.309   5.872   2.646  0.1201  0.1951 -0.1766
21074W        W36691  12.210   4.724  13.144  0.1397 -0.1687  0.3027
21075W        W36692  15.448   0.829   3.942  0.1088 -0.2498 -0.2112
21076W        W36693  11.386   8.590   4.344  0.0225  0.0020  0.1333
21077W        W36694  12.397  14.003   1.885  0.0099  0.1584 -0.1798
21078W        W36695  14.798   7.165   2.446  0.1199  0.1570 -0.1945
21079W        W36696  17.869  13.999  16.768  0.0096  0.1606  0.1938
21080W        W36697   9.767  16.064   3.368  0.3658 -0.0270  0.0752
21081W        W36698   3.111  16.711  11.976  0.0549  0.0839  0.0551
21082W        W36699   4.929  12.817   3.344 -0.0781  0.1430  0.0861
21083W        W36700  11.954  10.230   3.590 -0.1282  0.2308  0.0448
21084W        W36701  17.753   1.341  13.446  0.0367  0.2963  0.1962
21085W        W36702   9.673  15.752   4.411  0.0783  0.0199 -0.3024
21086W        W36703   4.183   3.636   0.883 -0.2184  0.0226  0.1873
21087W        W36704   8.553  15.916  11.555 -0.2228 -0.0991 -0.2349
21088W        W36705   5.109   6.014   2.892 -0.2955 -0.0257  0.0801
21089W        W36706  17.388   3.342   0.314 -0.1533  0.2263 -0.3250
21090W        W36707  11.694   7.385   4.233  0.0621  0.0012  0.3318
21091W        W36708  10.600  13.948   3.023  0.0830 -0.0787  0.0873
21092W        W36709  16.787   1.365  13.623  0.0281  0.1134  0.0783
21093W        W36710   4.703   8.696   1.414 -0.1045  0.3591 -0.0782
21094W        W36711   6.800  15.407  11.674 -0.1942  0.0628 -0.2849
21095W        W36712  17.228  16.164   0.152 -0.0251  0.0613  0.0331
21096W        W36713   5.210   6.181   2.111 -0.0507  0.3378  0.1035
21097W        W36714   1.610   6.610  15.406  0.2357 -0.1102 -0.1848
21098W        W36715   7.723  10.509  12.463 -0.1090 -0.0032  0.2192
21099W        W36716  13.455  12.412  16.213 -0.1281  0.1493  0.1956
21100W        W36717  10.702   9.467   1.155 -0.0933 -0.0213  0.1211
21101W        W36718   1.735   8.328  14.708 -0.2108  0.1066  0.0592
21102W        W36719  12.724   1.199  13.777  0.0184 -0.1563 -0.0504
21103W        W36720  15.888   4.431  11.338  0.1507 -0.0391 -0.0629
21104W        W36721   8.486   8.060  15.987  0.2193  0.1380 -0.0689
21105W        W36722   6.806  11.048   4.197  0.2298  0.2188  0.0865
21106W        W36723  16.196  15.246   2.126 -0.3298  0.3474 -0.2569
21107W        W36724   4.933  13.682  16.186 -0.1909 -0.4426  0.1875
21108W        W36725   4.805   9.195  11.666 -0.3165 -0.0088 -0.1136
21109W        W36726   7.331   4.976  14.192 -0.1623 -0.0900  0.2960
21110W        W36727   2.967  12.500  11.900  0.2234 -0.0699 -0.0644
21111W        W36728  13.911  15.617  15.326  0.1678 -0.1581  0.1682
21112W        W36729  10.608   6.746  13.287  0.2021  0.4206 -0.0137
21113W        W36730  16.143  11.537   1.574  0.1482  0.0022  0.1634
21114W        W36731  13.753  14.617  13.837  0.1176 -0.0365 -0.0031
21115W        W36732   0.572  16.910  12.811 -0.1454  0.1663  0.1166
21116W        W36733   3.824  17.345   5.126  0.0192  0.0900 -0.0970
21117W        W36734  15.715   5.684  14.903  0.1356 -0.1720  0.1171
21118W        W36735  13.610  12.084   3.819  0.0794  0.2978 -0.2826
21119W        W36736   6.900  14.956  11.965  0.0147  0.1978 -0.1572
21120W        W36737   7.230  10.772  15.210 -0.1322 -0.0375  0.0184
21121W        W36738   7.808  15.895   4.703  0.0211 -0.1375  0.3063
21122W        W36739  13.858   8.382   0.281  0.0852 -0.2328  0.2498
21123W        W36740   8.781   6.921   5.137 -0.1724  0.1926 -0.0990
21124W        W36741  14.840   4.515   3.891 -0.2487  0.1105 -0.1614
21125W        W36742   2.019   9.584   2.905  0.1390 -0.1409 -0.0461
21126W        W36743   8.197   2.489   4.853  0.0868  0.1883  0.0584
21127W        W36744  16.225  10.759   4.061  0.0358  0.1015 -0.1102
21128W        W36745   7.275   9.169  15.182  0.3878  0.1883 -0.0476
21129W        W36746  11.946   2.300   3.523 -0.0088 -0.0779 -0.0656
21130W        W36747   1.915   7.689  12.038 -0.2004  0.2344  0.1213
21131W        W36748  12.767  17.846  15.548  0.1582 -0.2458 -0.0925
21132W        W36749   6.572  12.300   0.714  0.1142  0.0539 -0.1295
21133W        W36750  11.072  16.190   5.757 -0.0140 -0.1278  0.0118
21134W        W36751  14.749   7.118  14.486  0.0086  0.0803 -0.4004
21135W        W36752   5.736   1.501  16.209 -0.2538  0.0688  0.2385
21136W        W36753  13.357  14.349  13.482 -0.1709 -0.1695  0.2992
21137W        W36754   0.892  14.944   5.749 -0.2517 -0.2230 -0.2651
21138W        W36755   7.652   3.450  12.118  0.1193  0.0175  0.0254
21139W        W36756   3.604   2.107  15.058 -0.1227  0.2605  0.0827
21140W        W36757  10.921   1.357   3.488  0.0073 -0.0466  0.0169
21141W        W36758  15.502  16.069   5.113 -0.0944  0.0481  0.1053
21142W        W36759  17.275   7.405   4.484  0.1142 -0.0802 -0.2765
21143W        W36760   3.741  16.400   1.290  0.0914  0.1383  0.0821
21144W        W36761   9.547   1.935   2.373  0.4731  0.0341  0.1667
21145W        W36762  16.030  13.556   3.000  0.1430 -0.2510 -0.1396
21146W        W36763  16.360   2.227   1.942  0.2085  0.1884  0.1136
21147W        W36764  11.307  17.607  16.341  0.0324  0.3036  0.0019
21148W        W36765   7.147   6.161   3.463 -0.1639  0.0530  0.2760
21149W        W36766   1.340   3.575  15.219  0.0557 -0.1049 -0.2185
21150W        W36767   1.604   5.533   3.520  0.3147 -0.1890  0.0807
21151W        W36768  17.346  10.648  13.969  0.3910 -0.1832 -0.1902
21152W        W36769  15.241   7.229   5.822 -0.2440 -0.0077  0.2122
21153W        W36770   3.853   5.145   5.750  0.2702  0.1750  0.2331
21154W        W36771  13.865   9.611   3.658  0.0248 -0.3030 -0.1101
21155W        W36772   7.715   4.706  12.243  0.1143  0.2685  0.1328
21156W        W36773  10.968  15.232  11.868 -0.0345  0.0378  0.4659
21157W        W36774   5.542   3.037   3.216 -0.1481 -0.0298  0.1652
21158W        W36775   8.299   5.893   0.566  0.0494 -0.0503 -0.0974
21159W        W36776   3.819  13.039   1.466  0.1581  0.2014  0.0882
21160W        W36777  12.725   3.891   2.245  0.1216  0.1659 -0.2060
21161W        W36778   4.248   3.631   5.219  0.1389  0.1631 -0.0989
21162W        W36779   3.206   7.076  15.436 -0.1030  0.0245  0.2628
21163W        W36780  17.405  11.806   0.829  0.0069 -0.2662 -0.2955
21164W        W36781   9.182   8.658   2.145  0.0184  0.2741 -0.2548
21165W        W36782   5.531   9.985   4.127 -0.1566 -0.2396  0.1744
21166W        W36783  17.757  11.638  12.298  0.0252  0.3897 -0.3363
21167W        W36784   9.405  13.332  12.489  0.1919  0.0860  0.1920
21168W        W36785   0.344   9.422   0.968  0.5862  0.2367 -0.0932
21169W        W36786   6.480   2.570   1.557 -0.3114 -0.0217  0.2406
21170W        W36787  14.362   2.731  13.042 -0.1281 -0.0501  0.0178
21171W        W36788  12.944  16.466  15.833 -0.2493  0.1254 -0.0853
21172W        W36789  16.328  10.839  12.120  0.1518 -0.0107 -0.5976
21173W        W36790   9.208   3.742   0.040  0.2342  0.0012  0.0815
21174W        W36791   6.688   2.993  14.539 -0.0751  0.1039  0.0013
21175W        W36792  10.562   1.112   0.990 -0.0249 -0.0256  0.1489
21176W        W36793   5.077  13.256   0.935 -0.1785 -0.0142 -0.3257
21177W        W36794  11.106  15.895  13.697 -0.0358 -0.3865 -0.1478
21178W        W36795   7.662   7.942  15.497 -0.0372  0.1988 -0.0690
21179W        W36796  13.893   3.774   0.616  0.0869  0.0424 -0.1183
21180W        W36797   5.136   4.717  15.932 -0.0727  0.1862 -0.0777
21181W        W36798  14.449   9.627  13.640  0.2444  0.0844 -0.1573
21182W        W36799   7.535   4.510  11.562  0.0632  0.0199 -0.1848
21183W        W36800  13.566   9.781  16.077 -0.1136 -0.1956 -0.1021
21184W        W36801   0.033  13.066   1.171 -0.2386  0.2549 -0.0258
21185W        W36802   4.415   3.796  16.829  0.0290 -0.1736 -0.1187
21186W        W36803  12.809  15.008  11.650  0.0882  0.1209 -0.0676
21187W        W36804  12.284   4.921   5.212 -0.2201  0.1088  0.1855
21188W        W36805   4.050  10.427  12.706 -0.1653 -0.3033 -0.0047
21189W        W36806  16.020   0.081   2.855 -0.2727  0.1345 -0.0757
21190W        W36807  14.188  11.665   2.418 -0.1242 -0.1013  0.0628
21191W        W36808  12.756  10.208   5.018  0.3194  0.3436  0.0859
21192W        W36809   1.407  15.666   2.182 -0.0862  0.2487  0.3555
21193W        W36810  12.106  12.316  14.498 -0.2627  0.2390  0.4720
21194W        W36811   3.691  12.360  14.592 -0.1970 -0.1713 -0.1041
21195W        W36812  17.275   9.466  13.588 -0.1570 -0.3069 -0.1176
21196W        W36813   9.560  10.274  13.702  0.0211  0.0172  0.0679
21197W        W36814  10.392   1.238   5.272 -0.1808 -0.0608  0.2695
21198W        W36815   2.874  10.810  13.984  0.1253  0.0484  0.0303
21199W        W36816   8.526   9.449   2.592  0.0311  0.1159 -0.0266
21200W        W36817  15.364  14.057   4.894 -0.1963  0.1624 -0.1183
21201W        W36818  11.296  13.631   3.870  0.1292 -0.0205  0.1796
21202W        W36819  12.277   1.625   0.341 -0.1307  0.0148 -0.1442
21203W        W36820   5.561  13.135  12.310  0.1188 -0.2168  0.1005
21204W        W36821   6.912  11.376   5.387  0.0210  0.0205  0.0450
21205W        W36822   5.458   8.132   4.008  0.1730  0.1876  0.1217
21206W        W36823  11.363   8.379   6.565  0.0267  0.1508 -0.0269
21207W        W36824   8.408   0.143   0.148 -0.0234 -0.0012 -0.2614
21208W        W36825   5.844   0.144   3.121  0.3822  0.1686 -0.0115
21209W        W36826   8.734  15.981   4.221 -0.1536  0.1171 -0.0392
21210W        W36827   5.145  12.146   5.662  0.2352  0.0905  0.0018
21211W        W36828  17.258  13.302  16.263  0.4751 -0.0631 -0.2374
21212W        W36829  11.442   5.429  11.935  0.0525 -0.1891  0.0271
21213W        W36830  11.302   2.791  12.778  0.0477 -0.3140 -0.3029
21214W        W36831   5.631  11.731  11.713  0.1899  0.1009 -0.3017
21215W        W36832   3.462   3.783   1.424 -0.0751  0.1263  0.0386
21216W        W36833   7.265   1.456   0.559 -0.1143 -0.1957  0.0816
21217W        W36834   7.226  14.891  14.448  0.0340  0.0291 -0.0360
21218W        W36835   3.220   1.755   4.064  0.1432 -0.0952  0.0650
21219W        W36836   3.964  12.422   3.534 -0.1024 -0.0319  0.0107
21220W        W36837  13.447  17.070  16.339  0.3425 -0.1351  0.0054
21221W        W36838  15.572   8.055  11.477 -0.0781 -0.2259  0.3021
21222W        W36839  16.830  13.732  12.286  0.0980 -0.4912 -0.0511
21223W        W36840  17.417  17.616  11.707  0.0888 -0.0020  0.2036
21224W        W36841   9.028   9.282   1.280  0.1684 -0.3121 -0.1826
21225W        W36842  12.652  17.081   2.432  0.0830 -0.0478 -0.0150
21226W        W36843  15.988  11.587   3.717  0.1608  0.2401  0.0348
21227W        W36844  15.652   8.651   0.581 -0.1620 -0.2460 -0.1165
21228W        W36845   7.866   4.482   2.499  0.1979 -0.0734  0.1204
21229W        W36846   4.668  16.545  11.967  0.0313  0.0169  0.1868
21230W        W36847   6.039   0.227   5.219  0.2595 -0.2571  0.0648
21231W        W36848  11.075  12.011  10.332  0.3784  0.0567  0.0539
21232W        W36849  16.584  14.862   1.948  0.1796  0.1381 -0.4598
21233W        W36850   5.432  11.716  14.388 -0.1378  0.2779  0.2757
21234W        W36851  12.172  13.392   4.116  0.0761 -0.1080 -0.1417
21235W        W36852  12.761  15.616   1.068  0.1531  0.0438 -0.2327
21236W        W36853   4.064  13.461  15.923  0.1030  0.1533 -0.4228
21237W        W36854  11.590   9.082   1.109  0.2594 -0.0260 -0.1381
21238W        W36855  14.842   0.740   1.287 -0.2253  0.1356  0.2628
21239W        W36856  14.800  16.021   5.869 -0.0661  0.3487  0.0987
21240W        W36857   4.487   6.452   1.769 -0.1801 -0.1804 -0.2608
21241W        W36858  16.250  16.098   4.463 -0.0537  0.2666 -0.0951
21242W        W36859  12.316  17.769  15.945 -0.2315  0.0516 -0.0879
21243W        W36860   0.576  11.043  13.251  0.3868 -0.2757  0.1534
21244W        W36861   5.683  11.303   5.126 -0.2559  0.0895  0.0755
21245W        W36862  12.981  17.610  15.125 -0.3151  0.3720 -0.0918
21246W        W36863   4.365   6.805   5.907 -0.1303  0.0493 -0.1217
21247W        W36864   0.929   0.980  11.942  0.1130 -0.2126  0.0962
21248W        W36865   5.466  17.814  12.913  0.0006  0.2165  0.1350
21249W        W36866   4.093  11.896  13.043  0.2669 -0.0497  0.1608
21250W        W36867  13.006  17.820   0.860  0.4117  0.2520 -0.0094
21251W        W36868  10.351   8.982   5.550  0.0873  0.1066 -0.1433
21252W        W36869   6.354  14.109  16.526 -0.1497 -0.0084  0.0009
21253W        W36870   6.360   1.012  16.048  0.1736  0.1516 -0.1561
21254W        W36871   4.074   3.164   1.314  0.0086  0.0308  0.1887
21255W        W36872   6.686  10.638   0.121 -0.0180 -0.4241  0.0469
21256W        W36873   4.760  14.374  11.677  0.0916  0.1911 -0.0185
21257W        W36874  13.037  11.766   5.156  0.1079  0.0886  0.0408
21258W        W36875   7.667   3.415   4.496 -0.1909  0.0185  0.0082
21259W        W36876   2.628   9.936  16.534  0.0010  0.1317  0.2972
21260W        W36877   8.260   7.050   4.565 -0.0403  0.0582 -0.1188
21261W        W36878  11.840   8.144   5.823 -0.0671  0.2156  0.0691
21262W        W36879   5.757  15.525  12.510 -0.2234 -0.1114  0.3296
21263W        W36880   5.353   7.811  15.411  0.0313 -0.2152  0.1002
21264W        W36881   1.050  11.026  12.984  0.1222 -0.1412  0.2716
21265W        W36882   6.797   0.365  11.396  0.2238  0.0048 -0.0120
21266W        W36883  13.064   0.967  15.485 -0.0719 -0.1699 -0.0079
21267W        W36884   4.413   7.860  13.422  0.0692  0.1601  0.1649
21268W        W36885   1.100  10.102  12.461  0.0471 -0.0178 -0.1180
21269W        W36886   1.969  14.589   4.320 -0.0526 -0.2557  0.0070
21270W        W36887   7.184  16.430  15.304 -0.2008  0.0581 -0.1884
21271W        W36888   4.149   9.172   2.173 -0.4080  0.0830 -0.3028
21272W        W36889   2.527  14.643   1.639  0.2061  0.3630  0.0884
21273W        W36890   9.476  11.754   1.685  0.0843 -0.0588  0.2948
21274W        W36891  11.490  16.059   5.999  0.1824  0.2747  0.0785
21275W        W36892  12.423  10.681   4.303  0.1267  0.2642  0.0197
21276W        W36893  15.750  14.257   5.184 -0.1712 -0.1479 -0.0211
21277W        W36894  15.787   8.126   3.880  0.2099 -0.2961  0.1836
21278W        W36895  10.128  10.280   0.911  0.0908  0.2662 -0.1704
21279W        W36896  12.041   2.512  13.080 -0.1290  0.1462  0.4019
21280W        W36897   3.270   4.071  15.159  0.2691 -0.0189 -0.4351
21281W        W36898  10.628  11.187  16.602  0.1500 -0.2745  0.1382
21282W        W36899  14.834   4.724   1.376  0.0899  0.1411  0.1493
21283W        W36900   9.412  14.029   0.317  0.1489  0.1506  0.0561
21284W        W36901  16.881  14.031   5.877  0.0173 -0.4338  0.0973
21285W        W36902  12.145  17.487  11.495  0.0671  0.4313  0.2151
21286W        W36903  15.818   5.132   3.142  0.1134  0.5397 -0.3865
21287W        W36904  16.205  11.848  15.280  0.0527  0.0993 -0.2910
21288W        W36905   5.233   2.464   5.613 -0.0375 -0.3885  0.1844
21289W        W36906  16.240  10.635   1.483 -0.0386  0.1396 -0.1756
21290W        W36907  13.765   4.802   3.689  0.2462  0.1452  0.0706
21291W        W36908  16.018   4.567   1.390 -0.0101 -0.2993 -0.0342
21292W        W36909  14.581  16.937   4.899  0.0110  0.1494 -0.2660
21293W        W36910   1.107   2.841   4.214 -0.0906 -0.0006 -0.4015
21294W        W36911  12.696   5.292   0.654  0.2538  0.0491 -0.0711
21295W        W36912   1.637  13.530  16.467 -0.2206 -0.0349  0.3084
21296W        W36913  14.724   4.005   0.866 -0.0076 -0.1342 -0.0985
21297W        W36914   6.460  15.194  11.955  0.0940  0.0848 -0.3208
21298W        W36915   6.618   0.990   5.644  0.2411  0.0216  0.1297
21299W        W36916   3.405   7.855   1.654  0.0856  0.1978 -0.0791
21300W        W36917  10.082   3.394   3.720  0.0861 -0.0617 -0.3203
21301W        W36918  14.611   7.456  14.992  0.1220  0.0615  0.0826
21302W        W36919   0.299  17.012  15.342  0.0250  0.1827  0.1485
21303W        W36920  12.825   1.870   3.933 -0.1140 -0.0143  0.2785
21304W        W36921   7.546  14.515   0.762 -0.2905 -0.2064 -0.1345
21305W        W36922   7.322  14.549   2.057  0.0300  0.0479 -0.1178
21306W        W36923  11.643   6.733  11.666  0.3486 -0.0686 -0.1930
21307W        W36924   3.658  10.562   5.039  0.0965 -0.3102 -0.2630
21308W        W36925   6.469  15.966   5.389 -0.0464  0.0118  0.1032
21309W        W36926   4.791  11.050   4.280  0.1499  0.1807 -0.0034
21310W        W36927  10.045  16.608  14.919 -0.3285 -0.0623  0.1864
21311W        W36928   4.818  11.170   0.158 -0.0892  0.0195  0.0158
21312W        W36929  16.630  11.153   3.828  0.1509  0.1836  0.2916
21313W        W36930  12.975  13.858  16.126 -0.0343  0.1126 -0.0366
21314W        W36931   8.508  10.289   4.665  0.0762 -0.1535 -0.1159
21315W        W36932   7.569   7.610  12.388 -0.1997  0.1127  0.0358
21316W        W36933   0.765   7.550   2.734  0.1482  0.0366 -0.1190
21317W        W36934  10.209   0.950  11.075  0.0349  0.1919 -0.1236
21318W        W36935   4.137  17.402  14.136 -0.2802  0.0773 -0.2457
21319W        W36936   9.498   4.247  12.282  0.3871  0.2986 -0.1346
21320W        W36937   6.775   4.049  13.048  0.3291 -0.1102  0.0990
21321W        W36938  12.039   2.039  14.391 -0.0160 -0.0503  0.1325
21322W        W36939   0.576  12.608  11.715  0.3249 -0.0548 -0.2404
21323W        W36940  12.390  16.737  16.558  0.1572 -0.1733  0.2757
21324W        W36941   1.684   9.727   0.124 -0.0732  0.2638  0.3461
21325W        W36942   4.994  16.816  13.030 -0.1691 -0.0674  0.2275
21326W        W36943   2.010  11.493   0.880 -0.0448 -0.2712  0.1112
21327W        W36944  13.208   4.349   2.763  0.1975  0.0565 -0.1519
21328W        W36945   6.102   5.545   5.618  0.3300 -0.1723  0.0868
21329W        W36946  15.114   9.863  13.004 -0.1766  0.1962 -0.0804
21330W        W36947  16.595  15.247  15.619 -0.2739  0.2300  0.2835
21331W        W36948  17.006  10.228  13.118  0.2377 -0.0749 -0.1661
21332W        W36949  15.949  16.692  12.254  0.0498  0.0100 -0.1009
21333W        W36950  12.317   3.964  11.410  0.2212  0.1922 -0.2295
21334W        W36951   0.469   1.826   2.031 -0.1336 -0.0087  0.1779
21335W        W36952  16.914  10.912   0.197  0.0652  0.1142 -0.1041
21336W        W36953  16.061  16.536  14.539  0.1976  0.0629 -0.2051
21337W        W36954  17.739   6.660   4.302  0.0940  0.3349  0.0624
21338W        W36955  14.300  10.672  12.014 -0.1685  0.1427  0.1045
21339W        W36956  11.872  10.983  12.417  0.1873 -0.0531 -0.0608
21340W        W36957   9.057   5.766   3.332  0.0072  0.1562  0.1806
21341W        W36958   7.395   7.751   5.351  0.0245 -0.0106 -0.1569
21342W        W36959   4.378   6.865  13.673  0.0919 -0.1408 -0.0615
21343W        W36960  15.313   7.130   1.470  0.0957 -0.1217  0.1675
21344W        W36961   8.892   2.896  13.513 -0.0683 -0.0113 -0.1339
21345W        W36962  15.196  11.852   4.137  0.1663 -0.1332  0.1583
21346W        W36963   7.010   5.368  15.922 -0.0404  0.0611 -0.2124
21347W        W36964   0.934   9.032  15.743 -0.1922 -0.0530  0.3023
21348W        W36965   8.534  16.999  15.873  0.0221 -0.0128 -0.0677
21349W        W36966   3.117   4.633   4.236 -0.0350 -0.0626  0.0158
21350W        W36967  12.267  14.379  15.732  0.1360 -0.2509  0.1505
21351W        W36968  15.136  17.745   3.032 -0.0309  0.2610  0.0005
21352W        W36969   6.759  13.089   5.356  0.0980 -0.3195  0.0645
21353W        W36970   5.774   9.122   0.994 -0.0456  0.0884  0.2726
21354W        W36971  13.843   2.004  14.191 -0.0907 -0.0993  0.2396
21355W        W36972  12.427  17.290  11.919 -0.2011  0.1046 -0.1953
21356W        W36973  14.132   5.824   4.547  0.2832  0.0159  0.1340
21357W        W36974   0.211   9.002   1.283  0.2804 -0.2042 -0.1541
21358W        W36975   8.574   6.824  12.910 -0.0973 -0.0258 -0.1183
21359W        W36976   5.746   7.515  15.264 -0.1420  0.0280 -0.0539
21360W        W36977  10.176   1.181  11.946 -0.0151  0.0584  0.0188
21361W        W36978   2.724  16.127  15.158  0.0637  0.1467  0.0033
21362W        W36979  12.490   8.057  14.696 -0.0834  0.3628 -0.0359
21363W        W36980   9.512  11.136   2.124  0.3278 -0.0837  0.1495
21364W        W36981   6.890  12.325   2.181  0.3064 -0.0546 -0.1523
21365W        W36982  14.543  14.492   5.750 -0.2193 -0.0019 -0.4137
21366W        W36983  13.963  10.802  14.110  0.0617 -0.1668  0.2870
21367W        W36984  15.979  17.543  14.240 -0.0008 -0.3162 -0.2764
21368W        W36985  14.036   7.264   2.838  0.1410  0.0255 -0.0140
21369W        W36986  11.901   7.309  16.237 -0.2106  0.0723 -0.0667
21370W        W36987   2.099  12.007   2.783 -0.0026 -0.0192  0.2775
21371W        W36988   2.400   9.985  14.909 -0.0926  0.0813 -0.2982
21372W        W36989   6.561   6.779  13.621 -0.0339  0.0782 -0.0887
21373W        W36990   3.596   3.358   3.390  0.1218  0.4245 -0.1236
21374W        W36991  15.718   2.546   0.928 -0.0510  0.1648 -0.1570
21375W        W36992  13.980   8.951  14.401 -0.1028 -0.3747 -0.3140
21376W        W36993   0.365   8.636   0.002  0.2319  0.0269  0.0869
21377W        W36994   4.572   9.176   5.331 -0.1322  0.0091  0.0675
21378W        W36995  17.447  10.524  16.309 -0.0385 -0.2637 -0.2505
21379W        W36996  14.336  10.104  11.949 -0.1373  0.0191  0.0436
21380W        W36997  15.717   8.673   5.047  0.1161  0.0654 -0.0099
21381W        W36998   7.395   5.955   0.252  0.0053 -0.0166  0.0999
21382W        W36999   0.498   8.675  11.537  0.2959 -0.1468  0.1335
21383W        W37000  15.097   0.219   2.654  0.3284 -0.1091 -0.2019
21384W        W37001   7.055   1.895   2.928 -0.0485 -0.0272  0.0316
21385W        W37002  15.635   1.052   4.627  0.0652  0.1574 -0.1712
21386W        W37003   0.044   2.869   4.636  0.0740 -0.1873 -0.2841
21387W        W37004   8.657  16.617  12.346 -0.3509  0.2790 -0.1937
21388W        W37005   4.261   5.737   1.390 -0.0324  0.2810 -0.0462
21389W        W37006  11.692   5.605   5.275 -0.2342 -0.2426  0.0668
21390W        W37007   8.151   1.316   3.028  0.0826 -0.1535  0.3537
21391W        W37008  17.266   2.001   3.716 -0.0813  0.0542  0.1233
21392W        W37009  14.376  11.110  12.653 -0.4456  0.0086 -0.0688
21393W        W37010  14.546  16.229  14.433  0.0044 -0.0603 -0.1874
21394W        W37011   4.470   5.286  12.953 -0.0408  0.3088  0.1038
21395W        W37012  13.633   1.041   3.333  0.1014 -0.0168 -0.2978
21396W        W37013   6.319   5.174  13.122  0.2036  0.2896 -0.2619
21397W        W37014   1.319  16.901   3.237 -0.0354 -0.2395  0.3195
21398W        W37015   5.513  12.959  11.816  0.0917 -0.0939  0.0511
21399W        W37016   9.659  10.276  15.882 -0.1294  0.1669  0.2184
21400W        W37017   4.077   3.894  14.759 -0.1608 -0.0500 -0.2637
21401W        W37018  12.707  13.468   3.309  0.1317 -0.1351 -0.0151
21402W        W37019  17.603  10.479  15.802  0.2464  0.0020 -0.1745
21403W        W37020  15.140   0.612  12.827 -0.2244  0.0121  0.2379
21404W        W37021   2.638   7.105   3.032  0.0096 -0.0589  0.2048
21405W        W37022  14.446  15.729   2.856  0.0183  0.1121 -0.3145
21406W        W37023  10.707  15.440  14.895  0.0224 -0.0700 -0.3928
21407W        W37024   2.907  14.418  15.653  0.1625 -0.0314  0.0440
21408W        W37025   5.415  17.798   4.334 -0.3301  0.0759 -0.0717
21409W        W37026   6.922   1.516   1.677 -0.6266  0.1620 -0.0951
21410W        W37027   3.933  10.098   5.112  0.0863 -0.1044  0.1833
21411W        W37028   3.001   0.551   5.046  0.0657  0.0105 -0.3112
21412W        W37029   6.240  14.294  15.308  0.2064 -0.1471  0.1060
21413W        W37030   2.844   1.147   0.756 -0.0254  0.1214  0.0140
21414W        W37031   4.683  11.314  15.978 -0.2001 -0.1755 -0.0767
21415W        W37032  11.256   5.084   1.058  0.2135 -0.1657  0.0932
21416W        W37033  17.330   9.463  12.592 -0.3306  0.0835  0.2934
21417W        W37034   7.062  16.260   0.598  0.2555 -0.2744  0.0405
21418W        W37035  12.885   4.733   1.983 -0.0773  0.1149  0.1729
21419W        W37036  12.944   6.754  13.715  0.1913 -0.0037 -0.1616
21420W        W37037  11.846  10.695   1.311 -0.0303 -0.0193 -0.3878
21421W        W37038  12.272  10.676   0.043 -0.0133 -0.1838 -0.0683
21422W        W37039   1.571   3.764  16.084  0.1309  0.3952 -0.0174
21423W        W37040  16.969   2.608  14.866 -0.2034  0.1271 -0.2828
21424W        W37041   5.357   3.474   3.928  0.2563  0.1847 -0.1469
21425W        W37042   0.850  12.322  12.466  0.2601 -0.4154  0.1950
21426W        W37043  15.646   3.618  11.600 -0.2182 -0.0496 -0.0944
21427W        W37044   1.579   8.342   2.457  0.0309  0.0038  0.3446
21428W        W37045   7.379   8.554   1.363 -0.3141 -0.1249 -0.1778
21429W        W37046  12.623   1.216  13.125  0.0923 -0.1078  0.0135
21430W        W37047   5.765  16.861  15.249 -0.1329  0.0975 -0.0138
21431W        W37048   9.630  11.375   0.955  0.3286 -0.1957  0.0808
21432W        W37049  15.053   7.919   6.478 -0.2482 -0.0073  0.1686
21433W        W37050  17.556  15.332   4.322 -0.1414  0.0073  0.1314
21434W        W37051   1.357  13.087  16.238  0.1334 -0.3351  0.0510
21435W        W37052  16.548  11.516   4.284  0.0102 -0.2669  0.1393
21436W        W37053   7.368   9.297  12.274  0.1049  0.0067 -0.3055
21437W        W37054   2.565  13.539   4.101 -0.2810  0.0750 -0.0831
21438W        W37055   0.582   6.192   4.738 -0.0866 -0.0114  0.2063
21439W        W37056  16.983   9.852   1.972 -0.1428  0.0936 -0.0360
21440W        W37057   9.532  10.351  12.670  0.1741  0.2080 -0.1415
21441W        W37058   9.062  14.571   3.230 -0.0855  0.1034 -0.1093
21442W        W37059  15.873   5.447   2.336 -0.0244  0.0199 -0.1893
21443W        W37060  14.356  11.002  15.907 -0.0723  0.0936 -0.2318
21444W        W37061   9.622   2.707   5.039  0.3004  0.0897  0.3043
21445W        W37062   8.176   6.480   0.680 -0.4278 -0.0892  0.0155
21446W        W37063  10.775   7.261  13.708  0.1097  0.0761  0.3344
21447W        W37064   2.773   0.451  16.339  0.0319  0.1833 -0.1289
21448W        W37065   9.676  11.860  11.676 -0.0452  0.0505  0.4137
21449W        W37066   2.069  13.679  16.205  0.1679  0.0036 -0.0984
21450W        W37067   6.916   1.064  13.370  0.1541 -0.0915  0.1238
21451W        W37068  12.812   1.438  11.733  0.0043  0.0750 -0.1362
21452W        W37069  14.065   3.010  14.201  0.0779 -0.1065  0.4006
21453W        W37070  17.754   6.237  15.355  0.0736  0.1854  0.1882
21454W        W37071  13.355  17.727   0.432  0.0007 -0.1183 -0.0168
21455W        W37072   2.940  16.183   3.797 -0.1018 -0.0512 -0.1000
21456W        W37073  15.817  15.917   4.155  0.0379 -0.2625 -0.0808
21457W        W37074   7.958   0.947   5.386 -0.0482 -0.2023 -0.0329
21458W        W37075  11.499  15.291  10.413  0.1383  0.0500  0.2675
21459W        W37076   8.816   9.689   3.794  0.1895 -0.0800  0.1108
21460W        W37077   5.696  16.274   6.349  0.0856  0.3164  0.1332
21461W        W37078  15.728  17.828  15.069  0.1316  0.4065 -0.0990
21462W        W37079   2.713  15.336   3.280 -0.0883 -0.3332 -0.0169
21463W        W37080   8.353   9.515  14.415 -0.0179  0.2078  0.2751
21464W        W37081  17.394   8.325   5.696  0.0411  0.2449  0.2883
21465W        W37082   8.817  11.823   5.466 -0.1837  0.2530  0.0828
21466W        W37083  17.704   3.895   0.555 -0.0167  0.2891  0.0706
21467W        W37084  11.532   8.347   5.436  0.0065  0.0898 -0.2164
21468W        W37085  14.082   4.867  13.505 -0.2092 -0.1909 -0.0286
21469W        W37086   8.890   8.926   0.012 -0.0797 -0.2532 -0.1396
21470W        W37087  11.412   9.982  15.480  0.1956 -0.0102  0.1277
21471W        W37088   8.788   8.944   3.693 -0.2833 -0.0319 -0.0903
21472W        W37089  14.892   0.599   4.682  0.4249  0.0873  0.0177
21473W        W37090   5.813  17.606   2.138 -0.1613 -0.0720 -0.2246
21474W        W37091   4.269  10.478   4.475  0.0593 -0.3471  0.2432
21475W        W37092   8.384   2.725  15.798 -0.1208  0.1304  0.0638
21476W        W37093  13.265   1.854  13.490  0.1011 -0.1876 -0.0979
21477W        W37094   2.561  11.369  13.331  0.2218 -0.2441  0.0230
21478W        W37095   7.330   7.248  12.029  0.0223 -0.0428  0.0463
21479W        W37096   7.226   8.934  14.729 -0.1730 -0.0179 -0.0702
21480W        W37097  15.003  14.948  12.515 -0.0646 -0.1636 -0.2064
21481W        W37098   6.878   3.795   2.759  0.3939  0.0040 -0.2500
21482W        W37099   2.861  13.189  11.260  0.1008 -0.0803  0.1769
21483W        W37100   6.215   2.647  12.588 -0.0546  0.0971 -0.1255
21484W        W37101  10.518   8.086   5.669  0.2352 -0.3360  0.1629
21485W        W37102   0.141  16.693   0.013 -0.0921  0.0701  0.0733
21486W        W37103  11.127  10.682   5.637 -0.0147  0.0867 -0.1500
21487W        W37104  15.103  13.048   1.690 -0.2783  0.0228 -0.1283
21488W        W37105  14.908   3.412   2.186 -0.1430 -0.0426  0.0592
21489W        W37106  10.478   8.040   1.037  0.1475  0.0867 -0.1091
21490W        W37107   8.450   8.047   3.332 -0.0460 -0.1150 -0.3855
21491W        W37108  16.333   7.299   2.526  0.0919  0.0008 -0.3051
21492W        W37109   9.139  16.746  12.052 -0.0580 -0.2169  0.0763
21493W        W37110   2.526   5.800   2.548 -0.0253  0.0105  0.3151
21494W        W37111   3.710   4.615   2.198 -0.1335  0.0709 -0.4718
21495W        W37112   2.148   2.112   1.922 -0.0613  0.1610 -0.1258
21496W        W37113   9.631  10.622   4.629  0.1639 -0.2268  0.1981
21497W        W37114  14.638  10.006  13.300 -0.1454  0.1188  0.0732
21498W        W37115   2.521  10.961   1.297  0.1790  0.0267 -0.1066
21499W        W37116   2.729   6.878   6.081  0.0239  0.0239 -0.0437
21500W        W37117  13.839   7.224  15.587 -0.1915 -0.3310 -0.2716
21501W        W37118  13.415  17.491   0.886  0.1205  0.2253 -0.1904
21502W        W37119   5.254  10.676  14.784 -0.0476 -0.2713 -0.1196
21503W        W37120  13.130  15.266  11.929 -0.1244 -0.1163 -0.3322
21504W        W37121  14.490   5.920  12.146 -0.0755  0.2131  0.2798
21505W        W37122   8.817  13.628   4.921 -0.0544 -0.3314 -0.0849
21506W        W37123   8.202  12.611   4.076  0.2357 -0.0696 -0.1777
21507W        W37124   8.628   3.310  14.383 -0.0300  0.1367 -0.1833
21508W        W37125   7.593  13.105  14.406  0.3092 -0.1355 -0.2494
21509W        W37126  11.436   2.600   5.117  0.2353 -0.2068 -0.0627
21510W        W37127   9.295   4.011  15.740  0.0037  0.1452 -0.0580
21511W        W37128   7.716  13.800   1.857  0.3517  0.4420  0.3553
21512W        W37129   9.109  15.965  12.772  0.2609 -0.2595  0.1308
21513W        W37130  15.271  13.021  14.316  0.1841  0.0597 -0.2433
21514W        W37131  16.277   5.617  15.038 -0.0924  0.1657 -0.0476
21515W        W37132  10.037  16.083  13.762  0.1235  0.0208 -0.1227
21516W        W37133   7.582   1.174   4.734 -0.1547 -0.1606 -0.0165
21517W        W37134  12.219   8.444   5.878  0.2216 -0.2034 -0.0342
21518W        W37135  16.429   5.643  12.802 -0.1747  0.1010 -0.1279
21519W        W37136   9.407   7.569  12.182  0.1284 -0.3047 -0.0260
21520W        W37137  16.969  16.049   3.835  0.0422 -0.1252 -0.0414
21521W        W37138  11.355  14.016   5.237  0.1735  0.0265 -0.0337
21522W        W37139   8.859   3.263   1.438  0.2256 -0.0436  0.0559
21523W        W37140   0.684  15.539   4.366 -0.3728 -0.1223  0.1815
21524W        W37141   1.722  13.817   2.433 -0.1501  0.1626 -0.0490
21525W        W37142  10.931  10.369   4.928  0.0179 -0.2360 -0.0266
21526W        W37143  11.030  12.268   3.600  0.0033 -0.0503  0.4615
21527W        W37144  10.908   0.159   0.809  0.0829 -0.0239 -0.5418
21528W        W37145  11.581   8.036   1.749  0.3057  0.0547 -0.0905
21529W        W37146   0.041   9.627   3.042 -0.1042  0.1157  0.2609
21530W        W37147   5.306  13.196  13.518  0.1388  0.1043 -0.0494
21531W        W37148  12.188  16.707   1.718  0.0892  0.1292  0.1820
21532W        W37149   5.722  12.666  16.725  0.2506 -0.0505 -0.1492
21533W        W37150  12.591   7.009   1.544  0.0674 -0.1007 -0.1411
21534W        W37151  10.239  12.175  15.074  0.2173 -0.1107 -0.0414
21535W        W37152   1.683   1.269  11.543 -0.2080 -0.2162 -0.1236
21536W        W37153  11.235   2.028  16.584  0.1277  0.4107 -0.4080
21537W        W37154  12.247   5.797   2.728  0.2501 -0.3593  0.0147
21538W        W37155  14.035   6.065  12.422  0.3555 -0.2323 -0.0067
21539W        W37156   2.009   9.353  16.698  0.0227 -0.0767 -0.1428
21540W        W37157   5.722   7.368   5.009  0.3500  0.1833 -0.1760
21541W        W37158  17.254  15.713   1.146 -0.3003  0.1322 -0.0113
21542W        W37159   7.350   1.183  14.148 -0.0374  0.1364  0.1543
21543W        W37160   1.577  16.530   4.182  0.2724  0.4699 -0.2182
21544W        W37161   9.083  10.554  14.477 -0.0038  0.0982 -0.0692
21545W        W37162   7.742  11.673   4.958 -0.0888 -0.3136  0.1780
21546W        W37163  12.538   2.649  16.597 -0.1527 -0.1711 -0.1054
21547W        W37164  14.326   1.124  13.708  0.0703 -0.0907 -0.1521
21548W        W37165   9.562  11.784  14.374  0.0501 -0.1599  0.0975
21549W        W37166   7.476   1.403  14.615 -0.1466 -0.1015 -0.1641
21550W        W37167   3.606  12.378   0.120  0.1117 -0.0206  0.6095
21551W        W37168   0.634   0.262   0.461  0.0676 -0.0213  0.0007
21552W        W37169   0.262   2.974  12.456  0.2398 -0.0226 -0.0495
21553W        W37170   2.694   3.643   3.381  0.0481  0.0815  0.0922
21554W        W37171  11.482  15.534   4.014  0.4269 -0.1918  0.0865
21555W        W37172  16.629   3.188   4.270  0.0009  0.0163 -0.1171
21556W        W37173  15.275   4.574  14.807  0.1194 -0.3079  0.1679
21557W        W37174  17.844   7.031  14.005  0.0471  0.0040  0.1021
21558W        W37175   3.334  10.079   3.122  0.0656  0.1335 -0.1636
21559W        W37176  10.917  16.115  11.922 -0.1477  0.2307  0.4769
21560W        W37177   5.794   1.641  13.518  0.1465 -0.3217 -0.0682
21561W        W37178  11.765   9.509   1.545 -0.2917 -0.0497 -0.3925
21562W        W37179   7.316  14.192   4.520 -0.3715  0.0387 -0.0639
21563W        W37180   8.889  12.490  13.757  0.1108  0.1467 -0.0811
21564W        W37181  10.566   1.390   2.925 -0.1644 -0.0677 -0.0933
21565W        W37182  14.984  13.282  13.109 -0.2147 -0.2244 -0.1470
21566W        W37183   8.006  10.860  11.620 -0.3766 -0.1992  0.0641
21567W        W37184   8.060   3.621  15.113 -0.1633 -0.1559 -0.1367
21568W        W37185  11.579  16.899  16.543 -0.1149 -0.1039  0.1712
21569W        W37186  14.520   5.773   3.356 -0.0853  0.0589 -0.1521
21570W        W37187   7.650   9.465   4.298  0.1402  0.2726  0.1723
21571W        W37188   0.758   9.186   2.393  0.1036  0.0425  0.1078
21572W        W37189  13.508  16.777  13.447 -0.1420 -0.1969  0.0728
21573W        W37190   2.354  10.640   4.604  0.2091 -0.2658 -0.2892
21574W        W37191  17.660   1.884   3.369  0.0802 -0.1856  0.0510
21575W        W37192   6.393   4.343   5.256 -0.2865 -0.1652 -0.0674
21576W        W37193  11.896   2.205  10.917 -0.2184  0.2022 -0.1772
21577W        W37194   9.103   5.463   1.930 -0.0443  0.0480 -0.1869
21578W        W37195  13.240   8.854  14.361 -0.0043  0.2637  0.0089
21579W        W37196  16.735   0.316   3.502 -0.0049 -0.0488  0.1797
21580W        W37197  16.531   8.613   5.358  0.1588  0.0886 -0.0128
21581W        W37198  13.242  16.192  14.247  0.0103  0.0246  0.0922
21582W        W37199   7.377   0.022  13.609 -0.4572  0.0321  0.3381
21583W        W37200  13.652   5.578  14.009 -0.1808  0.2065  0.1061
21584W        W37201  14.538   4.327   0.047 -0.2658  0.1475  0.1338
21585W        W37202   2.726   4.745  15.616 -0.1987  0.1869 -0.1844
21586W        W37203   9.122   6.676  12.384  0.1589  0.0755  0.2476
21587W        W37204  14.310  11.777   6.001  0.1350  0.2581  0.1702
21588W        W37205   5.750   5.134   2.490 -0.0303 -0.2547  0.3375
21589W        W37206   7.969  11.193  13.965 -0.2355  0.1518  0.2729
21590W        W37207  12.612   9.884  16.670  0.0890  0.1122  0.1471
21591W        W37208   0.185  15.402  13.446 -0.1811 -0.1007  0.1403
21592W        W37209  16.447   8.989  12.720 -0.0291 -0.0340 -0.0812
21593W        W37210  16.105   2.074  16.532  0.0168 -0.0230 -0.0027
21594W        W37211   0.631  16.559   0.158  0.0745  0.1723 -0.3327
21595W        W37212   8.001  13.806   1.380  0.1634  0.0663 -0.2206
21596W        W37213  14.530   7.400  16.093  0.4360 -0.2747  0.2532
21597W        W37214  12.736   7.881   1.752 -0.0767  0.1124 -0.1608
21598W        W37215   2.254  13.479   0.309  0.0153  0.1615  0.0677
21599W        W37216   6.623  16.378  15.257  0.1952  0.0131 -0.0577
21600W        W37217   9.521   8.900   2.464 -0.0569  0.1041 -0.5248
21601W        W37218  11.916   6.297   4.867 -0.1308  0.0471  0.1812
21602W        W37219  13.777   4.349  16.602  0.1402  0.0250  0.0205
21603W        W37220   3.841   8.766   1.851  0.0252 -0.0828 -0.0560
21604W        W37221   3.623   3.707   3.004 -0.2197  0.0762 -0.2945
21605W        W37222   3.702  14.502   1.648  0.0322  0.2832  0.2107
21606W        W37223   3.040  11.073   5.032  0.3194 -0.0433  0.0379
21607W        W37224   7.366   0.596   2.750  0.0458  0.2031 -0.0928
21608W        W37225  14.285   2.690  13.551  0.2726  0.0741 -0.1118
21609W        W37226  12.342   5.903   2.197 -0.1831  0.1177  0.1553
21610W        W37227   2.835   7.617   2.055  0.2948 -0.3778 -0.0889
21611W        W37228   7.384   5.165   5.708 -0.0851 -0.0783  0.1981
21612W        W37229   5.760   4.013  12.526 -0.2625 -0.1051 -0.2640
21613W        W37230   6.143   2.598  16.057  0.0289  0.0743  0.1379
21614W        W37231   8.730  16.164   1.589 -0.2407  0.3614 -0.1920
21615W        W37232  11.159  17.382  14.182 -0.1288 -0.3450 -0.2662
21616W        W37233   8.628   5.539  11.315 -0.0861 -0.1347  0.4213
21617W        W37234  15.842   1.983  16.158 -0.0503  0.0406 -0.0414
21618W        W37235  12.748   6.469  12.750 -0.1487 -0.1080  0.2456
21619W        W37236   8.657  12.999   0.359 -0.0600 -0.0311  0.1174
21620W        W37237  16.875  17.643  11.776  0.2257 -0.1305  0.0271
21621W        W37238   9.662  14.406  13.345  0.0927  0.2027  0.1204
21622W        W37239   4.234   8.443  14.479  0.2057  0.1160 -0.2340
21623W        W37240  12.113   9.265   4.732  0.0522 -0.1328 -0.1611
21624W        W37241   2.524  10.854  12.119  0.1446 -0.2764 -0.0203
21625W        W37242   3.200  13.908   3.358 -0.0511 -0.1326 -0.2082
21626W        W37243   4.587   4.510   1.296 -0.0863 -0.0889 -0.3287
21627W        W37244   7.954   1.617  16.821  0.0667  0.3532  0.0987
21628W        W37245   1.158   9.713   0.070  0.2487 -0.3326 -0.2701
21629W        W37246   8.028  10.855  14.293 -0.1289 -0.1006  0.4014
21630W        W37247  15.017   7.492   4.372 -0.1482  0.0486  0.0720
21631W        W37248  14.648   5.593  13.122  0.0663 -0.1182 -0.0114
21632W        W37249  14.404   1.952  12.270  0.2113 -0.2327 -0.0178
21633W        W37250  12.389  15.462   5.452 -0.0427 -0.2433  0.0830
21634W        W37251   3.634  10.809  12.625  0.0297 -0.1445  0.2412
21635W        W37252   5.977  12.924  12.132 -0.1271 -0.0224  0.1314
21636W        W37253   9.902  16.828   3.862  0.0469  0.0839  0.0253
21637W        W37254  12.157  14.030  14.315 -0.2446 -0.0270 -0.0829
21638W        W37255   0.899   4.175  11.506 -0.1315  0.1285  0.2240
21639W        W37256   5.584  17.121  11.191  0.2055 -0.2614 -0.1125
21640W        W37257  10.114   4.568   4.397  0.2059  0.1270 -0.2782
21641W        W37258  14.409   0.479   2.051  0.1195  0.2179  0.1268
21642W        W37259  11.966   8.999   0.192 -0.3472  0.2949 -0.0749
21643W        W37260  13.987   7.158   1.198 -0.1926 -0.2839 -0.0700
21644W        W37261   5.792   9.032  13.326  0.0721  0.2369 -0.1182
21645W        W37262   4.125  17.331  13.060  0.0655 -0.0409 -0.1747
21646W        W37263  16.355   8.140   2.668  0.0541  0.0184 -0.1123
21647W        W37264   6.332   1.440   0.708 -0.1119  0.1481 -0.0274
21648W        W37265   3.230  14.518  14.553 -0.1242 -0.0589 -0.1498
21649W        W37266   2.699   0.143   0.840  0.0010  0.0358 -0.1365
21650W        W37267   8.731   0.966   5.947 -0.1233  0.0118 -0.0611
21651W        W37268   1.373   1.049   1.103  0.2185 -0.1966 -0.0641
21652W        W37269  12.723   3.372   2.055  0.1207 -0.0111  0.0942
21653W        W37270  12.031  12.480  15.271  0.1222  0.0910  0.0844
21654W        W37271   8.295  12.658   0.252  0.2339 -0.0418 -0.2516
21655W        W37272  16.354   9.246   4.338 -0.1797 -0.2467  0.0146
21656W        W37273  16.190  15.911  13.964  0.0421 -0.0705 -0.2836
21657W        W37274  16.101   9.878   2.408  0.0998  0.0239  0.0501
21658W        W37275  13.949  10.726   3.919  0.1328 -0.3913 -0.0046
21659W        W37276   7.935   6.587  14.718 -0.0684 -0.0128  0.3444
21660W        W37277   3.925   2.370  11.397 -0.1406 -0.0835  0.0177
21661W        W37278  11.766  11.656  13.480  0.0494 -0.2756  0.0422
21662W        W37279   4.240  13.047   2.909 -0.0049 -0.0977  0.2140
21663W        W37280  10.348   8.467  14.777 -0.0335  0.1445 -0.0176
21664W        W37281  13.510   0.503  16.588  0.2022  0.1405 -0.2137
21665W        W37282  15.431  16.523  13.208 -0.3143 -0.0640  0.3195
21666W        W37283   4.504   4.960  13.391 -0.0336 -0.2420 -0.1327
21667W        W37284   9.242  16.361   1.615 -0.2983 -0.1492 -0.1834
21668W        W37285   6.169   6.023   3.223  0.1981  0.0948 -0.1465
21669W        W37286   5.703   5.201  11.643  0.0184  0.2193  0.1583
21670W        W37287   7.490  13.067   1.605  0.2703  0.0533  0.0337
21671W        W37288  13.785   8.206  11.806  0.0806 -0.2080 -0.3314
21672W        W37289  10.178  11.580   1.243  0.0767  0.0497  0.2675
21673W        W37290   9.685   0.855   0.861  0.1136  0.0814 -0.2322
21674W        W37291   1.548  11.491  11.638 -0.0559 -0.1966 -0.0895
21675W        W37292  17.426   2.243   5.373 -0.1766 -0.0780  0.0119
21676W        W37293   4.721  16.103   2.457  0.3554  0.1283  0.3871
21677W        W37294   7.724   1.713   1.332 -0.1071  0.2524 -0.3213
21678W        W37295   8.035   8.015   0.728  0.3169 -0.1221  0.1313
21679W        W37296   4.248   8.425  13.899  0.0574 -0.2703  0.0237
21680W        W37297  15.148  17.491  13.662  0.0257 -0.1562  0.0591
21681W        W37298  13.818  16.121   1.267 -0.2616  0.1707 -0.0124
21682W        W37299  15.800  13.944   0.909 -0.0438 -0.2430  0.0381
21683W        W37300   9.573  16.050  11.321 -0.0835  0.0764 -0.1053
21684W        W37301   1.520  17.311   3.567 -0.1101  0.0767 -0.0880
21685W        W37302   6.470   4.247  13.432 -0.2181  0.2588  0.2224
21686W        W37303   2.219   7.031  16.297  0.0215 -0.1860  0.0185
21687W        W37304  16.643  12.504   2.281  0.1056  0.1345 -0.3440
21688W        W37305   7.873   8.631   3.545  0.1514 -0.1257  0.3171
21689W        W37306  12.036   3.307   4.796  0.2244 -0.0602 -0.0420
21690W        W37307   7.060   7.829   5.855 -0.4716  0.2478 -0.0546
21691W        W37308   8.795  13.203   3.478 -0.0947  0.1560  0.0218
21692W        W37309  16.033  12.252  13.846 -0.0386  0.0185 -0.2234
21693W        W37310  13.571  16.225   3.858 -0.0244  0.0720  0.2013
21694W        W37311   3.686   3.627   5.215 -0.0010  0.2510 -0.1362
21695W        W37312   3.929  10.991   5.066  0.3447  0.1193 -0.0054
21696W        W37313  12.216  16.899   4.183  0.1383 -0.4440  0.0572
21697W        W37314   5.188   2.067  12.610  0.2837 -0.0576  0.1142
21698W        W37315   6.064  15.483   3.396 -0.2043  0.1114 -0.1682
21699W        W37316  10.627   2.986  16.581  0.1273 -0.1769  0.1048
21700W        W37317  14.633  16.462  14.016  0.0781  0.3507  0.2514
21701W        W37318   0.630   3.974   3.894 -0.5478 -0.1194 -0.2643
21702W        W37319   5.534   3.427  11.706 -0.0874  0.0625  0.0703
21703W        W37320  12.608   5.013   2.373 -0.0133 -0.0958  0.3148
21704W        W37321  13.154  17.106  14.695 -0.0756  0.0317  0.1528
21705W        W37322   7.304   7.348   1.032  0.0506  0.3687 -0.3332
21706W        W37323  17.073  15.214   3.770  0.0210  0.1958 -0.1895
21707W        W37324   7.409  17.521  14.645  0.1427  0.0351  0.3976
21708W        W37325  16.799   5.188  11.595  0.1980  0.2902 -0.0031
21709W        W37326   3.524   2.815   4.396  0.1958 -0.0638 -0.1124
21710W        W37327  16.327   1.515  15.069 -0.0690  0.0982 -0.0785
21711W        W37328   3.617  15.570   4.055  0.0300  0.0894 -0.4062
21712W        W37329  15.023  12.326  12.139  0.1250  0.0022 -0.1253
21713W        W37330  14.287   0.424   4.741  0.1842 -0.0452  0.1216
21714W        W37331   4.489   7.373  14.316  0.1499 -0.1431 -0.0420
21715W        W37332   5.570   9.268  14.965  0.2859  0.1377  0.1902
21716W        W37333   7.529  12.182  13.206  0.0688 -0.0303 -0.2204
21717W        W37334  10.488   3.498  11.329  0.0347 -0.0923 -0.2019
21718W        W37335   5.453  15.415  13.162  0.0333  0.0868 -0.0894
21719W        W37336  15.060  17.858  16.057 -0.1430  0.1279 -0.2144
21720W        W37337   0.074  12.343  15.250  0.2762  0.3130 -0.1555
21721W        W37338  10.739  12.281   5.782 -0.1024  0.0492  0.1833
21722W        W37339  16.617   8.674  16.507 -0.1510  0.2480  0.2456
21723W        W37340   3.771   7.368   3.395 -0.1403 -0.0848 -0.1825
21724W        W37341   4.377   2.793   1.677  0.2825  0.1386  0.1585
21725W        W37342  11.566   1.153   1.898  0.1028  0.3372  0.1317
21726W        W37343   0.693  11.959  11.833 -0.0345  0.0725  0.3243
21727W        W37344   6.304  10.312  16.153 -0.1545 -0.2408 -0.2023
21728W        W37345  10.471   4.299   4.647 -0.1624  0.2752 -0.2592
21729W        W37346   8.324   3.026  16.293 -0.0953 -0.0889  0.0901
21730W        W37347  11.362  10.734   1.165 -0.0733 -0.0389 -0.1884
21731W        W37348   6.390   7.854   0.020  0.0902 -0.2812  0.0102
21732W        W37349   5.657  14.164   3.291  0.0149  0.1041 -0.0528
21733W        W37350   8.639  13.408   3.050 -0.1411  0.0087  0.0585
21734W        W37351  14.828  17.155   2.111  0.3068  0.0618 -0.1592
21735W        W37352   4.278  14.620  11.732  0.3861 -0.1302  0.0069
21736W        W37353   6.077  15.566   4.374  0.1799 -0.1010  0.0691
21737W        W37354   6.533   9.693  15.070 -0.1656 -0.1225 -0.0473
21738W        W37355   5.158  17.277  13.105  0.3045 -0.0777 -0.0272
21739W        W37356   1.049   7.742  16.070 -0.4704  0.1852 -0.1453
21740W        W37357  12.988   3.765  12.472 -0.1513 -0.0501  0.0395
21741W        W37358   0.846   5.755   5.213 -0.2906 -0.2335  0.2255
21742W        W37359   9.074  10.881  16.310 -0.2676  0.4511 -0.4702
21743W        W37360   5.417   5.824  15.160  0.1240 -0.0787  0.1819
21744W        W37361   7.996  16.701  13.626 -0.2816 -0.1180  0.4406
21745W        W37362   6.378   1.143   2.543 -0.0390 -0.1647 -0.1262
21746W        W37363  17.638   0.743  16.578 -0.3348 -0.0737  0.0600
21747W        W37364  17.389  17.843   2.704  0.1930  0.0130  0.1205
21748W        W37365  12.874   8.161   2.453  0.4338 -0.3089  0.0944
21749W        W37366   9.632   6.119  13.966  0.2219 -0.2301 -0.0778
21750W        W37367  16.070   2.264  12.677 -0.2048 -0.1259 -0.1718
21751W        W37368   8.407   6.249   6.356  0.3317  0.2606 -0.2201
21752W        W37369  12.345   5.241  15.887 -0.2349 -0.0939 -0.2387
21753W        W37370  14.459  15.211  10.877 -0.1978 -0.1841 -0.2487
21754W        W37371  14.735   2.819   5.397 -0.0478 -0.0064 -0.0291
21755W        W37372   6.451   1.428   3.026 -0.0116  0.1548 -0.1260
21756W        W37373   0.067  10.620  16.133 -0.0160 -0.0978 -0.1007
21757W        W37374   0.081  12.941  15.916  0.0516 -0.3661 -0.0134
21758W        W37375   4.167  14.934  14.380 -0.1191  0.0415  0.0469
21759W        W37376  17.757   5.072  13.997  0.0085  0.0649  0.2411
21760W        W37377   7.263  12.053  16.257  0.0788  0.0695 -0.1767
21761W        W37378  16.606  10.238   3.982  0.1143  0.2412  0.4464
21762W        W37379   4.866   9.915  12.364  0.0244 -0.0266  0.0678
21763W        W37380  15.452  15.625   5.325 -0.0310 -0.0286  0.0587
21764W        W37381  13.273   0.715   5.170  0.4194 -0.1162  0.0017
21765W        W37382  15.482   0.754   6.176  0.0581  0.2482  0.0941
21766W        W37383  11.328   0.101  11.568  0.2160 -0.1671  0.1355
21767W        W37384  10.490   9.078  16.317  0.0786  0.2204  0.0813
21768W        W37385  17.174   7.468  15.929 -0.0417 -0.1607  0.2302
21769W        W37386  15.754  15.508  16.686 -0.0172  0.1759 -0.1840
21770W        W37387  13.308   4.692  15.300 -0.3020  0.2064  0.0002
21771W        W37388   7.695  10.690  15.094 -0.1478 -0.1297  0.1218
21772W        W37389  15.832  17.104  15.962 -0.0766 -0.2918 -0.0398
21773W        W37390   0.184  16.533   6.287 -0.2717 -0.0572 -0.3814
21774W        W37391   9.763  13.020   2.505 -0.0917  0.2145 -0.0872
21775W        W37392  15.187  16.935  14.458  0.2321 -0.0298  0.1332
21776W        W37393   7.264   5.341   0.905 -0.0055  0.1025  0.3948
21777W        W37394   3.903  10.571   4.122 -0.3382 -0.0739  0.1001
21778W        W37395  15.949  15.775   5.125  0.1266 -0.0194  0.0782
21779W        W37396  12.810   0.426  11.767  0.0435  0.1550  0.1741
21780W        W37397   4.104   5.520  10.252 -0.1813 -0.0591  0.1137
21781W        W37398  13.813   4.606  13.150 -0.1630  0.1687 -0.3958
21782W        W37399   2.455   1.590   5.049 -0.0911 -0.0349  0.5239
21783W        W37400   4.427  10.829   5.334 -0.3260 -0.0212  0.3321
21784W        W37401   3.371  10.706  13.974 -0.2386 -0.0581  0.2154
21785W        W37402   5.215   8.086  13.066 -0.4425 -0.1508  0.0700
21786W        W37403  14.460  15.844   1.124  0.3467  0.0400 -0.0000
21787W        W37404   4.732  14.045   0.569  0.2692 -0.0101  0.2291
21788W        W37405  10.438  10.644   2.875 -0.1364 -0.0446  0.2267
21789W        W37406  14.992  16.616  12.377  0.2536 -0.0699  0.0701
21790W        W37407   4.972   6.486  16.078  0.3305 -0.2210  0.1106
21791W        W37408  16.445  11.135  11.750 -0.0199 -0.3278 -0.3271
21792W        W37409   1.345   3.182   2.660  0.1372  0.1466 -0.2674
21793W        W37410   6.250   0.253  13.651 -0.0723  0.2579 -0.1708
21794W        W37411  14.861   4.507   0.916 -0.0563  0.0976  0.0298
21795W        W37412  10.025   0.606   3.543 -0.0288  0.1724  0.1161
21796W        W37413  16.471   5.470   1.366 -0.1316  0.0164 -0.1999
21797W        W37414   6.472   8.917  12.173  0.0953  0.1685  0.3186
21798W        W37415  14.200   0.671  16.354  0.0067  0.0062 -0.1712
21799W        W37416  11.863  16.551   3.937  0.2911  0.0346  0.0831
21800W        W37417  10.063   6.413  16.066 -0.0511  0.1115  0.0061
21801W        W37418   7.952   7.544   0.481  0.1107 -0.1823 -0.2294
21802W        W37419  13.762  14.638   2.632  0.1535 -0.2811  0.0967
21803W        W37420  11.119   2.915  11.903 -0.0615 -0.1215  0.2033
21804W        W37421  13.493  14.987   5.767  0.1852 -0.0130 -0.0934
21805W        W37422   8.561  11.607   3.397 -0.0453 -0.1923  0.4945
21806W        W37423   3.795   7.273   0.408 -0.0320  0.2547 -0.0861
21807W        W37424  14.478  11.776   0.634  0.4462  0.2505  0.0413
21808W        W37425  12.522  13.952   6.145  0.1238  0.1420  0.0254
21809W        W37426  16.594  15.402   2.713  0.1502 -0.1378  0.0185
21810W        W37427  12.076   6.961  15.161 -0.1578 -0.2732 -0.0259
21811W        W37428   2.211  12.976   0.472 -0.0487 -0.0185  0.0039
21812W        W37429   7.085  14.102  16.769 -0.1866  0.0023 -0.2184
21813W        W37430  13.624   1.384   5.567  0.0652  0.0665  0.1135
21814W        W37431  16.013   0.220  14.622  0.2449 -0.1529 -0.0311
21815W        W37432   4.209  11.891   6.163  0.1284  0.0733  0.0230
21816W        W37433   0.361   5.581   1.020 -0.3687  0.3049 -0.1638
21817W        W37434  17.641   4.289  12.209 -0.0322 -0.1348 -0.0236
21818W        W37435  12.241  10.068  13.559 -0.3030 -0.1789 -0.0973
21819W        W37436  12.731  17.424   2.834  0.2882  0.3342  0.0386
21820W        W37437  16.432   1.354   5.306 -0.1593 -0.2076  0.0238
21821W        W37438  15.393   6.786   2.852 -0.2000 -0.2072 -0.0431
21822W        W37439  14.106   5.011   0.934  0.0217  0.1158 -0.0647
21823W        W37440   1.830   4.345   2.229 -0.1779  0.0702 -0.0345
21824W        W37441   1.503  17.763  14.788 -0.1097  0.0195 -0.1671
21825W        W37442  12.351  15.785   0.779  0.3635  0.1413  0.1066
21826W        W37443  11.191  13.274  15.370 -0.3560 -0.4420 -0.0275
21827W        W37444  13.039   6.273  13.598 -0.0527 -0.0585 -0.0042
21828W        W37445  11.530   0.239   4.296  0.2154  0.0424 -0.0671
21829W        W37446  16.762  16.592  15.827  0.0564  0.0057 -0.3226
21830W        W37447   2.397  10.773  14.203 -0.3405  0.0068  0.1067
21831W        W37448  12.015   4.503   3.334 -0.2543 -0.1699 -0.5082
21832W        W37449   0.113  12.551   3.022 -0.1327 -0.1138 -0.3990
21833W        W37450  11.842  10.612  15.996  0.2014  0.4614 -0.3606
21834W        W37451  16.562   3.011   3.404  0.1234  0.2311 -0.0943
21835W        W37452   1.045  11.249  11.623 -0.1948  0.0031 -0.0937
21836W        W37453   0.366  10.966  16.490 -0.0157  0.1562  0.1038
21837W        W37454  17.584  14.315  13.357  0.1934 -0.1977 -0.0654
21838W        W37455  17.290   7.857   0.760  0.2254 -0.0207  0.1598
21839W        W37456   7.826   6.748   4.654 -0.4693  0.0936 -0.0252
21840W        W37457   1.438  11.361  12.954  0.1874  0.5005 -0.1082
21841W        W37458   5.868   4.498   2.888  0.2576 -0.2809  0.0843
21842W        W37459   4.332   3.549  11.188 -0.0166  0.2150  0.2316
21843W        W37460  16.155  12.972   2.468 -0.0377 -0.1045  0.1498
21844W        W37461  16.074   3.168   1.364 -0.3393  0.4293 -0.2934
21845W        W37462  10.752   1.069  12.822  0.1519 -0.4536 -0.0996
21846W        W37463   7.852  16.182  14.845  0.0257 -0.2669  0.1852
21847W        W37464   0.820   8.142  13.856  0.0463  0.1864  0.0872
21848W        W37465   3.115   7.048  13.370 -0.1922  0.1923  0.2671
21849W        W37466  13.523   7.546  13.290 -0.1454  0.2481 -0.1091
21850W        W37467   2.368  15.453  16.610 -0.2886 -0.0577  0.1511
21851W        W37468   9.890   0.979  13.750 -0.0578 -0.1703 -0.0143
21852W        W37469  10.010   5.610   1.254 -0.2908 -0.2894 -0.1086
21853W        W37470   2.542  11.671   2.986 -0.0463  0.3070 -0.0987
21854W        W37471   1.712  15.137  11.627 -0.0780  0.0103 -0.0997
21855W        W37472   0.510  11.260  15.076  0.2950  0.0053  0.0014
21856W        W37473  12.733  11.925  15.495 -0.2299 -0.1943  0.1890
21857W        W37474  15.274   7.619  15.735  0.1054 -0.2878 -0.0096
21858W        W37475   2.139  16.138  16.107  0.1208 -0.0857  0.2720
21859W        W37476   7.450   1.333   5.966  0.0142 -0.2699 -0.2812
21860W        W37477   2.973  15.648   2.097 -0.1648  0.1492  0.0939
21861W        W37478  11.279   7.688   4.057  0.1539 -0.0346  0.0795
21862W        W37479  16.110   0.894   0.875  0.4641  0.0325  0.1640
21863W        W37480   3.437  10.475   4.518 -0.0974  0.0567  0.2313
21864W        W37481   6.046   3.123  12.513 -0.0850 -0.0541 -0.1775
21865W        W37482   0.574  13.828   1.160  0.1032  0.1797 -0.1393
21866W        W37483  17.084  16.805  12.112 -0.0221 -0.0096  0.2563
21867W        W37484   1.466  11.265   5.322  0.0091 -0.0514 -0.1650
21868W        W37485  16.669  10.532  15.799  0.1311 -0.2423  0.0698
21869W        W37486   2.854   3.532   3.971  0.2243  0.0178 -0.1318
21870W        W37487   4.032   7.610   4.269 -0.0534 -0.0312 -0.3664
21871W        W37488  14.016   8.141   1.434 -0.0961 -0.1336  0.0232
21872W        W37489   5.821   6.786  14.206  0.0320  0.1450 -0.0779
21873W        W37490   4.516  16.204   3.845 -0.0480 -0.0002  0.0521
21874W        W37491  12.801   2.345   4.864  0.0234  0.1790 -0.2136
21875W        W37492  15.279   6.668   5.094 -0.2210  0.0027  0.2562
21876W        W37493   8.364  16.648  14.539  0.1456  0.0165  0.0555
21877W        W37494   0.365  16.501   0.614 -0.0252  0.0558  0.1650
21878W        W37495   8.152   0.660   4.425 -0.0139  0.0537  0.2701
21879W        W37496   5.577   7.276  12.298 -0.1267  0.1518  0.1301
21880W        W37497   2.842  16.203   3.239  0.1495 -0.3489 -0.2826
21881W        W37498   4.811   1.150   1.494 -0.2297  0.0646 -0.4035
21882W        W37499  10.511   6.245  13.890 -0.1792  0.1928  0.1001
21883W        W37500   3.434   2.582   3.920 -0.0432  0.1335 -0.3009
21884W        W37501   5.202  12.092   3.999 -0.1427  0.1818  0.5027
21885W        W37502   8.267  14.150   1.149 -0.0309  0.0014 -0.2113
21886W        W37503   7.115  16.977   1.994  0.1567  0.1872 -0.1212
21887W        W37504   9.742   5.643  11.741 -0.0295 -0.0576  0.2527
21888W        W37505  17.559   9.807  16.547  0.0029  0.0132 -0.0338
21889W        W37506   7.001   6.935   1.959 -0.0055 -0.0343  0.0614
21890W        W37507   4.758  17.591  15.378 -0.4449  0.0871 -0.2314
21891W        W37508   3.357   5.804   1.070 -0.0095  0.2113 -0.0631
21892W        W37509  14.427  17.295  11.831 -0.2652  0.0745 -0.2579
21893W        W37510  11.775   9.000   3.033 -0.2833 -0.4267 -0.1174
21894W        W37511   0.851  17.310  16.369  0.1036 -0.0608 -0.0254
21895W        W37512   7.511  15.397   2.915 -0.1448 -0.1161  0.0795
21896W        W37513   5.606   1.254  14.380  0.1178  0.0323 -0.1349
21897W        W37514  14.573  13.579  16.398  0.1655  0.0919 -0.1893
21898W        W37515   9.323   0.975   0.406 -0.0469 -0.1588 -0.3621
21899W        W37516  14.041   4.289  12.779 -0.1574 -0.2477  0.0667
21900W        W37517  13.774   2.677   1.873 -0.1422 -0.3392 -0.0490
21901W        W37518  15.735   1.281  13.184 -0.1739  0.0292 -0.1220
21902W        W37519  13.121  10.149   3.141 -0.0567  0.1048 -0.3625
21903W        W37520   0.952   1.566  15.475  0.2673 -0.0094 -0.2464
21904W        W37521  17.608  12.985   3.566  0.0072  0.0883 -0.1568
21905W        W37522   0.831   8.010  13.371  0.0113  0.3840 -0.0034
21906W        W37523  16.705   0.515  12.455  0.0179  0.1472 -0.0325
21907W        W37524   8.855   9.617  13.285 -0.0070  0.2244  0.0189
21908W        W37525  13.854   8.714  11.750 -0.0987 -0.0946 -0.0873
21909W        W37526   1.683   0.894   3.683  0.0931  0.0831  0.2185
21910W        W37527   5.989  16.032  11.191  0.2873  0.0575 -0.0464
21911W        W37528   8.758   8.895  15.419 -0.0083 -0.0183  0.4237
21912W        W37529   9.177   8.810  14.015  0.1478  0.0811 -0.0692
21913W        W37530   8.486   8.456  15.154  0.0585 -0.1279  0.1669
21914W        W37531   9.833   5.651  13.802 -0.1818  0.1655  0.1992
21915W        W37532  16.821   4.000   0.621  0.0642  0.0539 -0.0604
21916W        W37533   2.071  12.674   1.552  0.1233 -0.0055  0.0157
21917W        W37534   6.216   5.959   5.912  0.0361 -0.0452  0.1352
21918W        W37535   3.042   5.546  11.696  0.1321 -0.3673 -0.0862
21919W        W37536  15.676   0.535  12.594  0.1039 -0.4767  0.1574
21920W        W37537  14.418  10.120  13.771 -0.0342 -0.2071 -0.0452
21921W        W37538   2.788   2.814   5.373  0.0410  0.2145  0.0959
21922W        W37539   7.297   1.448   1.203  0.0079 -0.1621 -0.0700
21923W        W37540  12.950  10.604  13.276 -0.1971 -0.1278  0.0519
21924W        W37541  17.752  13.316   2.313 -0.0864  0.0681  0.0526
21925W        W37542   5.531   7.133   0.606  0.0669 -0.3898 -0.1194
21926W        W37543  11.957  12.234   3.167  0.1725  0.1003  0.0212
21927W        W37544   9.582   2.790   4.016  0.0267  0.0579 -0.4034
21928W        W37545  13.315  13.191   5.334  0.1746 -0.0772  0.3584
21929W        W37546  12.303  15.169   4.302 -0.1927  0.3111  0.0862
21930W        W37547  17.670   4.002  12.632 -0.0256  0.1331  0.0343
21931W        W37548   2.498   3.104   0.329  0.1543 -0.0235  0.0927
21932W        W37549  12.668  17.042   4.945  0.2559 -0.2857  0.0654
21933W        W37550  12.449  12.073   3.765  0.2105 -0.0401  0.0300
21934W        W37551   9.202  14.112  13.243 -0.3456  0.3116 -0.1001
21935W        W37552  10.070   0.223   4.182  0.0545 -0.0604  0.2978
21936W        W37553   4.270  13.122  15.614  0.0550  0.0234  0.0046
21937W        W37554   6.810  16.589   2.777 -0.2129 -0.1490 -0.0596
21938W        W37555   6.488   5.738   4.029 -0.1536 -0.3554 -0.1702
21939W        W37556   4.554   6.304   1.247  0.3080  0.0089 -0.1008
21940W        W37557  13.412   6.758  16.722 -0.0201  0.0701  0.0175
21941W        W37558   2.600   6.171  15.264  0.1763  0.0637  0.0036
21942W        W37559   5.657   2.646  15.974  0.0572 -0.1757 -0.1093
21943W        W37560   9.198  11.303  13.698 -0.2657  0.2771 -0.2273
21944W        W37561   1.113   0.586   0.974 -0.2178  0.0851 -0.2453
21945W        W37562   4.110  13.683  12.813 -0.2954 -0.1544  0.1301
21946W        W37563  14.223   0.490  11.582  0.2393 -0.0072 -0.0782
21947W        W37564  12.427  17.052   1.436 -0.3449 -0.3235  0.0267
21948W        W37565   3.641   1.474  13.953  0.0637 -0.0593  0.0750
21949W        W37566   3.173  15.921  13.575 -0.0735 -0.2293  0.0618
21950W        W37567   6.366   5.728   0.719 -0.2254  0.1430  0.0246
21951W        W37568  14.076  16.795   1.658  0.0517  0.2044 -0.2738
21952W        W37569  13.468  13.803   1.583 -0.1773 -0.0933  0.1480
21953W        W37570   9.256  12.000  12.954 -0.0147  0.2676 -0.0211
21954W        W37571  12.979  14.061  13.603 -0.3145 -0.1968  0.2026
21955W        W37572   5.811  13.333  11.836  0.2637  0.0935 -0.0210
21956W        W37573   5.161  13.564   3.625 -0.1657  0.1039  0.1473
21957W        W37574   2.071   8.697  13.014 -0.2884 -0.0369  0.1871
21958W        W37575   0.067  16.244  13.516  0.1588 -0.4696  0.2133
21959W        W37576   5.120  17.525   2.820  0.0515 -0.1317  0.1797
21960W        W37577   5.441   5.762   0.427  0.1516 -0.0019 -0.0809
21961W        W37578   8.737  14.264   3.041  0.0759  0.1682 -0.2691
21962W        W37579  14.986   6.626  16.545  0.2711  0.0919 -0.0653
21963W        W37580   6.770   7.548   0.073  0.0167 -0.3159  0.3203
21964W        W37581  17.030  12.604  14.539  0.2306 -0.0327 -0.0616
21965W        W37582  15.855   6.129   1.899 -0.0520 -0.1843  0.1264
21966W        W37583   9.946  10.490   1.707 -0.0909 -0.0960  0.0749
21967W        W37584  14.282   8.063   1.024  0.0434 -0.0655 -0.1076
21968W        W37585   2.800  15.099  11.236  0.0544 -0.1630  0.3448
21969W        W37586   7.670  17.240  13.069  0.0063 -0.0045 -0.1079
21970W        W37587  12.168  13.505  12.516 -0.2876  0.3805 -0.0826
21971W        W37588  12.105   7.551   5.627 -0.0586 -0.2937  0.1291
21972W        W37589  13.669  11.503  16.218  0.3439  0.0901 -0.0210
21973W        W37590  12.254  12.560  12.641 -0.0105  0.1411 -0.1565
21974W        W37591   0.600   6.618   2.425  0.1682  0.1328 -0.0416
21975W        W37592   5.745  13.111  14.727  0.0604  0.2152  0.0636
21976W        W37593   1.634  16.150   2.595 -0.0525  0.1562  0.4119
21977W        W37594   6.808   6.638   3.077  0.0225 -0.0906 -0.0315
21978W        W37595   4.975  13.924   4.405  0.0123 -0.0290  0.0233
21979W        W37596  10.208  16.611  10.143 -0.0067 -0.2022  0.2901
21980W        W37597   9.475   6.090  14.665 -0.2677 -0.0205 -0.0016
21981W        W37598   3.052   6.645   3.924 -0.0878 -0.0652 -0.1673
21982W        W37599   3.935  11.565   4.138  0.1859  0.2173 -0.0179
21983W        W37600   0.717  15.531   3.831 -0.0953  0.1754  0.2976
21984W        W37601   9.969   8.779  13.475 -0.3823  0.3391  0.1889
21985W        W37602  13.133   3.408   5.485  0.1153 -0.1836 -0.1319
21986W        W37603   8.332  16.167  14.697  0.0939 -0.2298  0.0004
21987W        W37604   6.075  14.002  13.463 -0.0575  0.1960 -0.3240
21988W        W37605  15.094  15.875  12.804 -0.0191  0.2213  0.0658
21989W        W37606  16.789   3.032   0.964 -0.3275  0.0285 -0.0351
21990W        W37607   0.491   5.598   0.040 -0.1444 -0.3970  0.1380
21991W        W37608   2.010   5.969  10.663  0.0023  0.0899  0.0468
21992W        W37609   9.915   6.973   4.391  0.0985 -0.0233  0.0156
21993W        W37610   6.097  13.088   4.991 -0.1807  0.1079 -0.0852
21994W        W37611   2.558  13.022  14.813  0.1182 -0.1804  0.1003
21995W        W37612  13.809   1.024   2.703  0.3208 -0.2988  0.1824
21996W        W37613  15.697  17.247  14.963  0.0791  0.0640  0.0711
21997W        W37614  15.159   3.694   4.748  0.1565 -0.1616 -0.0058
21998W        W37615   6.004   9.032   0.471 -0.0570 -0.0726 -0.0723
21999W        W37616   1.431   5.958   0.865 -0.1571 -0.3596  0.0664
22000W        W37617   8.586  10.621  12.143  0.2623 -0.0287  0.1794
22001W        W37618  11.484  14.762  12.479  0.0478 -0.0123 -0.0889
22002W        W37619   3.597   3.163   5.525  0.2465  0.0504 -0.0631
22003W        W37620   4.879   0.779   0.148 -0.0080  0.2578 -0.0766
22004W        W37621   0.656   5.141  16.512 -0.0658 -0.3781  0.0547
22005W        W37622   1.456  10.793   4.149 -0.1324 -0.1467  0.1389
22006W        W37623  16.034  13.712   1.804  0.0605  0.3205  0.2014
22007W        W37624  14.144  15.647  16.570  0.1792  0.0529 -0.2061
22008W        W37625   1.691   0.349  14.803 -0.3102 -0.1435  0.0820
22009W        W37626   7.571   4.687   3.541  0.0488  0.3539 -0.1868
22010W        W37627  15.300   4.539   0.641 -0.1110 -0.2063 -0.0667
22011W        W37628  12.459  17.160  11.127 -0.1141  0.0437  0.3865
22012W        W37629  10.273   2.305  15.905 -0.0583 -0.0236 -0.1922
22013W        W37630   2.985  13.571   3.779 -0.0699 -0.0535  0.3383
22014W        W37631   4.201  13.372  11.366 -0.0370 -0.2742  0.1742
22015W        W37632   3.027   5.555  12.494  0.1070  0.0221  0.2348
22016W        W37633   1.376  15.036  15.182 -0.1224  0.0330  0.0820
22017W        W37634   6.331  14.705   4.920  0.1394 -0.0636  0.0319
22018W        W37635   0.536  12.183  15.266 -0.2404  0.2001 -0.2624
22019W        W37636   3.403   8.491  11.236  0.1301 -0.1482 -0.0449
22020W        W37637  16.568   3.145  13.739 -0.2376 -0.1347 -0.0851
22021W        W37638   5.647  16.331   0.545  0.0552 -0.0137 -0.2239
22022W        W37639   6.537  16.851  12.636  0.3341 -0.0043 -0.2058
22023W        W37640  12.862   6.057  16.414 -0.1098 -0.5807  0.4363
22024W        W37641  10.106  12.320   1.484  0.2384 -0.2930  0.1044
22025W        W37642  12.818  14.899  15.307 -0.2234 -0.0621 -0.0155
22026W        W37643  11.956  15.077  13.540 -0.0433 -0.2278  0.1023
22027W        W37644  11.038  17.694   3.356  0.1053 -0.0380  0.0658
22028W        W37645   9.060   1.902  12.466 -0.0706 -0.0075 -0.1863
22029W        W37646  11.913   1.231   2.621  0.0520  0.0831 -0.1856
22030W        W37647   1.005   6.724   4.008 -0.0249 -0.1008  0.0997
22031W        W37648  15.777  12.216  13.366 -0.0079  0.4101 -0.0742
22032W        W37649  15.369   1.345   5.518 -0.0170 -0.2407 -0.0847
22033W        W37650   3.046  12.156  16.247 -0.0694 -0.2383 -0.2359
22034W        W37651  11.532   8.129   4.348 -0.0591 -0.1653  0.0072
22035W        W37652   9.303   9.955   1.528  0.4506 -0.0493 -0.2202
22036W        W37653   8.280   5.092   5.413 -0.0640  0.0916  0.0695
22037W        W37654  11.539  15.420  15.520  0.1506  0.1583  0.1573
22038W        W37655  17.714  13.784   0.823  0.1831 -0.3545  0.1789
22039W        W37656   1.529   6.820  12.857  0.2873 -0.1136  0.3429
22040W        W37657  17.544  17.723  14.595  0.1311  0.0962 -0.1199
22041W        W37658   8.828  14.747   2.845  0.0503  0.0975 -0.0960
22042W        W37659  12.284   4.146  14.960  0.2156  0.0264 -0.1445
22043W        W37660   7.593  12.177  14.962 -0.0682 -0.0007  0.1635
22044W        W37661  17.461  15.334   0.079 -0.4404  0.0563 -0.3361
22045W        W37662   9.007   0.216   0.256  0.2679 -0.1531  0.0372
22046W        W37663   9.313   8.859  14.663  0.2096 -0.4456  0.2921
22047W        W37664  10.998   7.211  12.900 -0.0945 -0.3655  0.1036
22048W        W37665   4.032   5.271   3.237 -0.0873 -0.0106 -0.1668
22049W        W37666   3.399   8.296  14.955  0.0608  0.1207  0.3061
22050W        W37667  15.315  16.902   3.566 -0.0408 -0.0203 -0.2138
22051W        W37668   7.386  12.405   2.178 -0.1621  0.2239  0.1590
22052W        W37669   3.389   7.371  12.558  0.0186  0.1162 -0.0418
22053W        W37670  16.146  15.406   0.271 -0.0325 -0.0328  0.0762
22054W        W37671  11.522   0.451  14.602  0.0369 -0.3727  0.1295
22055W        W37672  16.337  12.965  14.632 -0.0154 -0.1982 -0.2594
22056W        W37673  14.690  14.398   1.640 -0.1285  0.2510 -0.0108
22057W        W37674   0.079   5.543   3.373  0.0755 -0.1157 -0.0362
22058W        W37675   6.940  14.817   5.774  0.0751  0.1226 -0.1844
22059W        W37676   3.748  15.944  11.198  0.0934  0.1297  0.3280
22060W        W37677  10.286  16.952   1.551 -0.4626  0.0128  0.0683
22061W        W37678  16.744   8.381  14.474  0.3035  0.0789 -0.0898
22062W        W37679   7.600  11.200  11.783  0.1395 -0.1257  0.2695
22063W        W37680   0.167   2.851  11.985  0.1841 -0.2417  0.2663
22064W        W37681  12.207   2.277   1.553 -0.0385 -0.0591 -0.0784
22065W        W37682  13.379  12.478  13.770  0.1446 -0.1245  0.0050
22066W        W37683  12.887   0.030  16.755 -0.0837 -0.2767  0.0485
22067W        W37684  17.254   6.187  14.476 -0.1235  0.2096 -0.0256
22068W        W37685   9.801   9.232  14.682  0.2605  0.3601  0.1472
22069W        W37686  17.328  10.793   5.549 -0.1078  0.0387 -0.4928
22070W        W37687  14.302  14.327  13.509 -0.0655  0.0643 -0.3156
22071W        W37688  12.543  12.534  16.257 -0.1313 -0.1013 -0.2120
22072W        W37689   4.033  13.008   4.470  0.2275 -0.2609 -0.0994
22073W        W37690  16.984  11.473  16.041  0.1671  0.0406  0.0691
22074W        W37691   7.536   7.747  14.410 -0.1519 -0.4639  0.0155
22075W        W37692   3.842  11.616  13.769 -0.1023  0.1076  0.2011
22076W        W37693   0.479   9.551   2.573 -0.0341 -0.3813  0.0499
22077W        W37694   4.630  12.602   3.729  0.0741 -0.3181 -0.0741
22078W        W37695  17.503  16.615  13.343 -0.2059 -0.0040  0.2258
22079W        W37696  11.829  14.864   3.267  0.0596  0.2556 -0.0328
22080W        W37697   6.339   3.176  16.451  0.1400 -0.1719 -0.1718
22081W        W37698  12.813   2.226   1.084  0.3029 -0.0569  0.1373
22082W        W37699   8.709   4.225   2.552 -0.1890 -0.1977  0.1714
22083W        W37700   0.490   1.386   3.141  0.0804  0.3105 -0.3104
22084W        W37701  16.648  16.794   3.469  0.1878 -0.2047  0.0918
22085W        W37702  15.934  12.699   1.151 -0.0398 -0.0386 -0.0044
22086W        W37703   8.043   6.376   3.649  0.1889  0.2539 -0.0206
22087W        W37704   9.509   6.065  12.880 -0.0619 -0.2704  0.0479
22088W        W37705   9.333  14.799   3.552 -0.3889  0.3459 -0.1435
22089W        W37706  13.911   0.646   2.325 -0.2198  0.2656 -0.0978
22090W        W37707  13.084   9.048  12.904 -0.2468  0.1141 -0.3414
22091W        W37708  11.378  15.308  13.353 -0.1974 -0.1712 -0.1328
22092W        W37709  15.926   4.752  14.717 -0.0595  0.1501 -0.1600
22093W        W37710  16.281   9.928   4.421  0.0079  0.1358 -0.0097
22094W        W37711   9.028   9.005   2.504 -0.1818  0.2488  0.1741
22095W        W37712  16.731   8.611  15.342  0.1301  0.1030  0.1812
22096W        W37713   1.863  11.994   2.112  0.1248  0.2959  0.1404
22097W        W37714   8.498   1.826  15.944 -0.1239 -0.2919  0.0403
22098W        W37715   8.885   0.923  16.483  0.0494  0.0963  0.4061
22099W        W37716   0.643  16.594   2.813 -0.0808 -0.0114  0.0838
22100W        W37717   7.100   4.032  13.553 -0.1213  0.1878 -0.3225
22101W        W37718   5.161   9.390  16.449 -0.0610 -0.1443  0.2148
22102W        W37719  11.752   7.670  15.933  0.0427  0.3663  0.0877
22103W        W37720   6.585   0.357   5.244  0.2922 -0.1998 -0.1350
22104W        W37721   4.017   0.697   3.429 -0.0667  0.0760  0.5244
22105W        W37722   8.729   9.598  14.798  0.1228  0.1211 -0.2493
22106W        W37723   2.578  10.331   1.188 -0.0037  0.0036 -0.1468
22107W        W37724   1.034  17.005  13.035 -0.1642 -0.0600 -0.1662
22108W        W37725   6.204  12.356  13.146  0.1629  0.1663  0.1465
22109W        W37726   6.433  11.997   0.247  0.0428  0.0454  0.1361
22110W        W37727  13.976   3.217   1.763  0.0651  0.0222 -0.2284
22111W        W37728  17.170   1.225   2.153 -0.0104  0.0246  0.0598
22112W        W37729  16.615  11.668   5.135 -0.2241 -0.0254  0.0290
22113W        W37730  17.148   2.661  13.969  0.0122 -0.0126 -0.1928
22114W        W37731  16.265   8.627   2.372  0.2393  0.0691 -0.1042
22115W        W37732  17.552  13.802  16.440  0.0747  0.3214 -0.2520
22116W        W37733   0.609  13.183   0.902 -0.3502 -0.2317 -0.0645
22117W        W37734   1.251  14.105  11.963 -0.1699  0.1962 -0.0159
22118W        W37735  10.073  13.492  14.643  0.0754 -0.2489  0.0190
22119W        W37736  17.229   2.086   0.382 -0.1950  0.0747 -0.3095
22120W        W37737  11.534  13.188   0.629  0.0855  0.1727 -0.0422
22121W        W37738   0.264   8.891   4.488 -0.0633  0.2741  0.0485
22122W        W37739  13.376   7.283   5.916 -0.1267  0.2546 -0.4819
22123W        W37740  16.039   9.955  13.828 -0.0425  0.3632  0.5610
22124W        W37741  16.443  10.116  12.870  0.1905  0.1879  0.0064
22125W        W37742   5.534  12.380   5.798 -0.0180 -0.1276  0.0616
22126W        W37743   8.998   5.207   0.411 -0.1132 -0.0430  0.3258
22127W        W37744  16.373   7.768  11.330  0.1227  0.2115  0.0833
22128W        W37745  16.704   1.944  16.570  0.0834 -0.2753 -0.1853
22129W        W37746   6.998   7.646  15.144 -0.0138 -0.0010  0.0091
22130W        W37747  16.454   6.324   1.054  0.0364 -0.0164 -0.1104
22131W        W37748  14.843  14.028   0.290 -0.2958  0.0210  0.3036
22132W        W37749   3.698   0.882   5.622  0.0256 -0.1833 -0.0691
22133W        W37750   6.404  16.118  11.481  0.0087  0.1544 -0.1027
22134W        W37751   0.813  16.180  16.691 -0.3239 -0.0951  0.1178
22135W        W37752  14.238  13.093   3.398 -0.1147 -0.1047 -0.0456
22136W        W37753  13.712  12.853  13.902 -0.0201  0.0454 -0.0080
22137W        W37754   1.076  10.247   0.218  0.0179  0.1109 -0.0411
22138W        W37755   8.376   9.128  15.649  0.1230  0.1431 -0.0877
22139W        W37756  13.838  10.457   2.495 -0.0502 -0.1353  0.0893
22140W        W37757   4.194  17.765   0.013 -0.2541  0.1009 -0.0971
22141W        W37758  16.266  16.130   0.478  0.0032  0.0497  0.0647
22142W        W37759   3.264  17.026   3.574  0.2991 -0.0177 -0.0108
22143W        W37760   0.412   8.388   4.340  0.0431 -0.3905 -0.0569
22144W        W37761  17.696  14.609   2.705 -0.0429 -0.1829  0.2968
22145W        W37762   0.475   4.685  13.719  0.3542 -0.1446  0.0730
22146W        W37763  16.651   3.278  16.122 -0.0755  0.3028  0.0478
22147W        W37764  12.093  10.573  15.273  0.1415  0.1188 -0.1667
22148W        W37765  14.763   3.896   5.309  0.3796 -0.2306 -0.0479
22149W        W37766   4.358   9.545   4.446 -0.0096  0.1235 -0.2334
22150W        W37767   1.061  14.754  14.359  0.2822  0.0647 -0.1475
22151W        W37768   1.615  17.137   0.705  0.1929 -0.1650  0.1565
22152W        W37769   2.826  15.200  15.020 -0.0462 -0.1240 -0.2334
22153W        W37770  15.006   5.917  12.445 -0.0951  0.2686 -0.0577
22154W        W37771   2.220  16.851  16.708  0.3846  0.1461  0.2957
22155W        W37772   1.473  12.188   1.818 -0.5865 -0.1889  0.0741
22156W        W37773   5.538   8.979   0.158 -0.1788 -0.0427  0.0829
22157W        W37774  10.683   5.289   2.873 -0.1921  0.1065 -0.2218
22158W        W37775   7.784  13.371   1.364 -0.0281  0.1065  0.2009
22159W        W37776   0.784  12.163   3.586 -0.0544 -0.0265 -0.2135
22160W        W37777  13.742  13.593   3.448 -0.2096 -0.0197 -0.3351
22161W        W37778  12.243   4.624   6.083 -0.1478 -0.0432 -0.0647
22162W        W37779  12.398   1.934   1.229 -0.1759  0.1477  0.0374
22163W        W37780   9.690  13.678  13.785 -0.1282  0.1851  0.1717
22164W        W37781  16.989   9.038  12.144 -0.0155  0.0944  0.1270
22165W        W37782   4.580   0.693   1.328  0.2156 -0.0543  0.4348
22166W        W37783  14.459  14.528   4.870  0.2552 -0.0775 -0.2183
22167W        W37784   1.738   3.476  13.950 -0.2168  0.0559 -0.1413
22168W        W37785   8.282  14.798   2.500 -0.2543 -0.0544 -0.0600
22169W        W37786  17.012  13.299  15.766 -0.0303 -0.1893 -0.1795
22170W        W37787  13.517   8.886  15.320  0.1342 -0.2248 -0.3069
22171W        W37788  10.600   7.484  14.203  0.0392 -0.4599  0.0175
22172W        W37789   0.733   8.273   3.958 -0.1089  0.0499  0.0837
22173W        W37790   9.072  15.487  11.938 -0.3185 -0.0141 -0.0047
22174W        W37791  17.511   3.950   2.029 -0.0311 -0.3152  0.0068
22175W        W37792   3.217   2.964  15.655  0.0460  0.1767  0.2160
22176W        W37793   7.496   5.938   4.659  0.1515 -0.1693 -0.2199
22177W        W37794  17.826   9.476  13.033 -0.2901 -0.0864 -0.0449
22178W        W37795  11.638   8.150  15.041 -0.0186  0.3392  0.0935
22179W        W37796  17.015   9.895   1.458 -0.0842 -0.3812 -0.2633
22180W        W37797   4.806   6.376   4.205 -0.2706  0.2417 -0.0358
22181W        W37798   6.978  13.322  15.650  0.2835  0.2223  0.1359
22182W        W37799  16.011   6.901  14.760  0.1461  0.1396 -0.1913
22183W        W37800   3.844   9.674  11.943  0.2054  0.1002  0.0362
22184W        W37801   2.855   2.233   3.476  0.3172  0.1958  0.0619
22185W        W37802  16.031   4.030  14.271 -0.2232 -0.1592  0.2268
22186W        W37803   0.531   2.726   1.227  0.0605  0.1908  0.0919
22187W        W37804  15.454  14.349   0.979 -0.2960  0.0824  0.1347
22188W        W37805  14.186  16.831  16.315  0.4430  0.0197  0.0780
22189W        W37806   5.080   0.881   4.666  0.2095  0.0306 -0.0005
22190W        W37807   3.646   2.767  16.802  0.0562  0.1172  0.0256
22191W        W37808  11.683  14.000   3.764  0.2302  0.1364  0.1414
22192W        W37809  10.305   5.633  14.548 -0.0481  0.1952  0.0473
22193W        W37810   9.018   6.577   4.801  0.0284  0.1205  0.1793
22194W        W37811   6.636   6.645   5.634 -0.3193  0.2984 -0.1670
22195W        W37812   1.933   3.201  13.502 -0.0527  0.2663 -0.1469
22196W        W37813   2.989  10.686  14.476  0.1837  0.0662 -0.0070
22197W        W37814   3.074   5.060  12.412  0.1235  0.1559  0.0944
22198W        W37815   3.114   3.730  16.005 -0.1052 -0.0489  0.2341
22199W        W37816  16.131  17.323  16.305  0.2877  0.0093  0.0399
22200W        W37817  11.844   5.991  16.797  0.0129 -0.4873 -0.0175
22201W        W37818   7.908   2.787   0.452 -0.1155  0.3610 -0.2067
22202W        W37819  15.656  16.683  15.338  0.1522  0.0058  0.0532
22203W        W37820   5.948  14.165  12.850  0.2916 -0.2998 -0.0381
22204W        W37821  17.090   4.176  14.181 -0.0443  0.2415  0.1607
22205W        W37822  13.602  12.053  15.267 -0.0664 -0.2076  0.1004
22206W        W37823  14.646  17.362   4.542  0.1351 -0.2361 -0.0369
22207W        W37824   5.569  11.945   0.223  0.0510 -0.2388  0.1624
22208W        W37825   3.552  11.917   4.180 -0.3262  0.1201  0.2346
22209W        W37826   2.071  11.115   3.546 -0.1171  0.1492 -0.2465
22210W        W37827   9.735   1.592   1.164 -0.1112 -0.4320  0.0805
22211W        W37828   1.730   1.056  14.252  0.1281 -0.1055 -0.2316
22212W        W37829  10.293  11.442   5.451  0.0782 -0.0090  0.2795
22213W        W37830  16.450  13.992   2.035  0.0696 -0.0538 -0.4024
22214W        W37831   1.191   4.580  14.594 -0.1716  0.0122 -0.2262
22215W        W37832   6.739  17.789   3.058 -0.0230 -0.1219  0.1145
22216W        W37833  15.039  17.070   4.449  0.0613 -0.1874 -0.2264
22217W        W37834  10.354   6.066  12.238  0.1241 -0.1560 -0.0381
22218W        W37835  13.162  16.826   4.742 -0.1030  0.2368  0.2521
22219W        W37836  13.771   7.909   4.128 -0.1320  0.1716  0.3679
22220W        W37837  17.610   1.653   1.989  0.1148  0.0369 -0.2225
22221W        W37838   6.051  16.304   0.267  0.0192 -0.0665  0.0975
22222W        W37839  15.219  10.618  15.688  0.0565 -0.2459 -0.0148
22223W        W37840   0.372  12.129   2.815  0.2718 -0.0470  0.1185
22224W        W37841  15.186   6.077   1.763 -0.2816 -0.3483  0.0395
22225W        W37842   4.982   5.157   3.056 -0.0631 -0.0765  0.2153
22226W        W37843   2.587   9.430   0.545  0.0418  0.4133  0.1094
22227W        W37844   5.716   0.616   4.288 -0.2600  0.3953  0.2844
22228W        W37845   7.814  11.102  15.920 -0.2464  0.0766  0.2647
22229W        W37846   2.088  11.470  14.471 -0.1362 -0.1806  0.0447
22230W        W37847  11.357  16.116  14.092  0.3260 -0.2309  0.0983
22231W        W37848   9.597  10.064  11.281 -0.1264  0.3726  0.1753
22232W        W37849   5.091   1.194   0.397 -0.0620  0.0147  0.0468
22233W        W37850  15.489   3.495   0.850  0.0973 -0.1358  0.1634
22234W        W37851   2.697   1.193  16.154 -0.2897  0.0949 -0.2855
22235W        W37852   7.687  12.502   1.787  0.2114  0.0416 -0.1023
22236W        W37853   1.104  12.248  11.966  0.3893  0.0098 -0.2338
22237W        W37854   3.421  10.430   3.880 -0.0920  0.1519  0.0371
22238W        W37855  17.175   6.958   4.297 -0.0817  0.1451  0.3959
22239W        W37856   8.931   5.768   5.621  0.1402  0.0605  0.1814
22240W        W37857   1.750   3.401   1.185  0.1313 -0.0195 -0.0447
22241W        W37858   7.868  10.964  12.646 -0.1431 -0.1728 -0.2741
22242W        W37859  12.384   0.308  15.710 -0.0683 -0.1354  0.0606
22243W        W37860   3.138   4.010   5.470  0.0989 -0.2930  0.0723
22244W        W37861   6.907  16.056   0.153 -0.4975 -0.0872 -0.0967
22245W        W37862   3.425  16.591   3.016  0.1182 -0.2204  0.0766
22246W        W37863   2.092   9.632   5.514 -0.1638 -0.2501 -0.2558
22247W        W37864   8.144   3.568  16.234 -0.1930 -0.2757  0.0257
22248W        W37865   6.219  10.420   5.167  0.2186 -0.2310 -0.0157
22249W        W37866   2.324   2.945  15.733  0.0365  0.3383 -0.0159
22250W        W37867  14.587  12.447   3.903  0.0897 -0.0805 -0.0574
22251W        W37868  11.389  10.111   3.951 -0.0691 -0.0146  0.2749
22252W        W37869  15.700   2.468  16.488 -0.0830  0.3506 -0.2051
22253W        W37870  16.256   8.287   4.017 -0.2872 -0.1295  0.0497
22254W        W37871   2.302   5.243  13.003  0.0701  0.0703  0.1921
22255W        W37872  17.572  10.745  11.012 -0.1121 -0.0579 -0.1402
22256W        W37873   7.849   4.036   0.199  0.1571 -0.0034 -0.0463
22257W        W37874  10.351   9.723   5.866 -0.5838  0.4451  0.1210
22258W        W37875  10.808   3.431   4.918 -0.2343 -0.4859  0.3079
22259W        W37876   2.913  16.684  11.407 -0.0023 -0.0549  0.0670
22260W        W37877  13.130  12.980   5.730  0.0215 -0.0314  0.1759
22261W        W37878   9.877  17.791  14.551 -0.2054 -0.5075  0.1347
22262W        W37879  11.728   4.962   1.113 -0.1121 -0.2678  0.0621
22263W        W37880   2.135  14.948  15.595  0.1896  0.1161  0.0230
22264W        W37881   9.469  15.397   4.708 -0.2404  0.1963  0.3431
22265W        W37882  14.506   8.035   2.189  0.0100  0.0796 -0.1124
22266W        W37883   4.493  14.658   0.859 -0.1279 -0.3740 -0.0264
22267W        W37884  13.945   6.987  14.466  0.3181 -0.0865 -0.0066
22268W        W37885   5.662   0.508   2.630  0.0527  0.0651  0.1039
22269W        W37886   3.314  14.850  12.621 -0.1109  0.1401  0.0283
22270W        W37887  12.422  16.012  14.179  0.0719 -0.1274 -0.0416
22271W        W37888  14.765   7.502   6.451  0.0176  0.0033 -0.1499
22272W        W37889  11.316   3.646  16.394 -0.1541  0.0775 -0.3158
22273W        W37890   1.325  13.689   1.606 -0.0966  0.1040 -0.1615
22274W        W37891  17.245   9.993  11.502 -0.1520 -0.2705 -0.0724
22275W        W37892   1.417   3.915   0.821  0.0551 -0.0031 -0.2357
22276W        W37893  13.944  11.658   5.204  0.5141 -0.1328  0.1098
22277W        W37894   3.030   2.055   0.871 -0.0459 -0.1911  0.0365
22278W        W37895   0.261  13.745  16.414 -0.0832 -0.0090 -0.0172
22279W        W37896   8.852  14.249   5.650  0.1519 -0.2734  0.1886
22280W        W37897   8.821  11.289   0.384  0.1337  0.0802  0.0964
22281W        W37898  14.092  17.231   2.251 -0.0047 -0.1850 -0.0238
22282W        W37899   5.524  11.903  13.624  0.0956  0.0924 -0.0213
22283W        W37900  13.198   7.829  16.625 -0.3131 -0.3401  0.2009
22284W        W37901   6.883   1.981   3.684 -0.1200  0.0359 -0.0140
22285W        W37902  12.615   3.949  12.179  0.1231 -0.1354  0.3599
22286W        W37903   1.087  17.477  11.427 -0.0495  0.3414 -0.1376
22287W        W37904  10.004   8.467   2.816  0.2318  0.1173 -0.0141
22288W        W37905   9.234  13.339  13.731  0.0322  0.0675 -0.0494
22289W        W37906   5.049   5.971   4.595 -0.3761  0.3405 -0.0435
22290W        W37907   6.073   0.113   0.260 -0.2009 -0.0445  0.2655
22291W        W37908  17.260   3.892   1.579  0.1790  0.0563  0.0295
22292W        W37909   8.046   0.594   3.409 -0.1574 -0.4575  0.0005
22293W        W37910   4.444   9.291  15.868  0.0180 -0.0780 -0.0333
22294W        W37911  15.017  14.196  14.066 -0.1970  0.0718 -0.3149
22295W        W37912   0.797  15.341   1.412  0.0356  0.1621 -0.0167
22296W        W37913  16.047   7.968   4.312 -0.0015  0.1880 -0.0676
22297W        W37914  17.103   1.540  11.857 -0.2412  0.1948 -0.2887
22298W        W37915   2.467  11.474   3.917  0.3905  0.0345  0.2057
22299W        W37916   1.143   1.056  16.147  0.0991 -0.0150  0.1961
22300W        W37917   9.632   9.953  14.943 -0.1877  0.3881  0.2201
22301W        W37918   3.466  16.708  16.281  0.3936  0.1557 -0.1217
22302W        W37919   6.405   2.124   4.463 -0.2472  0.1576  0.1866
22303W        W37920   2.883  16.515   5.156  0.1789  0.0991 -0.0843
22304W        W37921   6.873  17.651   0.279  0.0209  0.1862  0.1901
22305W        W37922   9.189   5.349   2.967  0.1971  0.1294 -0.2544
22306W        W37923   2.684   3.544   0.456  0.3369 -0.2068  0.3091
22307W        W37924  10.792   5.674   1.181  0.0238 -0.2502 -0.1254
22308W        W37925   8.213  11.543   1.710 -0.1487  0.0127 -0.0095
22309W        W37926  10.456  17.460  16.425 -0.0150  0.2711  0.3311
22310W        W37927  15.905  10.119  16.443 -0.0099  0.1913 -0.1928
22311W        W37928  16.624   5.885   2.297 -0.1818 -0.1186  0.1271
22312W        W37929   9.067  10.400  14.008 -0.1614 -0.1052 -0.4197
22313W        W37930   5.976   8.834   1.334 -0.2717  0.4317 -0.0861
22314W        W37931  14.271  11.626  11.191  0.2352 -0.0017  0.1882
22315W        W37932   8.493  15.259  16.366 -0.2788 -0.2500  0.1337
22316W        W37933   9.483   2.021   0.456  0.0428  0.1166  0.0795
22317W        W37934   7.407  10.701  12.909  0.0068  0.1143  0.1764
22318W        W37935  11.694   5.283   2.000  0.0950  0.1343 -0.0904
22319W        W37936  13.878   9.962   5.705 -0.1142 -0.2767 -0.3280
22320W        W37937   7.022   4.257  12.603 -0.0163  0.0226  0.0327
22321W        W37938  15.442  10.715   5.569  0.1135  0.0604 -0.0685
22322W        W37939  17.132  13.963   0.637 -0.1575 -0.0189  0.1889
22323W        W37940  14.826  17.036   3.544 -0.3788  0.1183 -0.1745
22324W        W37941  11.026   4.434  13.769 -0.1934 -0.1619  0.1494
22325W        W37942  16.181   8.281   3.141  0.2060 -0.0566 -0.0959
22326W        W37943   6.052   4.978   2.819  0.3604 -0.0953 -0.0003
22327W        W37944   4.373   2.780  13.847  0.2596 -0.2640  0.2758
22328W        W37945   7.213  13.033  11.621 -0.1402  0.1105  0.0643
22329W        W37946   5.281   0.053   1.221  0.0508  0.1619 -0.4032
22330W        W37947   2.028   3.146   2.926 -0.2646  0.2246  0.0440
22331W        W37948   6.796   7.384  15.780  0.0082  0.2655  0.0569
22332W        W37949   8.620   0.284  12.530 -0.0362  0.2101 -0.2413
22333W        W37950  17.730  17.430   3.805 -0.2351  0.1433  0.0234
22334W        W37951  11.508  16.291  12.855 -0.1615 -0.1934 -0.1903
22335W        W37952  13.295  17.175  15.165 -0.0285 -0.0724 -0.0421
22336W        W37953   5.879   6.977  14.653  0.1475 -0.1905 -0.0189
22337W        W37954   2.624   4.004   5.251  0.0478  0.0671 -0.0386
22338W        W37955   9.307   9.492   4.135  0.2402 -0.2390  0.3679
22339W        W37956   8.564  10.507   2.886 -0.2364  0.0541  0.0260
22340W        W37957   1.780  12.084  10.441  0.1309  0.0563 -0.2593
22341W        W37958   7.070   1.258  14.951  0.0447  0.1241 -0.1193
22342W        W37959   8.305   2.825  11.253  0.1582  0.0692  0.0504
22343W        W37960   7.066   2.892  15.819 -0.0818 -0.0808  0.1283
22344W        W37961   8.788   6.228   4.334 -0.0195 -0.5382 -0.3575
22345W        W37962   6.632   0.457  12.220 -0.1143 -0.3570 -0.1960
22346W        W37963   9.936   1.225   4.474  0.0014  0.1317 -0.0235
22347W        W37964   2.747  15.494  14.216 -0.1946  0.1292 -0.1442
22348W        W37965   3.985   7.665  15.122 -0.0549  0.1511 -0.1529
22349W        W37966   7.432   3.537   3.591 -0.1948 -0.0799  0.2056
22350W        W37967   2.339   1.521  16.185  0.2396 -0.1683 -0.0371
22351W        W37968   6.179  10.570   2.382  0.2895 -0.2076  0.0774
22352W        W37969   4.543  11.368   3.935  0.1274  0.3114 -0.1210
22353W        W37970   1.265  13.156   6.077 -0.1756 -0.1080 -0.1179
22354W        W37971  14.134   1.050   3.680 -0.1512  0.0701 -0.0866
22355W        W37972  11.287   9.501   0.360 -0.2108 -0.1301 -0.2347
22356W        W37973  13.721  14.551   2.023  0.1005 -0.0449  0.0082
22357W        W37974   8.077   6.460   2.516  0.2727  0.2027  0.3701
22358W        W37975   5.615   1.356   0.264 -0.0758  0.2595  0.0292
22359W        W37976   0.779  17.261  13.873 -0.1537 -0.0595  0.0491
22360W        W37977   6.179   0.380  12.858  0.1794  0.2570 -0.1918
22361W        W37978   6.109   3.614   4.899  0.1378  0.1124 -0.2181
22362W        W37979   1.121  11.694  11.739  0.2882  0.0741  0.0750
22363W        W37980  11.040   1.623  13.372  0.1029 -0.3206 -0.0622
22364W        W37981   8.026  12.438  15.516  0.1846  0.0885 -0.0457
22365W        W37982  15.388   7.252  12.962  0.2058  0.1871  0.2325
22366W        W37983   6.513  13.282   0.493  0.0069  0.1559  0.1338
22367W        W37984   6.957   7.985   5.436 -0.0380  0.0228  0.1047
22368W        W37985   8.732   3.804   4.278  0.1940 -0.0273 -0.1550
22369W        W37986   0.062   1.027   5.131 -0.2558  0.1564  0.0041
22370W        W37987   3.595   6.117   1.396 -0.0772  0.1306  0.2532
22371W        W37988   3.427   8.857   5.621  0.1243  0.0088  0.0060
22372W        W37989  12.803  17.844   3.893  0.2386  0.2713 -0.1199
22373W        W37990   2.334   0.044  15.497  0.0540 -0.0417 -0.1064
22374W        W37991  13.680   2.826  13.937  0.0138  0.2882  0.2060
22375W        W37992   2.023   7.201   0.348 -0.0505 -0.1454  0.2390
22376W        W37993   5.733  16.763  12.542 -0.2600 -0.0533 -0.2932
22377W        W37994  14.892  14.570  11.479  0.0937  0.1620 -0.0588
22378W        W37995  11.457  11.410   4.578 -0.1331 -0.2012 -0.0216
22379W        W37996   0.224  11.801  14.552  0.1203  0.0999  0.0538
22380W        W37997  11.996   9.783  16.632  0.2819  0.0022  0.0981
22381W        W37998  13.837   6.493  13.667 -0.4193 -0.0112  0.1601
22382W        W37999   8.884   9.019  15.855  0.2233  0.1403  0.4173
22383W        W38000  12.966  14.940   0.393 -0.0757 -0.3214 -0.1962
22384W        W38001   4.699  13.498   0.631  0.1968 -0.5314  0.0145
22385W        W38002  10.156   3.847   1.758 -0.0155 -0.0062  0.2372
22386W        W38003   5.027   5.040  13.255 -0.1547 -0.0132 -0.0767
22387W        W38004   0.938  10.138   4.650 -0.0283  0.3555 -0.1359
22388W        W38005   6.350   0.826  12.529  0.0824 -0.1535 -0.2608
22389W        W38006   9.488   5.383   0.237  0.3403 -0.0750  0.0764
22390W        W38007  10.734   7.792  15.945 -0.3185  0.0053 -0.1582
22391W        W38008   7.265   1.401   2.384  0.0901  0.1585 -0.2483
22392W        W38009  13.307  10.214   2.096 -0.1043  0.0074 -0.1846
22393W        W38010   1.929   2.309  14.623 -0.3607 -0.1884  0.4697
22394W        W38011   4.247  13.719  15.025  0.2839  0.0053  0.3755
22395W        W38012  13.102  17.464   2.485  0.0495 -0.0829 -0.2168
22396W        W38013  17.680   8.404   3.123 -0.0287 -0.1952 -0.0986
22397W        W38014   6.453   7.027  12.335  0.2080  0.1126  0.0804
22398W        W38015   9.120   9.279   5.666  0.0271 -0.0876  0.0887
22399W        W38016   9.051   7.928   5.212  0.2933  0.0970  0.0566
22400W        W38017   7.500   8.996  16.624 -0.1182  0.1461  0.1526
22401W        W38018  13.400   3.852  12.075  0.1104 -0.2296 -0.2113
22402W        W38019  11.361  15.546   3.487  0.2007 -0.2414 -0.0735
22403W        W38020   4.118   9.704   2.563  0.0578  0.2991  0.2725
22404W        W38021   0.347   9.249  15.809 -0.2331 -0.0984  0.0239
22405W        W38022   2.564  14.033  15.666  0.2091  0.0831 -0.2209
22406W        W38023   8.187   7.714  15.642  0.0468  0.1821 -0.3755
22407W        W38024  16.748  16.463   5.196 -0.1046 -0.1211  0.3610
22408W        W38025   4.471  12.744  15.917  0.0297 -0.0019  0.1217
22409W        W38026   8.839  12.276  10.552 -0.0903  0.1149  0.0111
22410W        W38027  10.227   6.788   5.330  0.2898  0.0874 -0.2532
22411W        W38028   0.590  17.266  14.462  0.2188 -0.0024 -0.1154
22412W        W38029   5.077  15.034  12.069  0.0983 -0.2911  0.2176
22413W        W38030   8.314   7.558   2.707  0.1552 -0.0062 -0.1884
22414W        W38031  11.839  13.988   4.928  0.1691 -0.0841  0.0704
22415W        W38032  12.564   7.333   4.487  0.1147 -0.1963 -0.1068
22416W        W38033  11.016   0.263  16.167  0.1364 -0.0534  0.2581
22417W        W38034  12.200  12.284  13.973 -0.2624  0.0681  0.0786
22418W        W38035   5.571   8.561   4.827  0.2853  0.1229  0.0287
22419W        W38036  12.956   5.114   4.685  0.2525 -0.1590 -0.2931
22420W        W38037  17.660   2.222   1.518 -0.2107  0.0170  0.0696
22421W        W38038  12.207  10.992  16.285  0.2381 -0.0611  0.1261
22422W        W38039   8.835   0.356   6.181  0.2961  0.1872  0.3984
22423W        W38040   5.557   6.111  10.934 -0.1474  0.2668 -0.1560
22424W        W38041  14.443   1.482  11.374 -0.0378 -0.2366 -0.0140
22425W        W38042  15.323  17.090   5.207 -0.2908  0.2992  0.0014
22426W        W38043  14.467   6.674   1.800 -0.2337 -0.0138 -0.1114
22427W        W38044  13.300   9.969   3.921 -0.1133  0.1335 -0.0420
22428W        W38045  11.991   3.105  13.846  0.1603  0.3595 -0.2190
22429W        W38046  16.955  11.569   2.285  0.2525 -0.0189 -0.1853
22430W        W38047  11.433  12.113   0.042  0.3079 -0.3622  0.0551
22431W        W38048   1.133  10.410   4.205 -0.0752 -0.1298  0.0400
22432W        W38049   8.424  17.867   1.238  0.2333  0.1890  0.2970
22433W        W38050  17.511   3.988  13.129  0.2081  0.2731 -0.0816
22434W        W38051   2.027  16.810   2.357 -0.1437 -0.1751 -0.2671
22435W        W38052   4.562   0.356   4.274  0.1861  0.1297  0.0073
22436W        W38053  17.484  12.077  12.119  0.0429 -0.0702  0.1239
22437W        W38054  13.197   6.255  12.924 -0.1083 -0.2007  0.3254
22438W        W38055   3.041   0.094   2.456 -0.1968  0.2549 -0.2830
22439W        W38056   1.552  14.458   5.329  0.1485  0.0910  0.1716
22440W        W38057   3.561  16.239  13.475 -0.1741 -0.1493  0.1748
22441W        W38058   7.827  14.995   5.503 -0.2160 -0.1734 -0.2096
22442W        W38059  16.779  10.503  12.191 -0.1721  0.0920  0.2741
22443W        W38060  14.568   0.486  15.619 -0.2166  0.0876  0.1233
22444W        W38061   2.930   9.255  14.690  0.0322  0.2831  0.2160
22445W        W38062  16.425   5.235  11.981 -0.2826 -0.1453 -0.1205
22446W        W38063   3.522   6.769  14.269  0.0447  0.0905 -0.0167
22447W        W38064   8.390  17.175   4.828 -0.4201  0.2189 -0.1575
22448W        W38065   8.974   0.326  16.375  0.2134 -0.0997 -0.1127
22449W        W38066  16.439   9.144   3.608  0.1304  0.0816 -0.1475
22450W        W38067   1.559   3.457  16.667 -0.2061  0.0323 -0.1285
22451W        W38068  10.997  17.594   0.534  0.1210  0.3610 -0.1418
22452W        W38069   5.707  17.410  15.376  0.0203 -0.0586 -0.2675
22453W        W38070  12.508   1.478   5.234 -0.1008 -0.3411 -0.0632
22454W        W38071  10.288  16.165   4.957 -0.3664 -0.2898 -0.2412
22455W        W38072  13.710   7.473   4.351 -0.1160 -0.0237 -0.2241
22456W        W38073  10.843   3.671   0.919 -0.0310  0.0336 -0.1303
22457W        W38074   0.640   2.084  14.418  0.1816 -0.0801  0.0954
22458W        W38075  16.075   5.374   4.836  0.2079 -0.0666  0.0892
22459W        W38076   7.944  13.466  15.720  0.0794 -0.0083  0.0014
22460W        W38077   9.275  15.519  12.587 -0.2646  0.1296 -0.0867
22461W        W38078   2.880   5.739  13.658  0.2695 -0.0581 -0.2448
22462W        W38079  15.232  13.383   0.310  0.0297 -0.1391 -0.2563
22463W        W38080  17.322   6.361  12.900 -0.1842 -0.0268  0.2860
22464W        W38081   4.043  10.944  12.846  0.0112  0.1574 -0.0163
22465W        W38082   7.009   8.980  16.493 -0.0283 -0.0764  0.0611
22466W        W38083   7.565  16.880   5.174 -0.2738 -0.2123 -0.0794
22467W        W38084   8.006  10.577  15.860 -0.1077 -0.0680 -0.2595
22468W        W38085  15.839   3.715   5.523 -0.0059  0.0665 -0.0176
22469W        W38086   5.868   7.473  13.447  0.1183  0.0444 -0.0792
22470W        W38087  12.694  14.394  13.953  0.1323 -0.2055  0.1184
22471W        W38088  10.978  11.365  13.171  0.0349  0.0882 -0.1574
22472W        W38089   2.641   2.015   1.914 -0.1938  0.0727  0.1229
22473W        W38090   1.852   9.583   4.677  0.0694 -0.2750 -0.0369
22474W        W38091  16.530   3.404  15.095 -0.0107  0.1194 -0.1187
22475W        W38092  11.385  16.864  12.926  0.1366 -0.1468  0.0151
22476W        W38093  16.469   9.985   0.294  0.0469  0.1465  0.2213
22477W        W38094   5.598  10.432   6.429 -0.3445  0.2899 -0.0191
22478W        W38095   7.254  16.730  12.196  0.2081 -0.1125  0.3409
22479W        W38096   4.860   3.573  15.325  0.0398 -0.0195 -0.0149
22480W        W38097   5.399  11.344  12.458 -0.0526 -0.1449  0.2886
22481W        W38098  15.968   9.451  13.885 -0.0564 -0.2295 -0.1069
22482W        W38099   6.542   6.403   3.379 -0.1174  0.0012 -0.2013
22483W        W38100  16.541   5.057   3.051  0.3360 -0.3780  0.0780
22484W        W38101   5.036   3.375  16.539  0.2700 -0.1111 -0.0367
22485W        W38102  17.743   9.592   1.832  0.0295  0.0532 -0.2557
22486W        W38103   8.561  13.871   3.228  0.1584  0.1047 -0.1383
22487W        W38104   4.404  13.247  12.386  0.0910  0.0288  0.2066
22488W        W38105   7.821  14.283   4.797  0.0343  0.3799 -0.1916
22489W        W38106   4.064  14.954  15.577  0.0504 -0.2150  0.0205
22490W        W38107   9.485  12.845   1.831  0.1206  0.1040  0.0470
22491W        W38108   2.642   2.382   0.740 -0.1367 -0.0385 -0.1871
22492W        W38109   2.093   3.730  13.339 -0.0536  0.0911  0.0902
22493W        W38110  15.286   7.993  15.087  0.1215 -0.1401 -0.0970
22494W        W38111   7.593   3.161   4.924  0.1308  0.1115  0.0644
22495W        W38112   2.850  14.430  12.441  0.0277 -0.1876  0.2820
22496W        W38113   1.433   6.788   5.888 -0.2698  0.1293  0.1546
22497W        W38114   0.959   0.424   5.187 -0.0189  0.3399 -0.0314
22498W        W38115   2.846   9.805  12.909 -0.0731 -0.4041 -0.2290
22499W        W38116   5.951  14.351  16.734  0.1976  0.1097 -0.2319
22500W        W38117  13.077  13.973   2.630 -0.2029 -0.1131  0.0879
22501W        W38118   8.286   1.577   2.595 -0.1334 -0.0500 -0.0617
22502W        W38119  14.498  12.164  12.996  0.0199  0.2095  0.0543
22503W        W38120   0.598  16.285  13.404  0.0216 -0.1006 -0.0025
22504W        W38121  10.617  11.521  13.953 -0.0419  0.1364  0.0789
22505W        W38122  12.804  11.140  14.467 -0.1522  0.0265  0.3007
22506W        W38123  15.606   5.625   5.956 -0.1142  0.0679  0.3610
22507W        W38124   2.620  16.301   4.520 -0.0935  0.1602  0.3448
22508W        W38125   0.761   3.613  15.072 -0.0068  0.0869  0.2475
22509W        W38126  16.507   0.729  15.792 -0.0366  0.2305  0.1597
22510W        W38127   7.420   6.022  13.913  0.2310  0.1669  0.1925
22511W        W38128  15.387   5.434  16.638  0.2001 -0.0293  0.2125
22512W        W38129   9.010  14.199   0.741 -0.3941  0.1763  0.1190
22513W        W38130  10.753  10.250  12.524  0.0471  0.0657  0.0415
22514W        W38131   6.170   0.277   0.789 -0.1097  0.1888  0.3110
22515W        W38132   6.766  17.691   1.058  0.1177  0.2947  0.0681
22516W        W38133   7.239  15.214  14.846 -0.0213  0.1582 -0.1853
22517W        W38134   7.106   4.280   2.784 -0.0735 -0.0917 -0.0045
22518W        W38135   9.283   4.126   3.799 -0.1676  0.1196 -0.3021
22519W        W38136  10.700   3.551  13.601 -0.0481 -0.1706  0.0565
22520W        W38137  12.663  10.163  12.276 -0.0303  0.3802  0.2601
22521W        W38138  13.585   5.548   4.308 -0.0768 -0.1933  0.6029
22522W        W38139   9.166   0.153   0.714  0.1370  0.3464  0.0588
22523W        W38140  12.751   9.535   5.671 -0.0064  0.0419  0.0731
22524W        W38141   1.220  11.699   4.940  0.2411  0.2717  0.1857
22525W        W38142   1.021  14.841   3.098  0.0766  0.0901  0.0978
22526W        W38143  15.587   2.440   2.914 -0.1765 -0.1782  0.4496
22527W        W38144  14.182   1.730  14.422  0.0071  0.0432  0.1405
22528W        W38145   1.610   9.713  14.589 -0.0348 -0.4195 -0.0139
22529W        W38146  14.341   4.282   4.792  0.0628  0.2198  0.1087
22530W        W38147   0.310   2.536  12.771  0.1226 -0.1440  0.1793
22531W        W38148  12.998  16.320   0.591 -0.0432 -0.0733  0.0454
22532W        W38149   7.512  12.137   0.457  0.1892 -0.3046  0.0407
22533W        W38150  12.151   6.391   5.993 -0.3497 -0.0990  0.2317
22534W        W38151   9.247  11.078  15.584  0.0360  0.0437  0.1057
22535W        W38152   6.064   5.240   0.116  0.2409  0.3814  0.2313
22536W        W38153   6.238  17.816   1.330 -0.1394 -0.1027 -0.0804
22537W        W38154  13.887   8.180   3.696 -0.1286 -0.0273  0.1749
22538W        W38155   7.934   1.913  13.056 -0.1789 -0.0356 -0.1715
22539W        W38156  17.284   3.976   5.573 -0.1216 -0.0982  0.0323
22540W        W38157  13.717  13.765  15.600 -0.1368 -0.4360  0.3298
22541W        W38158  17.554   9.192  16.596 -0.0352  0.0225  0.0267
22542W        W38159  13.143   4.574  13.771  0.1152  0.1654  0.2635
22543W        W38160   6.057  11.863  14.401  0.2543  0.2865 -0.0058
22544W        W38161   7.598  17.201   2.731 -0.3300 -0.1105  0.1014
22545W        W38162   6.482  15.822  15.101  0.1362  0.2074  0.2577
22546W        W38163  11.395  13.652   0.168 -0.3619 -0.0863  0.3358
22547W        W38164  15.233   5.849   0.917 -0.3381 -0.2254 -0.1169
22548W        W38165  14.228   3.562  15.603 -0.3337  0.0239 -0.0851
22549W        W38166   8.007   6.882   3.799 -0.0940  0.0834 -0.0408
22550W        W38167  12.276   1.657  16.080  0.0011  0.3180  0.1799
22551W        W38168   9.783  10.845  11.466 -0.0135 -0.2100  0.1720
22552W        W38169   0.354  10.237  14.711  0.0354 -0.5219  0.2014
22553W        W38170   4.900  14.729  13.443 -0.1500  0.0644 -0.0251
22554W        W38171   9.184  17.632  15.166  0.2080 -0.1553 -0.5246
22555W        W38172   7.799   2.261   5.084  0.3213  0.0514 -0.2708
22556W        W38173   3.293  17.146   5.159  0.1055  0.1201 -0.1349
22557W        W38174  12.507   9.049  15.657 -0.2167  0.1618 -0.1728
22558W        W38175   7.592   6.035  16.116 -0.1179 -0.0127 -0.0311
22559W        W38176  12.275   8.949   3.082  0.4041 -0.0182  0.1677
22560W        W38177   2.975  13.650  16.152  0.0563 -0.0960 -0.2163
22561W        W38178  13.687   1.761  14.680 -0.1203 -0.2049 -0.0480
22562W        W38179   8.770   9.740   3.298  0.0759  0.1688  0.0622
22563W        W38180  12.385  11.717  15.234  0.1755 -0.0772 -0.2233
22564W        W38181  15.009  14.748   4.887  0.0789 -0.0646  0.1422
22565W        W38182   4.699  16.516  15.910 -0.2952 -0.3307 -0.0141
22566W        W38183   4.493  11.647   3.501 -0.0847 -0.2117 -0.0958
22567W        W38184   8.352   9.747   3.563 -0.0959  0.1349 -0.0419
22568W        W38185   3.628  11.568   3.354  0.0844  0.1193 -0.2236
22569W        W38186   3.646   3.164  15.300  0.1216 -0.3812 -0.0397
22570W        W38187   7.885   4.785  16.808 -0.0736 -0.0031  0.0656
22571W        W38188   4.964  17.423  14.738 -0.0878 -0.0314 -0.0606
22572W        W38189   9.991   9.104  13.004 -0.1994  0.1264 -0.0378
22573W        W38190   1.410  14.380  16.474  0.3483 -0.1500  0.3636
22574W        W38191  16.579   9.441   5.429 -0.4464 -0.3995 -0.1705
22575W        W38192   9.904   3.009   1.254  0.0239  0.0902  0.0722
22576W        W38193   4.928   9.950   4.791 -0.0370  0.1277  0.0216
22577W        W38194   7.963   0.548   2.095 -0.0440 -0.2346 -0.0279
22578W        W38195   4.906   8.130   2.860  0.0793  0.2169 -0.0115
22579W        W38196   7.858  16.605  16.076 -0.2305 -0.0993 -0.2141
22580W        W38197   4.089  15.644  12.851  0.0256  0.0405  0.2060
22581W        W38198   0.703   2.828   3.198  0.0632  0.2497  0.1530
22582W        W38199  16.639   7.291   0.258 -0.0608  0.1177  0.0005
22583W        W38200  17.138   6.598  12.063  0.0543 -0.0854  0.3214
22584W        W38201   8.828   3.424   4.600  0.0158  0.0289  0.1841
22585W        W38202   2.820   1.873   1.367 -0.2188  0.2321 -0.0969
22586W        W38203   1.841   4.457   5.210 -0.2348 -0.0967  0.1327
22587W        W38204  10.275  12.007   5.519  0.0179  0.0566 -0.0179
22588W        W38205   7.937   0.187  12.972  0.1058  0.2694 -0.2772
22589W        W38206   9.979  11.725   5.181  0.2133 -0.3172  0.0549
22590W        W38207   1.057  16.379   1.883 -0.2418 -0.2434 -0.0748
22591W        W38208   4.709   0.551  11.686 -0.1176 -0.0586 -0.0003
22592W        W38209  12.293   8.737   1.886 -0.2373  0.0775 -0.1412
22593W        W38210  14.379   4.848  15.397  0.0445 -0.1870 -0.0893
22594W        W38211  14.469  14.908   1.474  0.4421 -0.1072  0.1253
22595W        W38212  17.066   2.277  15.261 -0.2470  0.4180  0.2012
22596W        W38213   2.985   9.009  10.445  0.1405  0.0900 -0.1516
22597W        W38214  13.443  14.929   1.284 -0.2070 -0.0405 -0.1665
22598W        W38215  12.466  11.600   2.705  0.2397 -0.1876 -0.2437
22599W        W38216  13.436  13.642   2.926  0.0120 -0.1589  0.2270
22600W        W38217   4.803   4.823   0.922 -0.2683 -0.0842  0.1222
22601W        W38218  12.228   9.739   4.516  0.1687  0.2230  0.2122
22602W        W38219  14.254  13.575   4.160 -0.0140 -0.0629  0.0893
22603W        W38220  12.874   5.730   0.448  0.1443 -0.2278 -0.0576
22604W        W38221  12.955   3.579  16.498 -0.0699 -0.2863  0.0852
22605W        W38222  16.704   1.353   1.943  0.0024  0.2733  0.1532
22606W        W38223   4.697   3.717   1.663 -0.1751  0.1362 -0.1203
22607W        W38224   4.597   7.025  14.707  0.0015 -0.0684 -0.1702
22608W        W38225  12.818  12.111   6.530  0.1236  0.0124 -0.3052
22609W        W38226   1.576  16.465  14.899 -0.0406  0.0135 -0.1474
22610W        W38227  10.843  13.882   2.586 -0.1170  0.0794  0.2147
22611W        W38228  13.460  12.507   2.731  0.2119  0.1259  0.2114
22612W        W38229   5.765   7.303   3.945 -0.0994 -0.0652 -0.1383
22613W        W38230   5.610  11.446  16.123  0.4396  0.0610 -0.1875
22614W        W38231  11.290  17.361  12.653 -0.2367 -0.1814  0.1355
22615W        W38232  11.346   6.440   0.743 -0.4069  0.0149  0.2092
22616W        W38233  17.285   4.875   0.191 -0.1566 -0.0820  0.0340
22617W        W38234   1.631   8.883   5.090  0.0835 -0.0701  0.2086
22618W        W38235  13.109   6.360   5.127  0.3201  0.3610 -0.0014
22619W        W38236   2.865   8.952   3.791 -0.0300  0.1624 -0.0587
22620W        W38237  10.250  13.579  11.737  0.1152  0.0383  0.2567
22621W        W38238  16.738  10.464   2.581  0.0428  0.0518  0.0475
22622W        W38239  13.212   5.522   0.055  0.2039  0.1140 -0.3016
22623W        W38240   8.297   5.942   4.348  0.2185 -0.3041  0.1115
22624W        W38241   2.216  14.836   4.704  0.2074  0.0308 -0.0816
22625W        W38242  12.037  12.840  11.677 -0.0928  0.1621 -0.1961
22626W        W38243   4.949   7.969   3.976  0.0301  0.0958 -0.1613
22627W        W38244   5.305  14.535  15.853  0.0160 -0.0469  0.1117
22628W        W38245   7.274  15.704  13.942  0.0691 -0.4264  0.1231
22629W        W38246   1.147   7.110   0.960 -0.2191  0.0966  0.0636
22630W        W38247   4.010   0.550   4.347  0.0407 -0.0894  0.0952
22631W        W38248   1.923   6.377  16.801  0.5121  0.2187  0.3856
22632W        W38249  16.406   4.219   1.517  0.0631  0.2305  0.1911
22633W        W38250   1.884   9.543  15.675 -0.0682  0.3175 -0.1554
22634W        W38251   1.855  12.944  14.092  0.2754  0.3228 -0.2257
22635W        W38252  15.293   7.612   5.497  0.3078  0.0483 -0.3722
22636W        W38253  11.232   4.293  12.596  0.1558  0.1766  0.0641
22637W        W38254  15.281  11.677   3.261  0.2136  0.0933 -0.2571
22638W        W38255  12.991   3.689  13.057  0.2132 -0.2081 -0.1580
22639W        W38256   7.817  10.035  12.657  0.1901  0.2639 -0.0733
22640W        W38257  13.343   2.885  12.935  0.0259 -0.1726 -0.2973
22641W        W38258  10.771   0.322   4.995 -0.0925 -0.1191  0.0030
22642W        W38259   2.804   9.529  15.144  0.0834  0.1784  0.2777
22643W        W38260  10.672  12.235   5.298 -0.0259  0.0874  0.1647
22644W        W38261  15.816   4.177  12.202  0.0608 -0.1615  0.1231
22645W        W38262  16.323  10.897  11.378  0.0393  0.3065  0.0952
22646W        W38263   2.131   8.547  15.656 -0.0119  0.5478  0.3195
22647W        W38264   5.134  11.251  11.534 -0.0144  0.1319  0.0002
22648W        W38265  14.240   7.767  15.016 -0.0512 -0.3760  0.1005
22649W        W38266  16.415   6.104  15.935  0.1553  0.0394 -0.3892
22650W        W38267   9.661   7.054  14.385  0.0613 -0.0610 -0.1557
22651W        W38268   6.762   2.353   4.072  0.0999 -0.1329 -0.2912
22652W        W38269   1.299   5.583  11.770  0.0451  0.0117  0.2507
22653W        W38270   4.364  10.303   4.028  0.0492 -0.1154  0.1516
22654W        W38271   4.329  11.265   1.038  0.0184  0.2560  0.0861
22655W        W38272  17.317  15.897   4.936  0.1489  0.1641 -0.1855
22656W        W38273  11.499   5.387  12.994  0.0227 -0.0590 -0.1339
22657W        W38274  15.337   0.897  10.776 -0.2204  0.1005  0.1062
22658W        W38275   2.610  15.273   0.905  0.2046 -0.0477 -0.0427
22659W        W38276  12.687   0.844   3.678 -0.0464 -0.1858 -0.2220
22660W        W38277   6.495   1.831   1.815  0.3985  0.4619 -0.1589
22661W        W38278  16.806  11.422   2.769  0.0374 -0.0391 -0.1272
22662W        W38279  10.684   3.352   4.364 -0.2649  0.0728 -0.1727
22663W        W38280   1.427  11.391   0.229 -0.2474 -0.0398 -0.0519
22664W        W38281  16.737  12.016  11.654 -0.0445  0.3302  0.0368
22665W        W38282   0.810   7.607   3.887 -0.0463 -0.0824 -0.1209
22666W        W38283  16.429  13.669  12.610  0.0813  0.0964 -0.1703
22667W        W38284   5.179   7.938   6.107  0.0430 -0.0660  0.0888
22668W        W38285   9.996   5.901  15.862 -0.1559 -0.1574  0.0045
22669W        W38286  14.539  16.898   4.356  0.1781  0.0931 -0.0340
22670W        W38287   6.548  15.352   3.584  0.2625 -0.1186  0.1864
22671W        W38288   2.099   0.137   5.338 -0.0587  0.0660 -0.4453
22672W        W38289  10.162  13.768   0.089 -0.0663 -0.0157 -0.1507
22673W        W38290  12.832  17.029  13.219  0.1691  0.0672  0.0835
22674W        W38291   3.439  15.019   3.858 -0.0820  0.0346  0.1020
22675W        W38292   4.771  10.847  13.413 -0.0275  0.1552  0.2126
22676W        W38293  15.903   1.426  14.691  0.2672 -0.1010  0.4240
22677W        W38294   8.661   1.231   3.742  0.1774  0.1098 -0.0135
22678W        W38295   4.837  11.853   2.229 -0.1188  0.1188  0.0026
22679W        W38296  13.041  14.029  12.645  0.1236 -0.3317  0.2303
22680W        W38297  11.038   8.919  16.377 -0.2225  0.2031 -0.1461
22681W        W38298   0.601  16.741  15.647  0.0490 -0.0345  0.0120
22682W        W38299   5.774   0.217  12.664  0.0259  0.0357  0.0860
22683W        W38300  13.120   7.106   1.594  0.0924 -0.0227  0.0677
22684W        W38301  11.830   9.183   5.337  0.2251  0.1989  0.1097
22685W        W38302  16.552   6.800  12.128  0.0276 -0.1559  0.1006
22686W        W38303  16.259  16.172  14.983 -0.5740 -0.1913  0.0952
22687W        W38304   7.186  17.140   0.214  0.1697  0.4295  0.0510
22688W        W38305   7.444  13.019   3.742  0.2913 -0.0480 -0.3920
22689W        W38306  12.327  16.230   1.587 -0.0555  0.1135  0.3547
22690W        W38307   5.185   2.240  14.417  0.1009 -0.0882 -0.1205
22691W        W38308  10.589   4.328   1.211 -0.3596 -0.0968  0.0184
22692W        W38309  14.841  10.015  11.826 -0.1836 -0.1901  0.2003
22693W        W38310   9.880  13.344   0.138 -0.1655 -0.1448 -0.2330
22694W        W38311  14.030  13.855  14.308 -0.3460 -0.1728 -0.1145
22695W        W38312  16.153   5.844   2.192  0.1518 -0.2484  0.3655
22696W        W38313   5.508  11.090  13.533 -0.0744  0.0479 -0.1017
22697W        W38314  16.834   0.058  12.224 -0.0422 -0.0952 -0.2532
22698W        W38315  15.277  17.600  12.036 -0.0219  0.0487  0.1476
22699W        W38316   6.671  10.167  15.702 -0.0531 -0.1395  0.1517
22700W        W38317   5.768   9.471  11.475 -0.0894 -0.0406 -0.0768
22701W        W38318  17.385   1.003  15.490 -0.0317  0.1239 -0.0048
22702W        W38319  12.872   2.594   2.413  0.0834  0.0100  0.0807
22703W        W38320   6.860   9.246  11.943  0.0861 -0.1962 -0.0292
22704W        W38321  10.708   8.580  16.265  0.4774  0.3965 -0.0385
22705W        W38322  10.336   9.873  13.413  0.2066 -0.2408 -0.0054
22706W        W38323  16.200   5.663   5.674 -0.3146 -0.3836  0.1832
22707W        W38324   1.061  17.745  16.145 -0.0007 -0.0121 -0.1551
22708W        W38325   8.594   7.255   6.850 -0.1273 -0.0011 -0.0584
22709W        W38326   7.841   5.862   3.139 -0.2551 -0.2087  0.0802
22710W        W38327  14.633  11.592  11.797  0.2254  0.3228 -0.0034
22711W        W38328   5.945   3.948   5.321 -0.1168 -0.0240  0.2346
22712W        W38329   3.256   8.149  16.321  0.3163  0.1504  0.0311
22713W        W38330   7.528  14.893  13.627 -0.0210  0.1481 -0.1638
22714W        W38331   0.342  11.945  14.021 -0.1896 -0.0258 -0.0593
22715W        W38332   4.870   7.988  15.213 -0.1424  0.2509 -0.0880
22716W        W38333   3.427   9.502   2.436  0.1025 -0.2177 -0.0300
22717W        W38334  17.466   7.067   3.312  0.1591 -0.0996 -0.0164
22718W        W38335   0.777  16.955  12.214  0.1094  0.1297 -0.1971
22719W        W38336   1.908  11.567  12.187 -0.2144 -0.2977 -0.0137
22720W        W38337   2.510   0.272  15.947  0.1974 -0.4153 -0.0472
22721W        W38338  15.432   2.934  12.740  0.0388  0.2732 -0.1990
22722W        W38339  16.421   9.667  14.094  0.0855  0.0235 -0.3301
22723W        W38340  13.930  15.899   0.597 -0.1344 -0.0822 -0.2471
22724W        W38341  14.619  13.069  12.237  0.0565  0.0207  0.0572
22725W        W38342  13.233  11.389  14.643  0.1825  0.0144  0.0965
22726W        W38343   4.581   5.420   1.122 -0.1658  0.2533  0.1979
22727W        W38344  15.565   7.033   3.860  0.2806 -0.0884  0.2325
22728W        W38345  12.613   0.735   2.013  0.2206 -0.0387  0.3593
22729W        W38346  16.707   3.103  14.744 -0.0604 -0.0838 -0.4133
22730W        W38347   3.121   9.099   1.919 -0.3219 -0.1144  0.0952
22731W        W38348  17.592  13.594  12.736 -0.1991 -0.1497 -0.3935
22732W        W38349  14.790   2.300  14.328 -0.2732  0.1174  0.0408
22733W        W38350   4.071   7.498   3.737  0.0138  0.1622  0.3060
22734W        W38351   7.301  15.125   3.331  0.1342  0.0063  0.1011
22735W        W38352   3.729   4.782  13.266 -0.2559 -0.1248  0.0612
22736W        W38353   0.480  15.308   5.795  0.1066  0.1420  0.0886
22737W        W38354   0.709   0.943   3.840 -0.0220  0.1314  0.1359
22738W        W38355  10.908  17.386  16.572 -0.0212 -0.0804  0.1500
22739W        W38356  15.329   0.614   0.729 -0.3066  0.0683  0.0267
22740W        W38357   2.099   8.062  13.719  0.2255 -0.4035  0.1582
22741W        W38358   5.472  15.240   0.792 -0.1138  0.2625  0.1683
22742W        W38359   5.495   2.832  13.662 -0.0544 -0.1607  0.2519
22743W        W38360  14.329   8.945   1.030 -0.0427 -0.3490 -0.1559
22744W        W38361  17.230   3.267   3.366 -0.2653 -0.3036  0.1694
22745W        W38362  10.013   2.025   1.053  0.1541 -0.0623  0.1871
22746W        W38363   7.497   9.997  13.476  0.0854 -0.2462  0.0015
22747W        W38364  16.280  17.435  15.766  0.0473 -0.2595 -0.1485
22748W        W38365   9.028  11.454   3.389 -0.1755 -0.1406  0.0898
22749W        W38366   7.657  13.261   0.135  0.0170  0.1384 -0.0657
22750W        W38367   1.539  13.711   3.941  0.4282 -0.0151  0.2119
22751W        W38368   7.741  16.689  12.509  0.0791 -0.0075  0.1363
22752W        W38369  17.204   5.413  15.134 -0.2011 -0.3079  0.1611
22753W        W38370   4.623   3.643  13.121 -0.3622  0.0985 -0.1380
22754W        W38371   8.528  14.147  16.172 -0.2595 -0.1193  0.0993
22755W        W38372   0.208  12.747  12.034 -0.2062 -0.0367  0.0568
22756W        W38373  10.964  15.746   0.261  0.1407  0.2284  0.1248
22757W        W38374   8.643   4.851  15.389  0.1164  0.2754 -0.1004
22758W        W38375   5.779  10.438  16.122  0.3005 -0.0756 -0.2007
22759W        W38376  16.841  13.546  15.376  0.1289 -0.2234  0.0360
22760W        W38377  11.074   1.055   5.185  0.1910 -0.0751 -0.1740
22761W        W38378  16.051   3.090   0.118 -0.0819 -0.0450 -0.0262
22762W        W38379   2.457  13.319  10.941 -0.3751 -0.2158 -0.0113
22763W        W38380   9.991   3.561  16.265 -0.0254 -0.1377  0.2867
22764W        W38381   6.112  16.274  15.214 -0.1821 -0.0268  0.1514
22765W        W38382   0.258   5.574  15.121 -0.1098 -0.1242  0.0807
22766W        W38383  11.006  11.774   3.641 -0.0929 -0.2768 -0.0461
22767W        W38384   6.039   6.933   4.172 -0.0011  0.2655 -0.3183
22768W        W38385  11.277  13.336  14.844  0.1240 -0.3313  0.0569
22769W        W38386  11.755  10.784   0.277 -0.3988  0.4062  0.0550
22770W        W38387   8.516  16.375   5.508 -0.0226  0.0412  0.1045
22771W        W38388   5.770  15.035  16.242 -0.2953 -0.3025  0.0278
22772W        W38389   2.155   4.303   3.752 -0.0726  0.3123 -0.2166
22773W        W38390   4.023  16.919   0.290  0.1161  0.0811 -0.2704
22774W        W38391  14.169  16.210   0.889 -0.2488 -0.1131  0.2826
22775W        W38392   8.819   3.952   3.804  0.1819 -0.0640  0.1467
22776W        W38393  10.958  13.751  15.453  0.1289  0.2354  0.0679
22777W        W38394   8.746   7.389  14.454  0.0744  0.1078 -0.0729
22778W        W38395   2.699   0.523  11.650 -0.0279 -0.1570  0.0594
22779W        W38396   7.945   5.083   4.605 -0.1637 -0.2337 -0.1392
22780W        W38397   9.423  11.361  14.153  0.1047 -0.2960 -0.0336
22781W        W38398  16.818  14.522   5.595  0.1204  0.1526 -0.0257
22782W        W38399  10.669   3.092  13.499 -0.1892  0.3272 -0.1830
22783W        W38400  11.427   2.322   3.525  0.0030 -0.0312  0.3015
22784W        W38401   5.368   0.212  14.669  0.1448  0.2510 -0.1034
22785W        W38402   6.403   1.655  15.304  0.3616 -0.1518  0.0463
22786W        W38403   4.692   2.883  12.430 -0.0060  0.1213 -0.0696
22787W        W38404   7.452   2.551  15.815 -0.1630 -0.1064  0.0665
22788W        W38405  15.587  16.730  14.813 -0.3364 -0.1049 -0.1243
22789W        W38406  14.934   7.426   1.612 -0.1704  0.0538 -0.0249
22790W        W38407  12.654  13.559  15.757 -0.0505  0.0322  0.0018
22791W        W38408   2.426  16.242   5.064  0.0311 -0.1801 -0.1797
22792W        W38409  14.107   2.751  15.457 -0.0123  0.0123  0.1618
22793W        W38410  13.926   9.385   0.101  0.0879  0.2723 -0.1567
22794W        W38411  16.405   3.645  12.933  0.0809  0.2225  0.3459
22795W        W38412   1.295  15.744   2.681  0.0063 -0.2298 -0.0563
22796W        W38413   1.471   9.665   2.502 -0.1089  0.2947  0.0070
22797W        W38414  13.682   2.621  11.921  0.2411 -0.2619 -0.0360
22798W        W38415   2.024  10.716  15.564 -0.3583  0.1375  0.0639
22799W        W38416   0.492  14.140   2.102  0.0253 -0.1910  0.1007
22800W        W38417   2.888  16.302   0.066 -0.2085  0.1083 -0.0752
22801W        W38418   5.820   2.327   2.134 -0.4794  0.1232  0.0379
22802W        W38419  15.772  14.888  15.740  0.0729 -0.0146  0.1385
22803W        W38420   8.773   0.785   1.125  0.0451  0.0176  0.1940
22804W        W38421  16.790   5.832   0.112 -0.2613 -0.0472  0.1936
22805W        W38422   3.733   4.261  16.487 -0.1278  0.3685 -0.0081
22806W        W38423  11.284   9.518   4.694  0.2353  0.0484  0.3440
22807W        W38424   7.967   0.403   6.270 -0.1565 -0.6464  0.1754
22808W        W38425   1.859  16.517   6.244  0.0544  0.2344 -0.0013
22809W        W38426  10.050   6.237   5.133 -0.2204 -0.0681  0.3254
22810W        W38427   2.636   4.700  16.094 -0.2979  0.0324  0.1455
22811W        W38428   4.464   7.495   1.494 -0.1405  0.0949  0.2461
22812W        W38429  10.658   0.336   0.011  0.1900 -0.1485 -0.3901
22813W        W38430   8.215   8.795  11.873  0.1649 -0.1297 -0.3670
22814W        W38431   0.996   3.650   4.977  0.3029  0.0331  0.4008
22815W        W38432  15.684   6.434   3.242  0.0469  0.1310 -0.2121
22816W        W38433   9.343  11.589  15.619 -0.0871  0.1612 -0.1091
22817W        W38434  14.882   8.895   1.282  0.1125 -0.1726  0.1999
22818W        W38435  16.128   8.876  14.744  0.4805 -0.2077 -0.1339
22819W        W38436   1.776  11.073  15.820  0.1930 -0.1748 -0.1361
22820W        W38437  15.437  16.859   2.680 -0.1346 -0.2675  0.1587
22821W        W38438   1.034   9.507   2.121 -0.2073 -0.1955  0.2546
22822W        W38439   8.145  12.552   1.927 -0.1235  0.0847  0.2189
22823W        W38440  17.100  11.144   0.622 -0.0207 -0.1200  0.1176
22824W        W38441   1.885   6.912   2.001 -0.2912  0.0589 -0.0828
22825W        W38442  10.994   7.600   5.828 -0.0410  0.1761 -0.1157
22826W        W38443  11.588  10.781  12.998  0.1314  0.3573 -0.3559
22827W        W38444  17.759  13.260  14.052 -0.0111  0.1662 -0.3888
22828W        W38445   0.450  15.968   4.106 -0.1294  0.2245  0.0470
22829W        W38446   7.680  11.797   3.622 -0.5404  0.2861  0.1454
22830W        W38447   1.156  12.261   5.640  0.0879 -0.2738  0.1985
22831W        W38448   3.689  12.388  13.230  0.0092 -0.2689  0.1082
22832W        W38449  14.293   3.574   3.964 -0.2567 -0.0130 -0.1522
22833W        W38450   1.663  13.379   2.690  0.0716 -0.2305  0.0198
22834W        W38451  12.783   0.706  13.077 -0.1563 -0.0874  0.2191
22835W        W38452   7.514   4.378   1.987 -0.1672 -0.1287  0.0261
22836W        W38453   2.338   3.298   0.851 -0.1673 -0.2155 -0.0002
22837W        W38454  16.945  16.139   2.735  0.1186 -0.1955  0.1865
22838W        W38455  13.978   7.994  15.394 -0.1627 -0.4490  0.1063
22839W        W38456   7.651   8.152   3.687  0.3662  0.0984 -0.1577
22840W        W38457  14.272   0.015   4.040 -0.0877  0.1105 -0.0268
22841W        W38458  17.165  10.436  13.518  0.0082 -0.0301  0.0015
22842W        W38459   6.788   4.727  15.181  0.2528  0.0828 -0.1527
22843W        W38460   7.603  15.099   4.686 -0.0914  0.0570 -0.1960
22844W        W38461   9.641   4.823  16.815 -0.0367  0.0437  0.3470
22845W        W38462   7.522  16.598  14.554  0.0072  0.2882  0.1716
22846W        W38463   5.786  12.886  10.564  0.0790  0.0575 -0.0905
22847W        W38464   0.692   4.520   4.083 -0.1040  0.3852  0.3727
22848W        W38465  16.473   0.403  11.987 -0.0474 -0.1791 -0.2945
22849W        W38466  15.086  11.207  16.376 -0.0806 -0.0479  0.3709
22850W        W38467  12.009   5.531   3.776  0.0451  0.2871  0.0039
22851W        W38468  10.667  12.680   6.008  0.4566 -0.1920 -0.2414
22852W        W38469  14.661  12.551  14.452  0.3115 -0.4847 -0.0981
22853W        W38470  12.104  11.090   1.452 -0.1876  0.1823  0.0097
22854W        W38471   9.673   7.425  13.688 -0.1111 -0.3191 -0.0194
22855W        W38472   4.671   2.384  13.875 -0.2269 -0.0676  0.1413
22856W        W38473   9.645   1.022  14.958 -0.1637  0.0725 -0.2550
22857W        W38474   3.301  14.568   4.318 -0.0617  0.0045  0.0509
22858W        W38475  14.023  14.241   2.351 -0.1735  0.0309 -0.1985
22859W        W38476  12.100   3.032   4.338 -0.1481 -0.1409 -0.2285
22860W        W38477  15.164  11.560  13.180  0.0397 -0.0622 -0.0197
22861W        W38478   6.084  16.505  13.721  0.0338  0.0132  0.1009
22862W        W38479  14.568  12.520  15.457  0.0685  0.0837 -0.2642
22863W        W38480  14.687   7.870   4.294  0.2870 -0.1235  0.2018
22864W        W38481  12.071   2.976  16.711  0.1104  0.1502  0.0297
22865W        W38482   3.366   5.456   0.338 -0.0497 -0.0954 -0.1806
22866W        W38483  16.352   4.993  16.019  0.3548 -0.1552 -0.2410
22867W        W38484  10.111  11.267  16.318 -0.0421 -0.0287  0.0207
22868W        W38485   5.719  15.791   2.426 -0.1853 -0.0456 -0.1807
22869W        W38486  15.371   9.077  16.702 -0.3354 -0.1386  0.1128
22870W        W38487  10.619   6.076   0.149 -0.0892 -0.0847 -0.1534
22871W        W38488   8.255   8.574   0.827 -0.3262 -0.2816 -0.1670
22872W        W38489  15.438   1.492  11.723  0.0966  0.1149  0.0596
22873W        W38490   4.789  13.756  12.319  0.1374  0.1204 -0.0794
22874W        W38491   7.190  12.024   2.440  0.0807  0.0694 -0.0703
22875W        W38492   8.488   0.756  13.660  0.2579 -0.0809 -0.1106
22876W        W38493   3.902   9.356   0.743  0.0119  0.0696 -0.1384
22877W        W38494   4.542  12.285  16.050  0.0163 -0.1011 -0.0368
22878W        W38495   8.212   1.671  15.555  0.2997  0.0329  0.0426
22879W        W38496  13.149   0.892   0.993  0.0595  0.2312 -0.3060
22880W        W38497  10.878   1.756  13.868 -0.2243  0.0197 -0.0653
22881W        W38498  15.565   1.390  15.177 -0.1449 -0.2407 -0.4303
22882W        W38499  14.285  15.751  12.632 -0.1243  0.0971  0.0564
22883W        W38500   9.686   8.428   5.587 -0.0778  0.0348 -0.0973
22884W        W38501   3.376   2.254  12.024  0.1276  0.1481 -0.2164
22885W        W38502  15.085   3.874   3.909  0.0318 -0.1207 -0.1457
22886W        W38503   1.413   7.753   2.144  0.1628  0.0670  0.1603
22887W        W38504  15.621   0.639  16.734  0.1845 -0.1006 -0.0702
22888W        W38505  11.516  13.742   3.324 -0.2135 -0.2089  0.0695
22889W        W38506   0.814   0.875   5.544  0.0790  0.0083 -0.0164
22890W        W38507  11.378   0.261   5.358  0.2444 -0.0787  0.1785
22891W        W38508   2.695  16.683  14.537  0.2113 -0.2592  0.1014
22892W        W38509   9.017   0.585  11.598  0.2885  0.1747 -0.0138
22893W        W38510   8.578   1.329  16.410  0.2972  0.4539  0.0581
22894W        W38511  10.904   5.253  14.876  0.0587  0.2081  0.0050
22895W        W38512   7.763   1.469   0.490  0.0681  0.2393 -0.2026
22896W        W38513   1.088   2.586  15.033  0.0933 -0.2567 -0.0551
22897W        W38514   1.920   1.727   2.223  0.1294 -0.1219 -0.0174
22898W        W38515   3.525  13.610   0.856 -0.0993  0.1113 -0.0868
22899W        W38516   5.084  13.984   3.300  0.0719 -0.0088  0.0307
22900W        W38517   5.473  17.152   2.734  0.5316 -0.2523 -0.2574
22901W        W38518   0.853   2.400   2.522  0.1673 -0.0779  0.3925
22902W        W38519  15.860  11.885   2.359 -0.0655 -0.0976 -0.4082
22903W        W38520  15.618  14.101   5.619 -0.0772 -0.0281  0.1016
22904W        W38521   4.862   1.885   3.290  0.2918 -0.2247 -0.4304
22905W        W38522  12.649  10.546  11.918 -0.4635 -0.0321 -0.0735
22906W        W38523   1.703  12.244  14.271  0.1945  0.3111  0.0188
22907W        W38524  16.867   2.169   1.889 -0.1038  0.2468  0.0467
22908W        W38525  12.279  16.024   6.174  0.3998 -0.3026 -0.0955
22909W        W38526  16.553  16.578   0.564  0.2759 -0.1539 -0.0347
22910W        W38527  10.402  16.983  14.707 -0.1887  0.0470 -0.1170
22911W        W38528  14.355   3.699  13.430 -0.1582  0.0761 -0.1272
22912W        W38529   5.162   8.353  16.274  0.1172 -0.0081  0.0256
22913W        W38530  12.138  13.733  13.938  0.0015 -0.1120 -0.3364
22914W        W38531   2.284   2.746  14.691  0.1850  0.0220 -0.3210
22915W        W38532  10.804  17.551  10.787 -0.0368 -0.1510 -0.1413
22916W        W38533  10.706   8.694  14.161  0.0301 -0.2677  0.0320
22917W        W38534  13.215   3.246   3.283  0.1896  0.2579 -0.0349
22918W        W38535  17.160   8.922  13.428 -0.1235  0.1165  0.0071
22919W        W38536   3.647   1.330  16.586  0.2833 -0.3937  0.1249
22920W        W38537   7.971   7.584  15.182 -0.1495  0.2586 -0.1581
22921W        W38538  17.472   6.075   2.843  0.0826 -0.0437  0.0264
22922W        W38539  11.741  15.205  14.600 -0.1929  0.0246  0.0856
22923W        W38540   9.270   4.463   0.085  0.0719  0.0082  0.0457
22924W        W38541   1.329   4.225   2.562 -0.3158  0.0483  0.0750
22925W        W38542  16.461   5.424   2.298  0.0327 -0.0329 -0.1190
22926W        W38543  14.496   3.685  16.560 -0.2442  0.0585  0.3680
22927W        W38544  17.335   5.091   1.157 -0.0619  0.0368  0.0502
22928W        W38545   5.449   8.205   3.011 -0.0923 -0.2306  0.1097
22929W        W38546  16.285   4.667   1.788 -0.4725 -0.2616 -0.2266
22930W        W38547  14.012   0.415  12.088 -0.1351 -0.1517  0.1086
22931W        W38548   1.704   1.639   0.563  0.2992  0.4125  0.1021
22932W        W38549  10.759   1.295   1.889 -0.1236 -0.0542  0.0297
22933W        W38550   7.855  13.144  13.921  0.2137 -0.2232 -0.0080
22934W        W38551  11.224   1.575   2.042  0.2811  0.0549  0.0905
22935W        W38552   5.875  14.702  13.179  0.2767  0.3065 -0.0158
22936W        W38553  17.217   4.264   2.315  0.2158  0.1560  0.2549
22937W        W38554  16.607  16.311   4.736 -0.1618  0.0925 -0.0658
22938W        W38555   9.079   8.185   4.254 -0.0252 -0.1182  0.2809
22939W        W38556   2.200  11.580  13.042  0.1630  0.1209  0.1478
22940W        W38557  16.210   1.914   2.876 -0.0417  0.2447 -0.0274
22941W        W38558  17.395  10.009   4.365 -0.2491  0.0142  0.2122
22942W        W38559  15.936  10.244   0.155  0.1304 -0.1184 -0.0589
22943W        W38560  12.197  13.332  14.856 -0.4111  0.2695 -0.3124
22944W        W38561   4.551   5.748  12.674  0.1115 -0.1125 -0.1225
22945W        W38562  16.046   3.573   0.102  0.2040 -0.0188  0.1014
22946W        W38563  11.794  12.614   0.765 -0.1317  0.0027  0.0609
22947W        W38564   5.760   6.260  14.054 -0.0270 -0.1253 -0.1146
22948W        W38565  13.989   9.009   5.109 -0.3671  0.2157 -0.1957
22949W        W38566  11.283   3.632  14.271  0.0005  0.2895 -0.1360
22950W        W38567  15.117   9.995   0.141  0.0201 -0.0951  0.0397
22951W        W38568   1.602   2.632   4.623  0.0677 -0.0906  0.1204
22952W        W38569   8.427   5.375  13.113  0.0186  0.0943 -0.1713
22953W        W38570   3.776  11.950  14.132 -0.1482  0.3569  0.1977
22954W        W38571   9.480   7.260  11.766  0.1024  0.0453  0.3322
22955W        W38572   1.034   3.004  13.801  0.0606  0.0110  0.0326
22956W        W38573  14.603   8.986   2.792  0.2120  0.1215 -0.1214
22957W        W38574  13.176   7.831   2.767  0.0126 -0.0589  0.2768
22958W        W38575   2.010   5.014  15.048 -0.3005  0.0906 -0.0187
22959W        W38576  11.856  11.902   5.155  0.1101 -0.1176  0.2309
22960W        W38577   6.790   9.557  12.956 -0.2194 -0.1309  0.4034
22961W        W38578  16.133   1.396  11.079  0.3058 -0.4113 -0.2458
22962W        W38579   4.403  10.538  15.339 -0.0876  0.0362  0.1422
22963W        W38580  14.467   8.428  16.261 -0.1354  0.0828  0.1376
22964W        W38581   5.350   6.175   0.839  0.5247  0.1083 -0.2045
22965W        W38582  15.391  10.940   2.755 -0.0622 -0.0154  0.2004
22966W        W38583  16.751  16.979  12.564 -0.0338  0.0202  0.2051
22967W        W38584  11.472  12.096  16.066 -0.0320 -0.0580  0.1984
22968W        W38585  17.663   1.886   5.058  0.0696  0.1351 -0.1294
22969W        W38586   2.319   8.211  15.931  0.2289  0.3847 -0.3758
22970W        W38587   9.415   8.562  11.453  0.0217  0.0463 -0.1698
22971W        W38588  11.554   6.404  15.470  0.1688 -0.0882  0.1622
22972W        W38589   2.568   5.216  16.370  0.0777  0.0178 -0.0489
22973W        W38590   6.051  13.024   3.805  0.0105 -0.0421 -0.0727
22974W        W38591   6.222   0.362   2.814 -0.2955  0.1502 -0.1467
22975W        W38592   7.715   3.520   0.161 -0.2464  0.2154  0.0123
22976W        W38593  10.627   4.098   3.638 -0.1980 -0.3971  0.1783
22977W        W38594   7.701   6.554   0.532 -0.1059 -0.2513  0.2395
22978W        W38595   5.393  14.820   2.078  0.0215  0.2260 -0.0606
22979W        W38596  14.921  14.768  16.076  0.1005 -0.1812  0.0750
22980W        W38597   6.095   2.106   1.634  0.1990 -0.0215 -0.2067
22981W        W38598  10.849  13.702  12.935 -0.0315  0.1897  0.0541
22982W        W38599   9.769  14.857   4.892 -0.1091  0.0557  0.0919
22983W        W38600   0.790   3.146   4.538  0.0925  0.1595  0.2302
22984W        W38601   2.616   0.262   2.263  0.0929  0.0187  0.0748
22985W        W38602  11.233  16.671   0.913  0.4301 -0.0451 -0.4406
22986W        W38603   8.423   9.321  13.926 -0.2835 -0.1247  0.0486
22987W        W38604   2.901   2.151  15.989  0.1056 -0.0230  0.0348
22988W        W38605   8.674   0.363  15.977  0.0320  0.1015 -0.0805
22989W        W38606   1.049   1.945   5.097 -0.0357 -0.1742 -0.1036
22990W        W38607  12.368  10.113   3.820  0.1627  0.2163 -0.1114
22991W        W38608  16.792   1.514  14.883 -0.1071  0.1109 -0.0328
22992W        W38609   3.736   9.039   4.284  0.2672  0.0956 -0.1131
22993W        W38610   4.033  16.230  13.627  0.0499 -0.0385  0.2317
22994W        W38611   2.956  10.517  15.893  0.0755  0.1830 -0.1500
22995W        W38612  17.290  13.047  12.926  0.0629 -0.1677 -0.0156
22996W        W38613  12.834   1.713  13.859  0.4431  0.1410 -0.0392
22997W        W38614   9.744  13.656   0.503  0.0211  0.1299  0.2314
22998W        W38615   9.349  10.138  14.544 -0.0382 -0.0059  0.2138
22999W        W38616   6.563   0.722   0.739  0.1063 -0.1702 -0.1319
23000W        W38617   4.146   4.795  14.349  0.0869  0.0352  0.1695
23001W        W38618   5.702  14.753  14.535 -0.2313  0.0734 -0.1122
23002W        W38619   6.122   2.824  11.981 -0.0830 -0.3219  0.1206
23003W        W38620   0.409   5.572   0.547  0.0900 -0.1156 -0.0634
23004W        W38621   7.781   9.022  11.934  0.0983  0.2566  0.2859
23005W        W38622  10.136   1.021  15.080 -0.0020 -0.1544 -0.0921
23006W        W38623  16.800  12.822  14.950  0.2156  0.0688 -0.1432
23007W        W38624   6.599  11.218  11.699 -0.0216  0.0048 -0.1024
23008W        W38625  10.381  10.915  12.161 -0.0780  0.0607 -0.1461
23009W        W38626  13.854   6.158   0.612  0.0176  0.3376 -0.3124
23010W        W38627   8.083   7.967  11.543  0.2313  0.0383  0.3165
23011W        W38628   0.736   7.982   0.633 -0.1382  0.0163  0.0019
23012W        W38629  14.304  17.473   4.991 -0.4410  0.1197 -0.0569
23013W        W38630   7.670   5.357  12.520  0.0394  0.0077  0.0729
23014W        W38631  10.566  15.960  13.611 -0.1385  0.0500 -0.0893
23015W        W38632  16.247  11.440   0.474 -0.1505  0.2210 -0.1730
23016W        W38633   0.428   9.708  13.149 -0.2818  0.1858  0.1156
23017W        W38634  11.838   6.389   0.626 -0.1064  0.2166  0.0009
23018W        W38635   8.960   5.975   2.459 -0.0194  0.0025  0.1233
23019W        W38636  16.451  14.428  14.584  0.1412 -0.0069 -0.0665
23020W        W38637  17.735  17.736   3.219 -0.0740  0.1639  0.1463
23021W        W38638   6.911  10.127   5.796  0.4552 -0.0946 -0.2184
23022W        W38639   6.580   1.281  12.476 -0.1191  0.0382  0.1367
23023W        W38640  11.553  17.029  14.235 -0.2002 -0.0942 -0.1124
23024W        W38641  15.594  16.534  11.250 -0.0643  0.2218 -0.2075
23025W        W38642  15.786  12.888  14.537  0.4613 -0.0608 -0.1289
23026W        W38643   9.933  16.650  13.057  0.1660 -0.3089 -0.1099
23027W        W38644   3.560   8.067  14.544 -0.0055 -0.0998 -0.1080
23028W        W38645   6.567   0.606   2.380  0.0379 -0.0706  0.0253
23029W        W38646   0.767  12.492  15.580  0.1489  0.0767 -0.1207
23030W        W38647   4.138   5.413  11.157 -0.0193 -0.0963 -0.0997
23031W        W38648  11.765   9.350  14.861 -0.0013 -0.0244  0.2863
23032W        W38649   6.805  13.832  16.422  0.2535 -0.1445  0.0728
23033W        W38650   3.020  10.494  13.569 -0.1349  0.1197 -0.1714
23034W        W38651   2.397  15.945  12.417 -0.0841 -0.0404 -0.0135
23035W        W38652  15.477  13.543   3.602  0.2710 -0.0214  0.0186
23036W        W38653  11.664  11.186  15.131  0.1222 -0.0299 -0.2350
23037W        W38654   8.271  15.815   0.563 -0.1537 -0.1747 -0.0987
23038W        W38655   2.343   9.468  15.422  0.0416  0.2477 -0.2334
23039W        W38656   0.514  13.869   3.051  0.0498 -0.0402  0.1134
23040W        W38657  17.357   6.931   6.580  0.1529 -0.3137  0.0396
23041W        W38658   2.452  10.530   3.579  0.0543  0.3006  0.0681
23042W        W38659  17.385   7.666   5.060  0.5912  0.0944  0.0093
23043W        W38660  11.755   9.176  13.846  0.3132  0.0213  0.1622
23044W        W38661   1.675   6.342  12.886  0.0690 -0.1008 -0.0682
23045W        W38662   1.187   9.205  13.520 -0.3317  0.4585  0.0586
23046W        W38663   9.627   7.623  15.229  0.0185  0.2628 -0.1641
23047W        W38664  12.003   8.018   4.318 -0.1672 -0.0076 -0.1654
23048W        W38665   7.258  13.450  13.551 -0.0342 -0.1506 -0.0589
23049W        W38666   3.361  13.685   5.118  0.0646  0.3736 -0.0776
23050W        W38667   2.568   7.136   5.089 -0.3798  0.2831 -0.1845
23051W        W38668  12.515   3.491   2.494 -0.2756  0.0533  0.0865
23052W        W38669   9.257  10.868   4.206 -0.0423  0.0507  0.0060
23053W        W38670  12.538   5.240  16.626 -0.0486 -0.0339  0.1566
23054W        W38671   4.570  12.115   4.520  0.1010 -0.0746 -0.2599
23055W        W38672   9.844  14.199   0.543  0.0041  0.2097 -0.1855
23056W        W38673   6.452   0.300  10.787 -0.0684 -0.1507 -0.4588
23057W        W38674  12.585   3.303   6.186  0.0762 -0.1046  0.0935
23058W        W38675   3.421  10.221  11.366 -0.0411  0.2925  0.3409
23059W        W38676   6.385   8.200  15.537 -0.0709 -0.1342  0.1224
23060W        W38677   2.381  16.680   0.368 -0.0176  0.3148  0.2125
23061W        W38678   2.781   7.226  13.696 -0.3756 -0.3482  0.1195
23062W        W38679   4.735   8.968   0.975 -0.1309 -0.2462  0.0261
23063W        W38680   2.936   9.886   2.228  0.0215 -0.1359 -0.1977
23064W        W38681  12.668  15.286  12.172 -0.0249 -0.3151  0.0506
23065W        W38682   2.921   6.787   0.591 -0.1116 -0.0907  0.0539
23066W        W38683   7.104   2.772   1.791  0.0203 -0.1399  0.1174
23067W        W38684  14.799   3.340  14.706 -0.0781 -0.1338  0.1140
23068W        W38685   7.732   9.072   2.505  0.2068 -0.0456 -0.0078
23069W        W38686  12.762   4.109  12.802  0.0715  0.0670 -0.0110
23070W        W38687   8.393  16.850   0.933 -0.3468  0.0820  0.0237
23071W        W38688   1.415   9.499   3.887 -0.3153  0.0024  0.1874
23072W        W38689  16.973  16.339  12.102 -0.0973 -0.3134 -0.2817
23073W        W38690  15.506   7.357  16.103  0.0829 -0.0741  0.0876
23074W        W38691   6.654   7.410   4.201 -0.0003 -0.3219 -0.1356
23075W        W38692   4.140   9.899   4.184 -0.2972  0.0298  0.2981
23076W        W38693   0.919   6.415   1.540  0.1920  0.4754 -0.0588
23077W        W38694  15.903  15.667   2.186  0.0179  0.0586 -0.0922
23078W        W38695   5.814  11.905   4.827  0.1658  0.1296  0.2570
23079W        W38696   5.913  17.693   0.582  0.1846  0.0912  0.2892
23080W        W38697  11.323  10.174  16.604 -0.0713 -0.1253 -0.0905
23081W        W38698   3.162   1.334  16.342 -0.1887 -0.3616 -0.3102
23082W        W38699   5.708  11.522  13.059  0.1116  0.0552  0.0004
23083W        W38700  16.669   5.439   5.183 -0.0763 -0.0994 -0.1929
23084W        W38701   0.033   7.587   5.134  0.0202 -0.1584 -0.0430
23085W        W38702   8.569   6.816  14.190  0.1700 -0.3179  0.0100
23086W        W38703  11.306  15.107   3.269 -0.0126  0.0799 -0.1366
23087W        W38704  11.295  15.364  14.718  0.2104 -0.5176  0.1651
23088W        W38705   2.780   5.267  14.675  0.0931 -0.0802 -0.1293
23089W        W38706  17.096  15.663  13.420  0.0784 -0.5546  0.1139
23090W        W38707  13.961   1.778   0.908 -0.1940 -0.1093 -0.0565
23091W        W38708   5.176   9.011  13.525 -0.1861  0.0008  0.0029
23092W        W38709   0.353   5.525  14.662 -0.0013 -0.1594  0.0956
23093W        W38710   7.516  17.217  15.690 -0.0895 -0.2212  0.3420
23094W        W38711   1.902  16.643  13.991 -0.0305  0.1312  0.4932
23095W        W38712  16.092  15.679  13.507 -0.1448 -0.0142  0.0259
23096W        W38713   1.151  13.079   3.588  0.0660 -0.0375  0.0897
23097W        W38714   8.147  12.903  15.760  0.0647 -0.2234  0.0857
23098W        W38715  17.296   7.468  15.430 -0.0902  0.2006 -0.1905
23099W        W38716  13.988  10.724   0.388  0.1284  0.1856  0.2253
23100W        W38717  17.206  14.789   5.232  0.1677 -0.1281 -0.2304
23101W        W38718  12.174  11.249  13.660 -0.3622 -0.0735  0.0880
23102W        W38719   5.558   0.898  10.115 -0.0077 -0.0830 -0.0296
23103W        W38720   0.408  12.999   3.085  0.1205  0.0976  0.0969
23104W        W38721  16.392   1.842  12.776 -0.0529  0.0950  0.3232
23105W        W38722   1.918  17.841  15.047 -0.0542 -0.0799  0.0152
23106W        W38723   9.780  14.591  12.883  0.2679  0.2686 -0.2476
23107W        W38724   5.572   5.800   2.106 -0.3694 -0.3186  0.1756
23108W        W38725  11.666   7.340   3.692  0.0801 -0.2105 -0.2699
23109W        W38726  12.001  12.482  13.428  0.0027 -0.0114 -0.0221
23110W        W38727  13.642  13.747   5.594  0.3910  0.1598 -0.5145
23111W        W38728   1.508   0.388  11.627  0.0264 -0.0566 -0.0037
23112W        W38729   4.289  17.719  11.280 -0.1643 -0.0512 -0.5076
23113W        W38730   1.790   0.666   4.683  0.1493 -0.1145 -0.1440
23114W        W38731   5.099   9.304  15.225 -0.2300  0.2037 -0.0529
23115W        W38732  12.107   8.834   4.011 -0.4144 -0.0077  0.4953
23116W        W38733   4.544   3.061  10.970  0.3107 -0.0255  0.0695
23117W        W38734   9.800   3.037   3.399  0.1552 -0.2875 -0.1096
23118W        W38735  15.198   2.735   2.608  0.3184 -0.0238 -0.1140
23119W        W38736   8.908   9.455   2.245  0.2497 -0.0795 -0.0578
23120W        W38737   1.760  17.044  14.376 -0.0138  0.0622 -0.0296
23121W        W38738  16.762  14.837  10.717 -0.0820  0.2196 -0.0248
23122W        W38739   6.422  17.634  16.300  0.0397 -0.0101  0.0031
23123W        W38740  17.771   5.591  12.739  0.0966 -0.2102 -0.1172
23124W        W38741  13.697   4.022  12.525 -0.0748  0.0118 -0.4370
23125W        W38742  17.509   1.016   4.656 -0.0024 -0.1460 -0.2001
23126W        W38743  11.801  16.319   2.869 -0.0953  0.0573 -0.2850
23127W        W38744   6.667  17.759   5.073 -0.1899 -0.0222  0.1786
23128W        W38745   9.893  13.690   3.765  0.2415 -0.1148 -0.1000
23129W        W38746  10.060  12.808   2.099 -0.4536 -0.2755  0.2796
23130W        W38747  16.795   5.545   5.670  0.0832 -0.2902 -0.1486
23131W        W38748  11.901   7.659  13.796  0.3593 -0.1170 -0.0112
23132W        W38749   2.109  12.809   5.125  0.2140  0.0007  0.0014
23133W        W38750   9.442  13.011  14.968 -0.0115 -0.0181  0.2006
23134W        W38751   6.584   5.867  14.855 -0.1536  0.0145  0.1626
23135W        W38752  14.088   7.227   4.135  0.1647 -0.2972 -0.1775
23136W        W38753  12.890  10.754   4.178 -0.1384 -0.1234 -0.0431
23137W        W38754   0.526   9.810   1.331  0.0017 -0.1502  0.1477
23138W        W38755  14.502   9.321   1.295  0.0712  0.2209 -0.0694
23139W        W38756  12.287   0.827  13.918 -0.0803 -0.1328  0.0707
23140W        W38757  16.268  16.734   5.263 -0.1040  0.0860  0.0724
23141W        W38758   0.250   2.078   3.216 -0.1212  0.2422  0.0773
23142W        W38759  11.499  12.079  13.311  0.0525  0.0608  0.2779
23143W        W38760  17.102   6.736  13.294 -0.3077 -0.1528  0.0414
23144W        W38761   8.311  11.766   0.841 -0.2603 -0.1186 -0.2685
23145W        W38762  12.014  17.315  14.101  0.3361  0.1926  0.1413
23146W        W38763   3.811   9.685   2.089 -0.3495 -0.1190  0.1714
23147W        W38764  13.567  15.806   3.525 -0.0312  0.2210 -0.2428
23148W        W38765   6.985  15.303   0.525  0.1098  0.0374 -0.1780
23149W        W38766   3.413   6.071   4.350  0.2551  0.3651 -0.0970
23150W        W38767   5.770   6.222   5.222  0.1094  0.1464  0.0562
23151W        W38768  16.578  16.605  14.219  0.0502  0.0761  0.1273
23152W        W38769   5.089   3.675   1.406  0.0950  0.1062 -0.0007
23153W        W38770  16.583  17.698  11.384 -0.2397  0.3044  0.1512
23154W        W38771  12.533   6.923  13.975 -0.1978 -0.1152 -0.0180
23155W        W38772   0.798   1.249  14.527  0.3667 -0.0450  0.2173
23156W        W38773   9.857   7.450  12.213 -0.0703 -0.5491 -0.1986
23157W        W38774  14.567   4.923   3.923  0.0293 -0.0678 -0.3885
23158W        W38775  13.180   5.083  15.110  0.1335 -0.0875  0.0947
23159W        W38776  11.524  17.140   0.126  0.0604  0.2476  0.0681
23160W        W38777  11.055  14.536  11.437 -0.0741  0.0820 -0.0258
23161W        W38778  11.439   8.945  15.025  0.0826  0.2179  0.0845
23162W        W38779   1.724   3.890   1.265  0.0619 -0.2426 -0.0528
23163W        W38780   0.116   9.942  15.707  0.1211  0.2583  0.1601
23164W        W38781  11.635  16.024   5.082  0.1191 -0.1028 -0.2444
23165W        W38782   7.156  10.780   0.227 -0.0831  0.3166  0.1230
23166W        W38783   6.053   4.700   3.605 -0.0164 -0.4064 -0.0543
23167W        W38784  14.535  11.063  13.593  0.0062  0.0927  0.0526
23168W        W38785   8.500   4.714   2.658 -0.1373 -0.3180 -0.0907
23169W        W38786   2.661   4.302   2.575  0.2471  0.1926  0.0281
23170W        W38787   7.807  12.458  14.591  0.1667  0.3053 -0.0356
23171W        W38788  10.392   6.258   4.684 -0.1571 -0.1611  0.0387
23172W        W38789   4.466   0.621  13.691  0.3411 -0.1010  0.1030
23173W        W38790  17.431   4.284   3.191  0.4616  0.1796 -0.0818
23174W        W38791  17.308  15.337  16.430  0.2112  0.0689  0.0484
23175W        W38792   6.833  12.422  12.993  0.0148  0.0511  0.0891
23176W        W38793   8.196  15.684   4.949  0.0174 -0.0318 -0.1005
23177W        W38794   3.463  16.085   0.971 -0.0016 -0.1628 -0.0680
23178W        W38795   0.947  13.597   0.846 -0.1714 -0.0908  0.1265
23179W        W38796   8.166  15.553   2.959 -0.3530  0.1765 -0.1917
23180W        W38797  12.868  17.054  14.322 -0.1168  0.2606  0.0071
23181W        W38798   0.467  17.139  11.736 -0.4500 -0.1270  0.0428
23182W        W38799  17.177   8.899   2.256 -0.0201  0.5115 -0.0709
23183W        W38800   4.296   2.588   3.273  0.0440 -0.2782  0.3145
23184W        W38801  12.441   6.825  13.494 -0.0773  0.3636 -0.0878
23185W        W38802   9.870   4.844   5.219  0.1865 -0.2712  0.2252
23186W        W38803   7.928  11.723  12.412 -0.3346  0.0344  0.0067
23187W        W38804  15.920   5.751  15.390 -0.0451 -0.2569  0.3579
23188W        W38805   3.165   0.466   1.126  0.1039  0.0813  0.1167
23189W        W38806  15.719   2.663  15.769 -0.0394 -0.0259 -0.1281
23190W        W38807   2.037  11.206   2.265  0.0423  0.1011 -0.1382
23191W        W38808  16.349  17.826   3.652 -0.2915  0.0796  0.1064
23192W        W38809   0.513   7.553  15.000 -0.2655 -0.3564  0.0976
23193W        W38810   5.438  15.417   1.631  0.0411 -0.2733  0.0926
23194W        W38811  15.200   2.174  11.613 -0.0257 -0.0211 -0.1074
23195W        W38812  10.313   7.436   5.090 -0.0678  0.0473  0.0534
23196W        W38813  14.577   1.436   3.662 -0.2456  0.0458  0.1524
23197W        W38814   8.527  17.313  13.113  0.1584 -0.0982  0.2704
23198W        W38815   6.507   1.308  14.973  0.1176 -0.4702  0.3006
23199W        W38816   6.037   6.964   0.533  0.1046  0.0645  0.0328
23200W        W38817   0.770   5.354  14.899  0.1035 -0.3432 -0.1995
23201W        W38818  11.444   1.498  11.583 -0.0325  0.1529 -0.1041
23202W        W38819   6.781  13.238   4.351 -0.2813 -0.0581 -0.0649
23203W        W38820   5.300   1.175  11.947  0.1390  0.0810 -0.1193
23204W        W38821  15.105   9.643   4.368  0.1996  0.0347  0.0965
23205W        W38822  17.402   8.970  12.465  0.4079  0.0676  0.3096
23206W        W38823  16.125  16.423  14.011  0.2473  0.1605  0.3352
23207W        W38824   6.333   7.179  14.549  0.1807 -0.0515 -0.1721
23208W        W38825  11.427   6.553  12.402 -0.0453 -0.1912 -0.1125
23209W        W38826  12.503  12.838  15.196 -0.0051 -0.0676  0.0840
23210W        W38827   4.532   2.397   0.332 -0.2077  0.0418 -0.0406
23211W        W38828   9.338  13.720   3.566 -0.1424  0.0180  0.1635
23212W        W38829   0.660   2.607   0.379 -0.0812 -0.1168  0.0285
23213W        W38830   0.364   6.247  12.259 -0.2446 -0.2595 -0.0319
23214W        W38831  12.802   1.681   0.042 -0.1420  0.0395  0.1111
23215W        W38832  15.545   8.579   3.680 -0.0479 -0.1280 -0.0532
23216W        W38833   2.351   0.876  12.238 -0.0757  0.2273  0.3352
23217W        W38834   6.154  11.241   0.494 -0.0766  0.1997  0.0186
23218W        W38835  13.041  13.222   4.415  0.0656 -0.1370 -0.1932
23219W        W38836   5.158   2.168   4.704 -0.1220  0.3016 -0.1526
23220W        W38837  13.969  14.196  13.849 -0.3362 -0.1737  0.2312
23221W        W38838   4.437  10.445  15.850  0.2904 -0.0152  0.1955
23222W        W38839  11.398   8.568  11.360 -0.2086  0.2252  0.2739
23223W        W38840   5.917   5.314  13.410 -0.0294  0.2553  0.1618
23224W        W38841   8.995   6.672   0.830 -0.3685 -0.0723  0.0965
23225W        W38842  14.038   0.465  14.476 -0.1363 -0.0001  0.0740
23226W        W38843  14.884   2.844   3.032  0.1635 -0.0959 -0.0234
23227W        W38844   7.728   0.291   3.663  0.0721 -0.3207 -0.1189
23228W        W38845   0.170  10.513   2.563 -0.0326  0.2274 -0.2736
23229W        W38846  15.682   9.271   3.060 -0.0145  0.2972  0.2802
23230W        W38847   7.605   4.389  11.083  0.1721  0.2830  0.0838
23231W        W38848   7.289  16.514  13.913 -0.1446  0.1145 -0.2583
23232W        W38849   6.157   3.420  15.216  0.1005  0.3173  0.1983
23233W        W38850  14.711   2.573   2.630 -0.0535 -0.1246 -0.1637
23234W        W38851   3.636   3.727  14.575 -0.1656  0.2945  0.0628
23235W        W38852   7.705   5.150   0.789  0.0990  0.1512 -0.2425
23236W        W38853   9.234  17.145  15.081  0.1037 -0.2079  0.1798
23237W        W38854   9.993   2.949   2.449  0.1621  0.1652  0.0816
23238W        W38855   6.128  10.958  12.789 -0.2685 -0.2115  0.1914
23239W        W38856  10.898  17.401   5.414  0.1850 -0.1129 -0.2195
23240W        W38857   6.623   3.816   3.595 -0.2616 -0.0277 -0.0691
23241W        W38858  15.704   8.688   1.095 -0.1410  0.0597 -0.1820
23242W        W38859  15.355   5.039   5.767 -0.0347  0.0416  0.0238
23243W        W38860  15.281   0.891   0.217 -0.0621  0.1685  0.1591
23244W        W38861   6.487   2.848  15.651  0.1418  0.0029 -0.1364
23245W        W38862  10.433  16.817  11.863  0.1295  0.0620  0.1705
23246W        W38863   2.004   3.328  12.951  0.0492 -0.0870 -0.1866
23247W        W38864   0.002   8.986   2.391  0.0698  0.0392  0.0134
23248W        W38865   1.692   1.837  16.385  0.3089  0.1989  0.3548
23249W        W38866  10.774  15.848  12.317 -0.1643  0.2330  0.2102
23250W        W38867   8.753  10.268   0.224  0.3336 -0.1699 -0.0285
23251W        W38868   3.003   1.623   2.502  0.0688  0.2799 -0.1355
23252W        W38869   2.733   8.882   5.095 -0.1375 -0.0155  0.0665
23253W        W38870   2.304  12.979  13.925  0.2003  0.0366 -0.1548
23254W        W38871  13.002  16.634   2.567  0.1737 -0.2467  0.3063
23255W        W38872  17.254  11.647  10.765 -0.1896 -0.1631  0.2236
23256W        W38873   3.842   1.144  13.620 -0.1139  0.1799  0.4270
23257W        W38874   1.563   5.784   4.740  0.2468 -0.1925 -0.0955
23258W        W38875   8.030  14.931  11.331  0.2836 -0.1429 -0.0241
23259W        W38876  14.901   2.008   3.334 -0.0055  0.1857 -0.0067
23260W        W38877   6.350   3.321  14.725 -0.1222 -0.3654 -0.2109
23261W        W38878  13.430   2.377  12.222  0.3396  0.3004 -0.0571
23262W        W38879   5.716   4.588  11.909  0.0278  0.1087 -0.0539
23263W        W38880   9.742   2.220   4.966  0.1341  0.0788  0.0409
23264W        W38881   0.173   5.937  14.841 -0.1634 -0.0884  0.2612
23265W        W38882   0.654   9.559  16.699 -0.0192  0.0612  0.0226
23266W        W38883  15.409  16.536   1.854  0.3780  0.2913 -0.0211
23267W        W38884   9.181  14.975   2.075  0.2008  0.0824 -0.0543
23268W        W38885   3.902   3.534  12.378  0.0029  0.2142 -0.1912
23269W        W38886   8.584  15.568   0.974 -0.0425 -0.1666  0.2333
23270W        W38887  11.940  10.675  14.408 -0.0680  0.0466 -0.2155
23271W        W38888   3.930   5.278   2.417  0.1184  0.0354 -0.2667
23272W        W38889  11.878  17.582  12.976  0.0150  0.1310 -0.3812
23273W        W38890   3.081   9.310   0.434 -0.0511  0.0355 -0.1202
23274W        W38891  14.079   0.182   2.355 -0.2544  0.2921  0.0858
23275W        W38892   8.318   8.276  12.663 -0.0183 -0.2158  0.0399
23276W        W38893   5.640   1.271   1.970 -0.0385  0.1869  0.0269
23277W        W38894  16.090  11.578  14.855  0.0263  0.0235  0.2494
23278W        W38895  12.309   6.385   5.152 -0.2919 -0.0028 -0.0992
23279W        W38896   9.281   9.733  10.946  0.2151  0.1017 -0.0390
23280W        W38897  12.253   2.679  15.693 -0.2019  0.2349 -0.1850
23281W        W38898   1.847   2.665  14.957 -0.1145  0.2429  0.2114
23282W        W38899   7.807  14.622  13.363  0.2059 -0.1980  0.0927
23283W        W38900  10.236  13.465  15.945  0.3264 -0.1433 -0.1598
23284W        W38901   9.366   9.351   2.288 -0.4584  0.0934 -0.2310
23285W        W38902  12.102   7.124  12.399  0.2106 -0.1461 -0.1324
23286W        W38903   6.710   6.213   3.866 -0.0451  0.3228  0.1551
23287W        W38904  11.935  12.932  13.649  0.0209  0.2176 -0.1352
23288W        W38905  10.886   2.497  15.297  0.1317 -0.2048  0.0041
23289W        W38906  12.654  13.481   1.527  0.2582  0.2665  0.0520
23290W        W38907  12.307   9.937   4.982  0.1859  0.0561 -0.0518
23291W        W38908  13.858  15.073   5.238  0.3337 -0.1855 -0.0481
23292W        W38909   1.802  10.307  12.962  0.1289 -0.2753  0.3024
23293W        W38910   9.603   1.252   1.532 -0.4091  0.0019  0.1636
23294W        W38911  14.726  10.274   1.365  0.1464 -0.2032  0.3711
23295W        W38912   0.914   9.201   0.095  0.1481 -0.0757  0.1469
23296W        W38913   3.803   9.154  15.138  0.1958 -0.2538  0.0201
23297W        W38914   5.916   2.483   4.099 -0.1005  0.0209 -0.1539
23298W        W38915  11.728   6.178   1.532  0.0977  0.6489 -0.0928
23299W        W38916   6.455   2.345  12.999 -0.0925  0.2106  0.1728
23300W        W38917  11.392  17.407  13.154 -0.1376 -0.2253  0.0056
23301W        W38918  16.004   4.419  11.824 -0.2631  0.0097  0.2184
23302W        W38919   5.127   3.317  13.887  0.0863 -0.1083 -0.0488
23303W        W38920   4.367   6.068   6.486 -0.1366  0.0889  0.1366
23304W        W38921  13.481   1.447   3.620 -0.0004 -0.2772 -0.0638
23305W        W38922  12.829  17.667   4.914  0.4002  0.0432 -0.0431
23306W        W38923  10.693  13.213  15.835 -0.0984  0.2621  0.0852
23307W        W38924   1.840   7.666  15.441 -0.1525  0.3718 -0.1933
23308W        W38925   1.983   8.661   1.242  0.0486 -0.1744 -0.0885
23309W        W38926  11.809   2.089  16.742  0.5190 -0.0580  0.3489
23310W        W38927   4.429   0.798  12.214 -0.1050 -0.2726 -0.1034
23311W        W38928  11.557   0.590   2.924 -0.2098  0.1995  0.2071
23312W        W38929  11.210  11.332   5.018  0.0344 -0.1703 -0.1370
23313W        W38930  13.568   3.763   5.145 -0.1260  0.0293  0.3356
23314W        W38931   6.747  10.661  12.206 -0.1887  0.2547 -0.1327
23315W        W38932   3.964  11.332   4.680  0.0037 -0.0740 -0.0397
23316W        W38933  14.495  15.336   1.254 -0.0254 -0.0799 -0.2379
23317W        W38934   6.906  10.543  13.024  0.0198  0.0659 -0.0564
23318W        W38935  14.875  14.210   4.743  0.0656 -0.2177 -0.4186
23319W        W38936   6.248  10.006   3.287  0.3036  0.2594 -0.0750
23320W        W38937   2.145  15.184   5.077  0.0298 -0.0141  0.1373
23321W        W38938   5.113   6.370   1.298 -0.1008  0.2462  0.2729
23322W        W38939   1.466  14.663   0.406 -0.2426  0.0492  0.1479
23323W        W38940  14.357  14.517   2.601 -0.0249  0.0390  0.1908
23324W        W38941   2.545   6.138   4.838 -0.2981  0.0277 -0.2340
23325W        W38942   7.895  11.632  14.898  0.2286  0.0901 -0.2117
23326W        W38943   9.642  14.546   0.150  0.4056  0.0476  0.1784
23327W        W38944  14.916   8.646  16.695 -0.3167 -0.1955  0.0596
23328W        W38945  11.632  13.075   4.885  0.1754  0.2139  0.2375
23329W        W38946   8.399  16.355  13.553 -0.0930  0.3070 -0.0883
23330W        W38947   5.298   5.292   0.229  0.0758  0.0711 -0.2395
23331W        W38948  14.528  14.408   0.311  0.1455 -0.2514 -0.2663
23332W        W38949  13.514  17.707   2.017 -0.0876 -0.0940 -0.1706
23333W        W38950   9.516  16.964   4.879  0.3145  0.2786 -0.0811
23334W        W38951  10.431  11.948  14.726 -0.1172  0.0071 -0.1531
23335W        W38952   4.482  15.445  16.516  0.0836 -0.2816  0.1854
23336W        W38953  14.874  17.105   0.713  0.1480  0.1124  0.3276
23337W        W38954   2.444   5.383  11.687  0.0281 -0.3969  0.1419
23338W        W38955  12.577   2.890   2.746 -0.4303  0.1259 -0.1902
23339W        W38956  15.537  12.187   0.010  0.0634  0.0630  0.2292
23340W        W38957   9.528   3.361  16.247 -0.0583 -0.1877 -0.2507
23341W        W38958   3.540   2.693  16.124  0.2530  0.1021  0.0234
23342W        W38959  14.220  16.617  14.325 -0.0483  0.0697 -0.0240
23343W        W38960  15.294  16.892   5.713  0.0087  0.1199 -0.1175
23344W        W38961  15.235   2.299  14.041 -0.3210  0.1536  0.2434
23345W        W38962   8.597   6.404  12.506 -0.3534  0.1925 -0.1964
23346W        W38963  16.898   2.218   2.410 -0.0911  0.0950  0.0447
23347W        W38964   8.541  10.953   0.929 -0.0092 -0.0948  0.1818
23348W        W38965   7.268   6.537  16.060 -0.0416  0.2058  0.1345
23349W        W38966   2.825   7.344   2.618 -0.1371  0.0294 -0.0111
23350W        W38967   2.049  13.334   3.288  0.0629 -0.2006 -0.1617
23351W        W38968  10.352   5.728  15.547 -0.0028 -0.0269 -0.1341
23352W        W38969   7.260   9.165  16.135  0.1787 -0.0576  0.3179
23353W        W38970   8.207   8.954   1.766 -0.1811  0.1985 -0.2315
23354W        W38971   2.017   0.815  14.934  0.0163 -0.1553 -0.1135
23355W        W38972  17.861   9.778  13.819 -0.2037 -0.0598 -0.0952
23356W        W38973   0.884   9.557   1.093  0.2094 -0.0907 -0.3031
23357W        W38974   5.807   2.772  14.970 -0.0928  0.0823 -0.2063
23358W        W38975   4.317  14.565   4.749 -0.0135 -0.3513  0.2189
23359W        W38976   5.287   6.479   4.986  0.0521 -0.1407  0.0604
23360W        W38977   6.138   0.090   1.791  0.2441 -0.0136 -0.0306
23361W        W38978   1.232   7.537   2.540 -0.3093 -0.0128  0.2408
23362W        W38979  11.267  15.159  11.448  0.0448  0.1004  0.0920
23363W        W38980  10.135   9.615   6.603  0.2789 -0.0727  0.2911
23364W        W38981  17.493   5.990   5.737  0.2397 -0.0846  0.3876
23365W        W38982  12.620   8.651   2.276  0.0948 -0.2266  0.1660
23366W        W38983   8.091   9.260  12.242  0.1177 -0.1074 -0.1101
23367W        W38984   2.758   7.526  14.984  0.2787  0.0639  0.0473
23368W        W38985  16.541  13.412   1.833 -0.0947  0.1927 -0.0120
23369W        W38986  14.808  10.143   5.574  0.2273 -0.1479 -0.3020
23370W        W38987   7.874   8.564  15.444  0.2263 -0.1071 -0.0530
23371W        W38988   4.336  10.084  13.097 -0.3130  0.1337  0.0365
23372W        W38989   0.973   3.545  15.575  0.1921 -0.0702  0.1071
23373W        W38990  11.055   6.795  13.799  0.2119 -0.2151 -0.1491
23374W        W38991  15.512   8.016   2.374  0.0448  0.0773  0.4684
23375W        W38992  16.281  17.380   1.215  0.2613 -0.1457  0.0747
23376W        W38993   1.483   8.332  14.281  0.2440 -0.1006  0.1716
23377W        W38994   7.480  12.041   1.889  0.0791  0.1323 -0.0416
23378W        W38995   8.618  10.814  14.244 -0.5051  0.4107 -0.1029
23379W        W38996  12.987  13.077   4.985 -0.3663 -0.0440  0.1057
23380W        W38997  17.120   8.009  14.572  0.4135  0.2208 -0.2664
23381W        W38998   4.057  10.122   2.843 -0.6197  0.0357  0.0920
23382W        W38999  14.131  12.830  13.545  0.1017 -0.0362 -0.1257
23383W        W39000  10.331  16.456   0.631  0.1213 -0.1931 -0.1679
23384W        W39001   3.393  10.613   2.306 -0.1102 -0.0408 -0.0524
23385W        W39002   4.689   7.174   2.659 -0.1869  0.1246 -0.0578
23386W        W39003  14.440   3.091  15.509  0.2466 -0.1639  0.0995
23387W        W39004  10.876   6.109  12.937 -0.0452 -0.0076 -0.0151
23388W        W39005  11.376   0.820  13.138 -0.1317  0.0849  0.0297
23389W        W39006   5.232  16.812   4.181  0.2492 -0.1040 -0.3641
23390W        W39007   9.062   9.092   1.887 -0.0348 -0.1422  0.1310
23391W        W39008   2.687   9.812  11.406  0.0641  0.3566  0.0317
23392W        W39009  17.216   5.681  16.530 -0.2507  0.0724  0.2772
23393W        W39010   0.379   1.643   5.732 -0.3086  0.3948  0.1379
23394W        W39011   7.159  13.133   0.116  0.1351 -0.0785 -0.0075
23395W        W39012   4.795   0.244  13.495 -0.1122 -0.0402  0.1064
23396W        W39013  12.454  17.111  12.363  0.3377 -0.0002 -0.1548
23397W        W39014   3.238  11.303   5.463  0.1124 -0.2039  0.1239
23398W        W39015   6.962   4.893  16.397  0.0224 -0.0621  0.3478
23399W        W39016  14.239   5.071  12.247  0.0772 -0.2222 -0.2391
23400W        W39017   5.607   9.478  11.956 -0.0896 -0.0607  0.1864
23401W        W39018   4.134   6.122  12.499 -0.3270 -0.1004 -0.2233
23402W        W39019  15.424  14.888  16.197 -0.1437 -0.1532 -0.0306
23403W        W39020   3.665   4.687   0.452 -0.0588  0.0150  0.0113
23404W        W39021   9.125  16.158  15.194 -0.2732 -0.1839  0.1997
23405W        W39022   3.009   6.403   1.887 -0.3304 -0.1150 -0.2183
23406W        W39023  15.421  13.621   4.116 -0.1270  0.3424 -0.2765
23407W        W39024  12.629   2.066   5.302 -0.2546 -0.0816 -0.1238
23408W        W39025   8.049  13.337  15.239  0.2659 -0.0588  0.0025
23409W        W39026  13.775   9.505  16.482  0.0642  0.1254  0.1405
23410W        W39027   7.820  11.738  15.663  0.1855  0.0004 -0.3197
23411W        W39028  14.402   1.983   0.797 -0.0147  0.1083  0.3312
23412W        W39029  16.450   0.937   1.759  0.1246  0.2591 -0.3213
23413W        W39030  13.362   5.119   0.290  0.0055 -0.1908 -0.1283
23414W        W39031   3.398  14.112  13.333 -0.0543  0.2267 -0.1742
23415W        W39032  12.258   6.498   1.640 -0.3881 -0.4978 -0.2608
23416W        W39033   5.997   8.576   1.897 -0.2408  0.1882  0.1328
23417W        W39034  11.432   4.601   0.388  0.5539 -0.1305 -0.0069
23418W        W39035   9.011   5.588  12.310  0.0703 -0.0894  0.0012
23419W        W39036   0.015  11.645   2.067  0.1234  0.4115 -0.0467
23420W        W39037   0.872   1.101   4.729 -0.0875 -0.1745  0.0701
23421W        W39038   9.374  11.780   5.525  0.2710  0.1932  0.1846
23422W        W39039   6.996   6.679   4.712  0.0842  0.3638 -0.0097
23423W        W39040  17.082   6.678   1.701 -0.0810 -0.0592  0.0194
23424W        W39041   2.651   8.173   3.805 -0.3200 -0.0121 -0.1451
23425W        W39042   2.865   3.385   4.865 -0.4038 -0.0180  0.2469
23426W        W39043   6.965  14.573  11.736  0.1175  0.2134  0.1550
23427W        W39044  17.611   7.565   5.830  0.2555  0.0835  0.2147
23428W        W39045   3.447  15.292  11.730 -0.0115  0.0959  0.0212
23429W        W39046   3.340  13.503  11.943 -0.0718  0.1081 -0.0009
23430W        W39047   1.804   3.472   5.251 -0.0985  0.0525  0.2248
23431W        W39048   0.532   2.112  12.080  0.0002 -0.0940 -0.0600
23432W        W39049   3.109  12.976   5.887  0.0697 -0.1410  0.0683
23433W        W39050  15.634   6.718  16.049  0.2857 -0.2115 -0.0913
23434W        W39051  15.714  16.081  13.613 -0.4101  0.2155  0.1153
23435W        W39052   1.702  15.175  15.484  0.0265 -0.0717  0.1377
23436W        W39053  11.826   0.187   3.753  0.0071 -0.0358  0.1269
23437W        W39054   0.949  15.722  15.598 -0.0172  0.0343 -0.0894
23438W        W39055   0.920   8.561   1.830  0.2689  0.2044  0.1864
23439W        W39056   2.094  17.798   2.398 -0.0120 -0.1489  0.0472
23440W        W39057   6.210   0.979  14.735 -0.1842 -0.0077 -0.0948
23441W        W39058   4.099   0.554  14.001  0.2348  0.1953 -0.1182
23442W        W39059   3.334   7.127   4.093 -0.1212 -0.0779 -0.2411
23443W        W39060  17.816   2.415  15.759  0.1494 -0.0726 -0.3480
23444W        W39061   9.267  13.979   4.929  0.0893 -0.1066 -0.0862
23445W        W39062   0.822  12.857  16.286 -0.0339 -0.0775 -0.3538
23446W        W39063   1.649   3.013   1.981 -0.1213 -0.1399  0.1203
23447W        W39064  16.848   9.718  13.856  0.4788 -0.2300 -0.4091
23448W        W39065   7.817   5.184  14.205  0.0620  0.0020 -0.1107
23449W        W39066  14.414   1.009   0.642 -0.0957 -0.0525 -0.0238
23450W        W39067   8.558  15.043   0.426  0.1225 -0.0797  0.0827
23451W        W39068  14.720  11.141  14.543 -0.4314  0.3452  0.0102
23452W        W39069   1.816   5.834  15.506 -0.0853  0.2603  0.0896
23453W        W39070   4.646  15.859  13.070 -0.2966  0.3724  0.2839
23454W        W39071  10.956   2.097  13.479  0.1352 -0.2518 -0.3445
23455W        W39072  14.936   8.368  14.774  0.3397 -0.1987  0.0217
23456W        W39073   3.580  15.771  14.447 -0.1077 -0.2203 -0.2571
23457W        W39074   3.616   5.655  16.645 -0.2542  0.1996 -0.4359
23458W        W39075   8.900  16.522   0.841  0.1000  0.1428  0.0256
23459W        W39076  11.755  11.907  16.454  0.2276 -0.2755 -0.1096
23460W        W39077   8.516   7.271   4.161 -0.0146  0.0031 -0.1457
23461W        W39078   4.194   8.786   4.696  0.3199 -0.0060 -0.1565
23462W        W39079  10.233   7.956   4.323  0.0803  0.1696  0.0377
23463W        W39080   0.937   5.632  12.765 -0.1139 -0.1435 -0.0356
23464W        W39081  16.879   7.005  16.767  0.1554 -0.2551  0.1128
23465W        W39082  15.302  13.338   2.533 -0.0074 -0.3161  0.0539
23466W        W39083  15.579  13.189   5.413  0.1064 -0.0183 -0.2063
23467W        W39084   6.015   1.572  15.022 -0.0937 -0.0539  0.1047
23468W        W39085   1.593   4.007  16.643  0.1436  0.3669  0.1505
23469W        W39086  15.346   3.386  12.886  0.0200  0.3285  0.1967
23470W        W39087   4.800  13.035  14.096  0.1164  0.1112  0.4484
23471W        W39088   8.298   1.453  13.023 -0.0973 -0.5355 -0.2300
23472W        W39089   5.176  16.895   1.196 -0.0605  0.1621 -0.0294
23473W        W39090   8.842   7.501  13.988  0.1273 -0.2441 -0.1485
23474W        W39091   7.861  16.247   3.346 -0.0232 -0.3214  0.0010
23475W        W39092  12.267   7.771  15.619  0.1310 -0.2976  0.2958
23476W        W39093  12.275  14.313   5.782 -0.2424 -0.1806 -0.0456
23477W        W39094  13.884   9.393   4.505  0.0768  0.1605 -0.1669
23478W        W39095   7.978  12.605  11.047 -0.2145  0.0666 -0.0962
23479W        W39096  16.507   9.046   5.670 -0.2534 -0.1142 -0.1775
23480W        W39097  10.583   2.560   3.086 -0.1097  0.1946 -0.0361
23481W        W39098  15.503  11.808  16.569  0.1311  0.2832 -0.1109
23482W        W39099   1.608   9.755  16.482 -0.0742  0.2317  0.1137
23483W        W39100   9.380   0.709   4.976 -0.1104  0.0631 -0.0220
23484W        W39101   4.080   0.392   1.419 -0.5397  0.0983  0.3712
23485W        W39102  11.210  14.129  15.158  0.1508  0.2502  0.0726
23486W        W39103   5.379  15.691   5.098 -0.2448  0.3249 -0.0759
23487W        W39104   7.532   2.315   6.046  0.1833 -0.0585 -0.2263
23488W        W39105  12.978   1.003   2.799  0.1668  0.1853 -0.2960
23489W        W39106   1.805   4.373   2.706 -0.0475  0.0256  0.0891
23490W        W39107   2.940  11.340   2.394 -0.2040 -0.0575  0.1422
23491W        W39108   9.168   9.539  12.822 -0.0338  0.1520 -0.2405
23492W        W39109  15.565   4.134   3.107 -0.0587 -0.1174  0.2263
23493W        W39110  14.453  13.028  12.737  0.1586 -0.0742 -0.1815
23494W        W39111  15.025   9.199   0.398  0.0247  0.2213 -0.1286
23495W        W39112   4.021  15.946   3.975  0.0167 -0.0568  0.1140
23496W        W39113   3.872   3.899  14.162 -0.1716 -0.0073  0.2603
23497W        W39114   4.905   2.233   6.617 -0.2203 -0.2070 -0.0750
23498W        W39115  13.331   9.894  15.105  0.1460  0.2826  0.0594
23499W        W39116  12.971  11.160   2.052 -0.0066 -0.1216  0.3737
23500W        W39117   8.194  16.662  15.657  0.2974  0.2519  0.1634
23501W        W39118   5.074   8.347   1.465  0.1818  0.1146  0.1550
23502W        W39119   2.033  11.910   1.138  0.0285 -0.0319 -0.0022
23503W        W39120  10.578   4.845   0.267  0.0421 -0.1721 -0.3040
23504W        W39121  11.449  16.296   0.517 -0.1473  0.6492  0.1671
23505W        W39122  14.889  16.414   1.934  0.1923 -0.1405 -0.2671
23506W        W39123   8.988  14.387   1.551  0.1252  0.2720  0.0354
23507W        W39124  11.008   9.784   5.384 -0.0682  0.0049  0.1182
23508W        W39125   8.863   0.627   4.885 -0.0686  0.0975  0.0393
23509W        W39126  12.786   6.402  14.045 -0.1492 -0.1699 -0.4644
23510W        W39127   4.860   9.556   4.555  0.2689  0.1537 -0.0464
23511W        W39128   2.101   1.874  14.883 -0.4098  0.0297 -0.0782
23512W        W39129  17.286   5.290   4.177 -0.1547  0.1343 -0.0682
23513W        W39130  15.289   1.476   2.944 -0.2004 -0.1928  0.3320
23514W        W39131  17.436  16.513  11.954  0.0085  0.2142 -0.1975
23515W        W39132   5.249  15.939  13.839 -0.1118  0.0550 -0.0263
23516W        W39133  16.643  16.065   5.649 -0.0603  0.1341 -0.0429
23517W        W39134  12.795  13.425  11.858 -0.0150  0.1625  0.1746
23518W        W39135  12.914   8.048  12.980 -0.0177  0.1223  0.0776
23519W        W39136  15.451  13.712  11.486  0.0258 -0.2207  0.1280
23520W        W39137   2.783   0.989  11.536 -0.1022 -0.1650  0.0088
23521W        W39138   5.437  12.769   3.338  0.1561  0.2118  0.1677
23522W        W39139  15.560  14.498  14.712 -0.1411 -0.0023 -0.0341
23523W        W39140  16.686   9.206   3.182 -0.0583  0.3456  0.0495
23524W        W39141  11.080   6.563   3.150 -0.1030 -0.1180  0.3014
23525W        W39142   3.011  11.917   2.759 -0.0751 -0.0647  0.3112
23526W        W39143  12.633   7.246  12.148 -0.0460 -0.1058 -0.2303
23527W        W39144   1.826  11.595  14.085  0.1782 -0.1610 -0.1667
23528W        W39145   0.270   1.645   3.473  0.1575  0.2527 -0.2959
23529W        W39146   9.609  10.984   0.525 -0.1745 -0.1451 -0.2156
23530W        W39147   9.412  12.383  13.445 -0.0893 -0.2198 -0.1360
23531W        W39148   6.522  15.441  12.370 -0.0436  0.0871  0.0371
23532W        W39149  13.809  13.493   5.158  0.1620 -0.0522 -0.0583
23533W        W39150   6.501  11.975  13.253 -0.0045 -0.0609  0.1759
23534W        W39151   2.848  15.754   3.033  0.3821  0.0878  0.1039
23535W        W39152   6.954   6.997   4.061 -0.4037 -0.1086 -0.4290
23536W        W39153  16.561  12.068   4.212 -0.1414 -0.2226 -0.0161
23537W        W39154   9.637  16.251   6.273 -0.0459  0.0749 -0.1960
23538W        W39155   7.799  13.465   3.556 -0.0566  0.2051 -0.2244
23539W        W39156   4.496  17.704   4.062  0.0597 -0.3317  0.1206
23540W        W39157   4.617   8.899  12.701  0.2810 -0.0139 -0.2124
23541W        W39158   1.405  16.516  15.809 -0.0489 -0.0230 -0.3320
23542W        W39159   2.516  12.880  15.823 -0.1040 -0.0659 -0.0968
23543W        W39160   2.949   2.323  13.305  0.1849 -0.1163 -0.2397
23544W        W39161   6.643   3.480   4.876 -0.1438  0.0076 -0.4179
23545W        W39162   6.537   6.981   4.400 -0.1262  0.1758  0.1216
23546W        W39163   5.739   2.179   1.285 -0.2759  0.3195 -0.1120
23547W        W39164  14.255   6.365  11.973  0.2476 -0.1202 -0.0958
23548W        W39165  12.570  11.059  12.171  0.1024  0.1284  0.3463
23549W        W39166  13.973   3.990  15.791 -0.1795  0.2544  0.0816
23550W        W39167   4.492  17.791  12.311  0.4574  0.1232  0.1900
23551W        W39168  16.318  11.280  16.199 -0.4034 -0.1827  0.0693
23552W        W39169  10.820  13.212   5.424 -0.2994  0.2161  0.3586
23553W        W39170   6.117  11.932   3.717  0.2083  0.0388 -0.3149
23554W        W39171   7.102  14.789  13.367 -0.2810 -0.1643  0.0789
23555W        W39172   3.638   6.356   3.048  0.1051  0.1801  0.2209
23556W        W39173   8.048  15.591   3.490  0.1592  0.3191  0.1828
23557W        W39174   2.236   9.159  12.302  0.0833  0.1899 -0.0004
23558W        W39175  17.440  12.791   1.222  0.1277 -0.1778  0.2276
23559W        W39176  11.238   5.051   6.726 -0.1153 -0.0934  0.0379
23560W        W39177   3.438   6.880  16.004 -0.2656 -0.2043 -0.1279
23561W        W39178   3.140   6.272   4.763  0.0987  0.0451  0.1295
23562W        W39179  16.994  12.224  14.944 -0.3328 -0.1785  0.2846
23563W        W39180  14.412  12.385   1.087  0.0982 -0.0921  0.1848
23564W        W39181   3.331   5.795   1.722  0.4293  0.2175  0.1442
23565W        W39182  10.791  13.410   4.960 -0.1678 -0.1371 -0.0500
23566W        W39183   6.227  15.846   3.640 -0.1172  0.0427  0.1566
23567W        W39184   7.583   5.703   0.805 -0.4090  0.0975  0.2008
23568W        W39185   9.725  14.919   0.996  0.0998  0.0863  0.0635
23569W        W39186   4.981   8.434  15.051 -0.0176  0.1346 -0.0362
23570W        W39187   1.813  10.237  12.471  0.0067 -0.0455 -0.2180
23571W        W39188   6.351   6.045   0.203  0.2512  0.0034 -0.0444
23572W        W39189  11.927   9.528   1.083  0.1159  0.2233 -0.1445
23573W        W39190  11.232   7.552  16.090  0.3447 -0.1506 -0.0492
23574W        W39191  13.698  12.977   2.547  0.2289  0.3060 -0.1146
23575W        W39192   1.425   4.363  15.491 -0.4409 -0.1293  0.2823
23576W        W39193  17.623   4.818   3.902 -0.0949 -0.0427 -0.0963
23577W        W39194   0.638   6.011   1.314  0.0474  0.0133  0.0856
23578W        W39195  13.716  16.682   1.291 -0.2363  0.0438  0.0107
23579W        W39196  10.994   6.365  15.612 -0.1344  0.0557  0.2150
23580W        W39197   2.908   5.083  14.263 -0.1975  0.0870 -0.0440
23581W        W39198   3.390  15.715   0.684  0.1627 -0.0965 -0.3960
23582W        W39199  10.121   6.020   6.525 -0.0021 -0.0276 -0.1028
23583W        W39200   2.973  17.140  15.457  0.1423  0.2565 -0.1721
23584W        W39201  11.299  16.139  10.979  0.4658 -0.1491  0.1669
23585W        W39202   5.074   8.808  16.580  0.0010 -0.1809 -0.0981
23586W        W39203  13.067   4.940   0.696  0.0525  0.1567 -0.1003
23587W        W39204  13.836  15.684  10.888 -0.1391 -0.1436 -0.1263
23588W        W39205   7.603   7.685   4.381  0.2795  0.0236  0.0607
23589W        W39206   3.063   1.537  11.463 -0.1639  0.1722 -0.0045
23590W        W39207  13.798   5.357   2.655  0.3259 -0.0347 -0.0215
23591W        W39208   4.014   6.749  14.061 -0.1481 -0.1965 -0.0069
23592W        W39209  13.946   4.418   3.972  0.0300  0.1387  0.0942
23593W        W39210  10.372  16.961   4.150  0.0756  0.0584  0.1119
23594W        W39211  15.004   7.641  15.275  0.0661  0.2084 -0.1876
23595W        W39212  11.939  16.505  16.609  0.3344  0.0013 -0.1695
23596W        W39213  12.158   0.099   0.125 -0.0022 -0.3224 -0.0444
23597W        W39214   5.251   8.834  14.937  0.1153  0.1667 -0.0060
23598W        W39215  13.674  15.439  14.479 -0.0170 -0.0739  0.1447
23599W        W39216   9.298   7.724   4.258 -0.0133  0.0490 -0.1998
23600W        W39217  13.422   1.425  13.718  0.1002  0.1917 -0.2745
23601W        W39218   6.255   9.642   4.819 -0.0065  0.4511  0.1793
23602W        W39219   1.198  12.923  14.832 -0.1541  0.1735  0.1815
23603W        W39220   1.903   6.032  12.605  0.0112 -0.0298  0.1480
23604W        W39221   7.919   3.050   1.507 -0.0937 -0.1514  0.1519
23605W        W39222   5.216  10.367   4.000 -0.0861 -0.1250 -0.0256
23606W        W39223   2.388   2.066   3.457 -0.0384  0.1104 -0.3890
23607W        W39224   6.487   9.080  11.600  0.4011  0.1588  0.0006
23608W        W39225  15.027   2.111   5.360 -0.2388 -0.2742 -0.0583
23609W        W39226  10.116   6.772   4.831  0.0921 -0.0310 -0.3330
23610W        W39227  14.926  13.453  11.520  0.0517 -0.1699  0.0549
23611W        W39228   1.353   7.267  12.671 -0.1983 -0.0996 -0.1131
23612W        W39229   1.555   0.687   0.724 -0.1346 -0.2132  0.1648
23613W        W39230  10.683  16.833  12.881  0.0838  0.0809 -0.0904
23614W        W39231   7.308  15.472   4.936  0.0504 -0.1775  0.0901
23615W        W39232   5.672  11.644   2.234 -0.1454  0.0794  0.0948
23616W        W39233  12.154   0.825   2.905 -0.1876 -0.1829 -0.1947
23617W        W39234   7.860  17.216  13.955  0.1546  0.0860  0.1118
23618W        W39235  16.567   1.912   1.595 -0.0246 -0.0385 -0.0248
23619W        W39236   2.747  10.129   3.867  0.0095  0.3002  0.2014
23620W        W39237  11.192   0.651   1.963 -0.3770  0.0462 -0.1454
23621W        W39238  13.456  17.026  11.959  0.0431 -0.1486 -0.0827
23622W        W39239   0.225  15.723   0.530 -0.0102 -0.0619 -0.1691
23623W        W39240   4.598   3.692  14.518  0.1340  0.1542  0.2665
23624W        W39241  14.676  14.784   0.007 -0.1180 -0.2463 -0.1184
23625W        W39242   2.424  15.444   1.416  0.2450  0.0153 -0.1219
23626W        W39243  16.767  17.114  13.067 -0.3021  0.0058  0.0762
23627W        W39244   0.342   6.564  15.389 -0.0817 -0.0889 -0.1960
23628W        W39245   5.978   2.530  14.365 -0.0790 -0.4729  0.0093
23629W        W39246   4.675   7.557  14.823  0.0112  0.3587  0.3806
23630W        W39247   3.060   5.690  15.437 -0.2364 -0.2167  0.1537
23631W        W39248   5.060   0.568  15.425 -0.4107  0.1179 -0.1257
23632W        W39249   7.908  12.288  12.201  0.2141  0.0057  0.0356
23633W        W39250   0.885   8.839   5.344  0.0595  0.2961 -0.2956
23634W        W39251   2.981   0.478   3.551  0.1584 -0.1240  0.1225
23635W        W39252   0.281   3.553   1.670 -0.0155  0.2151  0.2072
23636W        W39253   2.811   8.476   4.590  0.0985 -0.3350  0.1783
23637W        W39254  11.557   7.682  16.440 -0.0172 -0.1024  0.0826
23638W        W39255   2.377   9.026  12.774  0.3212  0.1069 -0.2915
23639W        W39256   6.016  13.245  16.202 -0.2336 -0.3349  0.3958
23640W        W39257  15.134   0.076   0.797 -0.2156 -0.2739 -0.2113
23641W        W39258   6.751   4.745   1.460 -0.0837  0.1418  0.0809
23642W        W39259   9.425   5.571   5.561  0.0725  0.1898 -0.0862
23643W        W39260   9.681  13.093   6.001  0.3706 -0.0506  0.2277
23644W        W39261  13.406   9.263   4.364 -0.0267  0.3601 -0.1561
23645W        W39262  17.599   1.136  15.947 -0.0688 -0.1097 -0.3134
23646W        W39263   4.424   9.998   4.916  0.0999 -0.3346 -0.0780
23647W        W39264   0.336  11.330  16.800 -0.1131 -0.3735 -0.1059
23648W        W39265   7.673   2.628   3.730 -0.0792 -0.2576  0.0650
23649W        W39266   6.467  12.732   3.776  0.1205 -0.1507 -0.2362
23650W        W39267  10.333  11.439  11.260 -0.1519 -0.2773  0.0491
23651W        W39268   5.976   8.868   4.702  0.0515  0.1831  0.1207
23652W        W39269   3.844  16.014   5.505 -0.3944 -0.1477  0.1751
23653W        W39270   1.048   6.877   4.485 -0.1595  0.1398 -0.2569
23654W        W39271  17.824  15.773  15.773 -0.1441  0.0246  0.0812
23655W        W39272   7.795   8.171   5.348  0.0712  0.0125  0.0608
23656W        W39273   8.367  10.122   3.212 -0.1153 -0.0056 -0.0251
23657W        W39274   0.440   2.906  14.345  0.1671 -0.0465  0.0247
23658W        W39275  13.423  17.056   3.254  0.0757 -0.0115 -0.0100
23659W        W39276   2.779  10.591  15.418 -0.1294  0.0464  0.0381
23660W        W39277  10.521  13.055   2.060 -0.0398 -0.4289  0.0833
23661W        W39278  14.696  13.483   1.803 -0.2806  0.0326  0.2660
23662W        W39279  15.664   8.060  14.619 -0.1481  0.1561  0.1749
23663W        W39280  16.986   7.202  14.695  0.0205  0.0509 -0.1217
23664W        W39281   4.848   3.835  15.792  0.1795 -0.0806  0.0897
23665W        W39282  15.339  11.130  12.444  0.0170  0.0564 -0.0905
23666W        W39283   9.581  17.342  15.402  0.1471  0.2210  0.1560
23667W        W39284  11.791  13.316  13.283  0.0744  0.0985  0.1968
23668W        W39285   6.724   7.092  16.599 -0.2176  0.2065 -0.0266
23669W        W39286   4.402   7.608  12.232  0.1977  0.3826  0.1630
23670W        W39287   3.603   7.879  12.189 -0.2033 -0.1164 -0.3467
23671W        W39288  16.199   1.049  14.488 -0.1141 -0.0935  0.1325
23672W        W39289  13.574   0.437   4.461 -0.1323  0.1917  0.2572
23673W        W39290  16.517  15.688   0.538 -0.0618 -0.0117  0.1297
23674W        W39291   4.580  17.298  13.325  0.0627 -0.0800 -0.0508
23675W        W39292   2.524  10.236   2.535 -0.2385 -0.0609 -0.1686
23676W        W39293  10.267   5.299   5.174  0.0264 -0.0047  0.0042
23677W        W39294   0.446  12.879   4.237  0.1026  0.0963  0.2143
23678W        W39295  17.193  12.710   3.084  0.2004 -0.5026  0.0229
23679W        W39296   5.970  11.043  13.247  0.1002 -0.1070  0.1986
23680W        W39297   9.610   4.086  16.783 -0.1885  0.0597 -0.0777
23681W        W39298  13.538   3.899  14.985 -0.0943 -0.2887  0.0427
23682W        W39299   0.529   4.449  16.043 -0.4037 -0.0259  0.0262
23683W        W39300   2.102   2.732  12.579 -0.2661 -0.1996  0.0109
23684W        W39301   1.063   6.142   0.562  0.0549 -0.0452 -0.0926
23685W        W39302   5.719   0.372  13.653  0.1776  0.1723  0.0051
23686W        W39303  15.510  13.556  16.656  0.5607  0.1302  0.1827
23687W        W39304   9.087   2.610  11.952 -0.4865  0.2374  0.0097
23688W        W39305  10.390   3.568  16.624  0.1484  0.1671 -0.0148
23689W        W39306   5.271  13.736   0.734 -0.1590  0.0473 -0.0255
23690W        W39307  12.581  12.306  15.284  0.3445  0.2307 -0.2508
23691W        W39308   5.739   9.399  12.895  0.1352  0.0319  0.2461
23692W        W39309  15.693   0.106   5.070  0.0039  0.0951 -0.4933
23693W        W39310  16.008   8.272  11.889  0.0404  0.0083 -0.0778
23694W        W39311   2.751   8.497   3.405  0.0275 -0.0839 -0.0401
23695W        W39312  17.375   4.396  11.336 -0.0054  0.3198  0.1110
23696W        W39313   1.717   0.298  13.296  0.3254  0.3013  0.1866
23697W        W39314   6.243   6.294   6.525  0.0390  0.0655  0.5297
23698W        W39315   7.091   5.975   2.602 -0.0060  0.1191 -0.3058
23699W        W39316   3.841   4.319   4.591  0.1871  0.0265  0.2510
23700W        W39317  13.393   2.224  16.548 -0.0130 -0.3176  0.1220
23701W        W39318  15.047  12.754   3.737 -0.1706 -0.0215 -0.3108
23702W        W39319   2.603  17.007   0.717 -0.1989 -0.3008 -0.3657
23703W        W39320   4.608  17.154  11.258 -0.1465  0.0666  0.2617
23704W        W39321   6.297  14.572  16.235 -0.4136 -0.2239 -0.1894
23705W        W39322  15.993   1.809  14.416 -0.0942 -0.0261  0.0881
23706W        W39323   3.717   4.753  11.531  0.0702 -0.0757  0.2462
23707W        W39324   9.910   6.251   3.780 -0.2557 -0.2620  0.0634
23708W        W39325  14.833   1.512   5.477  0.0548  0.2017  0.4025
23709W        W39326   6.572  14.714  13.154  0.1738 -0.0711 -0.3690
23710W        W39327  14.042  13.088   2.133 -0.2831  0.1331 -0.0939
23711W        W39328  13.324  13.816  12.095 -0.1916  0.0755 -0.1106
23712W        W39329  10.013  13.624   5.228  0.0560 -0.0699 -0.0056
23713W        W39330   0.578   4.667   2.393  0.1277 -0.2023  0.2090
23714W        W39331  14.308   2.337   2.065  0.1014  0.0641  0.2360
23715W        W39332   1.985  15.658  16.163  0.0598  0.3123 -0.0902
23716W        W39333   7.039   2.227  14.664 -0.1210  0.0211  0.1021
23717W        W39334  14.557  16.057  12.372 -0.1226 -0.3863  0.2252
23718W        W39335   5.769   1.099  14.918 -0.1345 -0.0370 -0.1244
23719W        W39336  12.143   9.571  10.721 -0.0475  0.0628  0.1213
23720W        W39337  14.832  12.538   5.037  0.0042  0.0393  0.1643
23721W        W39338   3.432   1.658  15.344 -0.3360  0.2146 -0.0438
23722W        W39339  13.572  15.816   4.156  0.2482 -0.0077  0.2639
23723W        W39340   4.174  16.118   2.338 -0.1573  0.1913 -0.2427
23724W        W39341  10.338   2.488  15.400  0.0398 -0.0206  0.1225
23725W        W39342  16.137  15.455   2.576 -0.1138  0.1686  0.1300
23726W        W39343   5.071  14.238  12.699  0.1179 -0.0120 -0.1900
23727W        W39344  17.092  15.757  16.813 -0.1334 -0.1038  0.0853
23728W        W39345  11.840  12.909   0.118  0.2301  0.0349 -0.1401
23729W        W39346  13.675   9.026  13.513  0.0628  0.0372  0.1092
23730W        W39347   0.979   5.968  14.428 -0.0710 -0.0844 -0.0231
23731W        W39348   5.827  15.059   3.368 -0.1826 -0.0164  0.0344
23732W        W39349   9.483   1.791  11.536  0.1307 -0.1841  0.0215
23733W        W39350   0.911  11.011  12.086  0.1970  0.3320  0.3347
23734W        W39351   5.603   5.395  12.503 -0.2661  0.3014  0.0293
23735W        W39352   3.703  11.896  12.400  0.1996  0.2695 -0.3215
23736W        W39353   4.732   7.756  11.905  0.0199 -0.0705  0.1397
23737W        W39354   6.849  16.862  13.880 -0.0422  0.0691  0.0352
23738W        W39355   0.147  15.101   2.893 -0.0965 -0.2423 -0.3198
23739W        W39356   8.775   1.733   3.002  0.0241  0.0028 -0.0522
23740W        W39357  13.959  16.086  13.404 -0.0664 -0.0085  0.0912
23741W        W39358   3.815   1.817  16.449 -0.1188  0.2547  0.2702
23742W        W39359  16.187   8.728   0.778 -0.1321 -0.0076 -0.0773
23743W        W39360  10.990   9.375   2.937 -0.3493  0.0785  0.4104
23744W        W39361   4.712  11.222  13.809 -0.3772  0.1522  0.2189
23745W        W39362  11.721  10.066   5.086  0.3845  0.2223  0.1268
23746W        W39363   1.774   8.796  15.453  0.1250 -0.0229 -0.1008
23747W        W39364   1.376   1.772  11.693 -0.1276  0.0254 -0.1481
23748W        W39365   2.426   2.272   2.442 -0.1281 -0.2691 -0.2223
23749W        W39366   1.399  14.295   0.813  0.1159  0.0059  0.1227
23750W        W39367   4.344   2.622  14.782 -0.1657  0.3659  0.0401
23751W        W39368   1.824  15.604  15.248 -0.0342 -0.1836  0.1863
23752W        W39369   7.662  11.750  12.878 -0.1127 -0.0930  0.3138
23753W        W39370   7.084   7.368  16.251  0.2461  0.2523 -0.1203
23754W        W39371   5.742   5.670   3.437  0.0826 -0.3857  0.2094
23755W        W39372   8.322  11.201  15.693 -0.4094 -0.0394  0.1633
23756W        W39373   9.344   4.567   1.661  0.0682 -0.0221  0.1638
23757W        W39374  15.397  16.574   5.350  0.0817  0.0532  0.1631
23758W        W39375   1.827   9.088   2.190 -0.3118  0.2805  0.3009
23759W        W39376   8.986   5.390  14.811  0.3120 -0.1250 -0.2278
23760W        W39377   3.267  14.398  11.681 -0.0298 -0.1472 -0.0826
23761W        W39378   0.450   0.927   3.428 -0.0422 -0.2518  0.1737
23762W        W39379   9.423   4.051  14.706 -0.1333 -0.2320 -0.4974
23763W        W39380   8.521   5.402   1.104 -0.0094  0.2728  0.0647
23764W        W39381   2.857  11.265  12.353 -0.0045 -0.1601  0.1153
23765W        W39382  13.560   4.990  14.465  0.1891 -0.0438 -0.0622
23766W        W39383   9.027   8.780  16.389 -0.3695  0.0944 -0.1849
23767W        W39384   6.544   5.386  12.192 -0.1177 -0.1471 -0.0725
23768W        W39385   0.144   7.140  15.738 -0.1849  0.0890  0.0356
23769W        W39386   6.349   9.184   4.863 -0.0023 -0.2504 -0.0869
23770W        W39387  17.452  16.942  15.321 -0.1686  0.0160 -0.0664
23771W        W39388   1.208  10.654   5.010  0.0109  0.2891  0.0712
23772W        W39389  15.077   0.792   1.780 -0.2828 -0.1248  0.1524
23773W        W39390   2.695  17.152   6.435  0.1277 -0.0474  0.0513
23774W        W39391   2.623  12.440  16.071  0.3030 -0.0693  0.4164
23775W        W39392   5.069   5.290   5.801 -0.0624 -0.1142  0.1554
23776W        W39393  14.021  11.932  16.198 -0.1032 -0.2617  0.0875
23777W        W39394  13.090  10.596  12.801  0.0849  0.1783  0.1194
23778W        W39395  11.692  15.220  15.976 -0.1084  0.1342  0.2933
23779W        W39396  10.743   0.805  15.542  0.0464 -0.4297 -0.2625
23780W        W39397   4.043   3.699  13.136  0.1003 -0.1256 -0.3003
23781W        W39398  16.188  12.647  15.902 -0.0326 -0.0295  0.1833
23782W        W39399  13.013  16.195  11.286  0.2146  0.0187 -0.0261
23783W        W39400  17.338   9.628  14.047  0.0239 -0.0816 -0.0678
23784W        W39401  16.947   6.844   5.229 -0.2113  0.0892 -0.2352
23785W        W39402   7.960   4.429  13.563  0.1087  0.1231  0.0632
23786W        W39403   7.335  17.670   5.681  0.0008  0.1239  0.4212
23787W        W39404  13.242  13.750  16.612  0.4662  0.0475 -0.1425
23788W        W39405   4.329  17.380  12.603 -0.0076 -0.2036 -0.0335
23789W        W39406   5.192  11.259   2.948 -0.0113 -0.0925 -0.0279
23790W        W39407  16.958  11.133  14.161 -0.0698  0.1837  0.1479
23791W        W39408   2.509  14.280   2.572 -0.1367  0.3721 -0.0126
23792W        W39409  16.345   9.286   0.100  0.0859  0.2033 -0.0558
23793W        W39410   6.399  17.173  15.719 -0.0179 -0.0496  0.0131
23794W        W39411   5.592  11.776   1.500  0.1215 -0.1860 -0.4540
23795W        W39412   0.568  15.606  14.251  0.2682 -0.1578  0.0786
23796W        W39413  13.559  10.525   0.207  0.1057 -0.0159 -0.1081
23797W        W39414   7.020  16.333  14.411  0.1046  0.1039  0.0133
23798W        W39415  11.919  12.645   1.739 -0.1826  0.2054 -0.2024
23799W        W39416   1.263  11.733   4.374  0.1480 -0.0913 -0.1364
23800W        W39417   0.748  13.161   2.669 -0.3512 -0.1758  0.0979
23801W        W39418  17.240  17.056  13.976 -0.3107 -0.0608 -0.0189
23802W        W39419   3.267   7.071   2.755 -0.0033  0.0625 -0.3303
23803W        W39420   2.629  15.905   1.334  0.0638 -0.0474  0.1026
23804W        W39421   6.539   6.584  16.098  0.2227  0.0098  0.1106
23805W        W39422   8.600  12.388   3.249  0.1282  0.0495 -0.0479
23806W        W39423  15.333   4.013  14.910  0.0282 -0.1268 -0.4137
23807W        W39424   9.957   5.130   1.113 -0.2096  0.0469  0.0578
23808W        W39425   9.834  16.968  13.448 -0.0676 -0.1979  0.0224
23809W        W39426   0.411   2.395   2.141  0.1740  0.3905  0.1244
23810W        W39427  10.302   1.421  16.060 -0.1707  0.3732  0.2336
23811W        W39428  15.044  11.240  14.125  0.1364  0.4904 -0.0483
23812W        W39429   5.794  13.205  16.669 -0.1778  0.1628  0.0243
23813W        W39430  11.891   8.270   5.128  0.1247  0.1571 -0.0241
23814W        W39431  11.990  14.744   2.343  0.0514 -0.2645 -0.1282
23815W        W39432  10.842   3.297  14.503  0.0828 -0.2431 -0.1146
23816W        W39433  17.676   1.882  16.115 -0.0109 -0.2049 -0.0314
23817W        W39434   4.160  15.113   0.137 -0.2377 -0.3982  0.0035
23818W        W39435   4.603   3.099   5.066 -0.0608  0.1007 -0.1335
23819W        W39436   9.176  13.855   5.488 -0.1319 -0.1362  0.1337
23820W        W39437   8.673  17.690   0.433 -0.1768 -0.1460 -0.1695
23821W        W39438  13.477   5.435   3.023  0.1404  0.0964  0.2393
23822W        W39439  17.596  15.427  12.479 -0.1103 -0.0944 -0.0712
23823W        W39440  11.137   7.289   0.291  0.1045  0.2963 -0.1638
23824W        W39441   9.423  17.119   0.501 -0.1771  0.1630  0.0929
23825W        W39442  10.262   0.464   4.811  0.1559  0.1098 -0.0952
23826W        W39443  10.026   4.714  11.996  0.2069  0.0713  0.0271
23827W        W39444   5.797   0.734   3.794 -0.1070  0.1572 -0.1120
23828W        W39445  13.171  17.521  16.141 -0.0463  0.4116 -0.2748
23829W        W39446  15.338   6.745  14.801  0.2362  0.0095  0.2871
23830W        W39447  10.279  11.811  13.712 -0.0008  0.0923 -0.0412
23831W        W39448   7.446   6.448   4.606 -0.0020 -0.0908 -0.0204
23832W        W39449   4.592   4.542  14.146  0.1576  0.0696 -0.0226
23833W        W39450  17.527  15.305  13.656  0.0825  0.0884  0.1533
23834W        W39451  13.144  15.972   3.869 -0.0462 -0.0538 -0.2210
23835W        W39452   3.662  16.025  14.966  0.1534  0.0075  0.0549
23836W        W39453  14.776   4.445  11.997  0.1726  0.1168  0.0994
23837W        W39454  13.204   2.753  14.062 -0.0324 -0.1318 -0.1940
23838W        W39455   4.172  12.153  14.622 -0.0743 -0.1121 -0.0868
23839W        W39456  12.209  12.040  12.557 -0.3802 -0.0419  0.1060
23840W        W39457   2.547  13.599   4.610  0.0342 -0.0949  0.2616
23841W        W39458   1.851   2.470  11.295 -0.1085 -0.0880  0.0543
23842W        W39459   2.931   8.801   3.042 -0.0806 -0.2308 -0.0589
23843W        W39460   8.446   1.035   0.015  0.0775  0.0691 -0.1743
23844W        W39461   2.009   7.723  12.935  0.4229 -0.0072 -0.1181
23845W        W39462   2.262  17.219   4.596 -0.1333  0.1366 -0.0929
23846W        W39463  12.111   3.762   4.594  0.0782  0.0493 -0.0508
23847W        W39464   2.304  14.447  15.591 -0.1232  0.1381 -0.1343
23848W        W39465  10.631  16.103   0.408 -0.1219 -0.2772 -0.1388
23849W        W39466  12.989  10.578  15.232 -0.1458 -0.1559  0.1147
23850W        W39467  15.134  13.546  13.594 -0.1133  0.0682  0.1470
23851W        W39468  15.191   4.113  12.234  0.3336 -0.0784  0.3648
23852W        W39469   9.728   6.280  16.543  0.1772  0.2617  0.0512
23853W        W39470   5.594   6.475  15.884  0.3171  0.1210 -0.0527
23854W        W39471  16.914   4.803  13.224  0.1888  0.2390 -0.1928
23855W        W39472   2.376  14.555  13.315  0.2303  0.0955  0.0860
23856W        W39473   0.612  10.902  14.216 -0.1125 -0.2528 -0.2691
23857W        W39474   9.080  16.342   2.557 -0.0118 -0.1043  0.1746
23858W        W39475   2.693   7.946  12.771  0.3069 -0.2551 -0.1952
23859W        W39476  11.801   2.687  12.166 -0.1458  0.3611 -0.0790
23860W        W39477  13.905   8.838   3.149  0.1080  0.1095 -0.0069
23861W        W39478   1.258   3.709  12.321 -0.1138 -0.3150  0.0741
23862W        W39479   2.175  11.746  16.441  0.0011  0.1963  0.2510
23863W        W39480  12.553  12.864   5.248  0.0664 -0.0244 -0.2280
23864W        W39481   4.942  15.842   1.180  0.0891  0.1034 -0.1616
23865W        W39482  13.666   3.915   2.792  0.0899  0.0079 -0.1585
23866W        W39483   8.465  13.222  13.003  0.2100 -0.2177 -0.2287
23867W        W39484   0.962   7.270  13.789 -0.0807  0.1098 -0.2026
23868W        W39485   5.590   2.421   2.664  0.0862  0.1533 -0.1949
23869W        W39486   8.286   1.533  14.421 -0.1560 -0.2020 -0.2055
23870W        W39487   5.487   9.480   6.068  0.2747 -0.2566  0.0878
23871W        W39488   3.845   5.938   1.840 -0.1986  0.0151 -0.1436
23872W        W39489   2.037   1.649  15.746  0.1595 -0.3635  0.0606
23873W        W39490   5.206  11.579  11.895 -0.0107 -0.0900 -0.0208
23874W        W39491  15.385   5.394  15.210 -0.0308 -0.3732  0.0063
23875W        W39492  10.317  11.530   1.816  0.2514  0.0429  0.1262
23876W        W39493  17.842  15.824   5.731  0.1917  0.0024  0.5182
23877W        W39494  12.581   2.941  14.550 -0.1008 -0.2152  0.1971
23878W        W39495   0.066   6.292   2.804  0.2077 -0.0694 -0.0028
23879W        W39496   7.916   3.077   2.077 -0.0014 -0.1606 -0.2201
23880W        W39497   3.667   6.963  15.545  0.1487 -0.2641  0.1627
23881W        W39498   9.358   1.847  13.495  0.0551  0.0472  0.2001
23882W        W39499   0.031   5.902   2.536 -0.1613  0.1929  0.0548
23883W        W39500   5.186  14.160  11.474 -0.2169  0.1242 -0.2393
23884W        W39501  10.147   3.401   1.553 -0.1050  0.0715 -0.2830
23885W        W39502  15.972   2.671   1.378 -0.1257  0.1733  0.1180
23886W        W39503   9.110   5.602   6.103  0.0793  0.0816  0.1425
23887W        W39504  17.375   0.870   1.777  0.0732 -0.0182 -0.2024
23888W        W39505   1.995   9.858  15.248  0.1019  0.1498  0.0586
23889W        W39506   2.900  17.058   1.118 -0.0645 -0.1324  0.0774
23890W        W39507   4.424   3.187   0.804 -0.1510 -0.0433  0.0959
23891W        W39508   9.101   2.619   6.371  0.2442 -0.0580 -0.0309
23892W        W39509   4.221  16.318   4.289 -0.0710 -0.0370 -0.0405
23893W        W39510   0.879  12.903   3.111  0.0021  0.1162 -0.2093
23894W        W39511   1.608   5.090   1.104 -0.1756  0.0136 -0.0883
23895W        W39512   9.865   5.321  12.466 -0.0867 -0.2561 -0.3318
23896W        W39513   3.812  11.327   2.490  0.2316  0.0050 -0.2772
23897W        W39514   9.471   4.311  11.424 -0.0703  0.6189  0.1177
23898W        W39515  12.321   8.476   5.151  0.1430 -0.0881 -0.0092
23899W        W39516  11.198   6.581   4.198  0.1314 -0.1581  0.3784
23900W        W39517   1.693   6.376   0.774  0.3588 -0.0803 -0.0923
23901W        W39518   2.584   8.351  16.360  0.0285  0.0086 -0.1256
23902W        W39519  14.312  11.756  12.163 -0.2214  0.3044  0.0243
23903W        W39520   6.255   4.014   1.510 -0.2552  0.0087 -0.0855
23904W        W39521   7.037   6.701   2.487  0.0724 -0.3352  0.2720
23905W        W39522   9.037  15.998   3.464 -0.1604  0.0638 -0.2069
23906W        W39523   0.215   4.979   2.170 -0.0334 -0.0716 -0.2194
23907W        W39524   6.718  13.760   4.181  0.1157  0.1126 -0.2373
23908W        W39525   0.414   2.454  16.701  0.0186 -0.0297  0.1531
23909W        W39526   5.877   3.966  13.720  0.1981  0.0386  0.0316
23910W        W39527  10.310  14.996  13.526  0.2172 -0.1713  0.2786
23911W        W39528  11.889   8.410  12.033  0.5193  0.1990 -0.1055
23912W        W39529   9.850   5.639   6.708 -0.2195 -0.0268 -0.3050
23913W        W39530   6.989  11.801  14.861  0.1227  0.1085  0.0971
23914W        W39531  11.957   6.306  12.889  0.0156  0.1050  0.2125
23915W        W39532   4.169  15.305   5.499 -0.2528 -0.0146 -0.3292
23916W        W39533   2.111  14.760   3.405  0.0888 -0.2501 -0.1093
23917W        W39534  11.632   9.771   4.345 -0.0737  0.0373  0.1445
23918W        W39535   0.504  11.944   3.986  0.0988  0.1648  0.0048
23919W        W39536  13.364   8.706   1.136  0.2041  0.0775 -0.2013
23920W        W39537   2.703  14.142   0.490  0.0709 -0.1630 -0.1430
23921W        W39538   4.529   3.263   4.112  0.2104 -0.1416  0.0931
23922W        W39539   8.804   5.115  11.502  0.3648 -0.0222  0.0222
23923W        W39540  11.043   8.681   2.687 -0.1575  0.0555  0.3923
23924W        W39541  14.673  10.581   4.285 -0.2074 -0.0665  0.1168
23925W        W39542   1.075   5.956   4.742  0.2671 -0.0664  0.1389
23926W        W39543  14.778   0.778   0.241  0.0870 -0.2622 -0.4618
23927W        W39544  14.527   2.445  15.341  0.0626 -0.0030 -0.1968
23928W        W39545   8.793  15.265   3.928 -0.0698 -0.1826  0.2549
23929W        W39546  13.083  15.332  15.111  0.0419 -0.1049 -0.2774
23930W        W39547   4.909  12.041   1.738  0.0095  0.1787  0.0849
23931W        W39548  16.836   4.445  11.456  0.2064 -0.1144 -0.0349
23932W        W39549   8.192  14.927   5.792 -0.5027 -0.2649  0.0943
23933W        W39550  12.269  16.682   3.671 -0.2209 -0.0408 -0.0290
23934W        W39551  12.793  11.907   1.100 -0.0916 -0.2673 -0.0099
23935W        W39552  16.860  11.999  13.535 -0.2186  0.2775  0.1488
23936W        W39553  16.648  17.299   4.975 -0.0861 -0.0996  0.2023
23937W        W39554   9.691   6.808   5.269  0.0038  0.0664  0.0811
23938W        W39555  13.928   4.964   1.433  0.2475  0.1385 -0.3285
23939W        W39556  15.513  16.991  13.011 -0.0271 -0.0297 -0.0019
23940W        W39557  15.584   0.895  13.587 -0.1880  0.0343 -0.0401
23941W        W39558   0.617   7.737  11.456  0.0265 -0.0938  0.1723
23942W        W39559   1.961   4.051   0.131  0.2305  0.1554  0.1161
23943W        W39560  10.502  14.243   3.768 -0.1096 -0.1329 -0.1135
23944W        W39561   7.194   3.282  16.179  0.2231 -0.0210  0.1038
23945W        W39562   4.506   0.715  12.686  0.2119  0.0490 -0.1040
23946W        W39563  15.959  14.689  14.502 -0.0288 -0.2148 -0.1605
23947W        W39564   8.037   2.601   1.770 -0.1416 -0.0506  0.0122
23948W        W39565  16.700  15.565  11.961  0.0661  0.1412 -0.0997
23949W        W39566  10.067   6.517  12.023 -0.0829  0.0926 -0.0771
23950W        W39567  13.981  15.518  13.465 -0.1489  0.1184  0.1340
23951W        W39568   3.801  11.615  16.319 -0.0595  0.2060 -0.2725
23952W        W39569  16.654   1.635   0.945 -0.0198  0.1976  0.0810
23953W        W39570   2.508  13.254   3.007  0.2167 -0.1661 -0.2587
23954W        W39571  17.533   6.640   1.977  0.0266  0.0310 -0.1715
23955W        W39572   1.055  11.834   0.431  0.2454  0.0145 -0.2809
23956W        W39573  15.399   9.167   6.034  0.1578  0.0342 -0.1209
23957W        W39574   3.926  17.219  14.597 -0.5456  0.1774  0.1499
23958W        W39575  14.851   1.877  11.363  0.1734  0.2299  0.0608
23959W        W39576   9.526   5.903   1.238 -0.1104  0.0756  0.1959
23960W        W39577   9.988  10.382  13.375 -0.4699 -0.1043  0.0401
23961W        W39578  11.061  15.728   2.624  0.2050  0.0322 -0.1283
23962W        W39579  15.135  16.776   4.856 -0.2114 -0.0685 -0.2114
23963W        W39580   3.824  15.428  13.218 -0.1694 -0.3478 -0.0119
23964W        W39581   0.139  10.269   3.896  0.3311  0.0444  0.0032
23965W        W39582   5.987  16.121   4.161 -0.1168 -0.0732 -0.3062
23966W        W39583  16.501   5.860  12.209 -0.1545 -0.0632 -0.2516
23967W        W39584   3.216   1.922  12.402 -0.0005  0.2320 -0.1217
23968W        W39585  17.264   7.151   2.826  0.1912 -0.0766 -0.3219
23969W        W39586  17.299   0.331  14.976 -0.2126  0.3135  0.0710
23970W        W39587   7.701   6.401  12.244  0.0480  0.0645  0.0938
23971W        W39588  17.056  17.813   0.939 -0.2780 -0.1280  0.0701
23972W        W39589  15.249  15.237  14.152  0.1029 -0.0165 -0.2981
23973W        W39590  11.361  10.571  12.182  0.0986  0.0667  0.1101
23974W        W39591  16.359   4.392  16.241 -0.0673 -0.0727  0.0436
23975W        W39592  12.807   5.354  13.366 -0.1917 -0.4608 -0.0706
23976W        W39593   9.926  17.269   4.120 -0.0983 -0.0251 -0.0437
23977W        W39594  11.364  17.462   5.355  0.1763  0.0493 -0.0837
23978W        W39595  16.034   7.646  13.270 -0.2871  0.1457  0.0727
23979W        W39596  11.255  17.043   1.215 -0.0838 -0.1334  0.0426
23980W        W39597   0.200   3.804   4.279  0.0820  0.3559  0.1318
23981W        W39598   9.081  15.862   2.954 -0.3105  0.0990 -0.0165
23982W        W39599   6.936   8.902   4.236  0.0553 -0.3047  0.2428
23983W        W39600   0.999  17.611   1.230  0.0033  0.1218 -0.3125
23984W        W39601  16.294  11.888   4.655 -0.2699  0.1239 -0.3856
23985W        W39602  16.574   9.004   2.056 -0.0689  0.5054 -0.1177
23986W        W39603  11.062  11.488  15.210  0.0180 -0.0513 -0.0337
23987W        W39604  17.282   8.374   4.298  0.0298 -0.0220 -0.0567
23988W        W39605   6.029   3.519  14.022 -0.0415  0.0342 -0.2385
23989W        W39606   8.285   0.588   5.460  0.0095 -0.0142 -0.1389
23990W        W39607   8.712   8.425  13.697  0.0769 -0.2466 -0.1962
23991W        W39608   3.095  13.904  11.714  0.0759  0.0034  0.1929
23992W        W39609  17.247  12.308   1.228  0.1629  0.1372 -0.2866
23993W        W39610  10.707   7.960   5.110 -0.0603  0.0879  0.1048
23994W        W39611   5.875  14.627  15.284  0.0439  0.0164 -0.2925
23995W        W39612  13.129   8.220   1.478 -0.0412 -0.0558 -0.2240
23996W        W39613   3.743   5.809  16.164 -0.4377  0.3815 -0.0152
23997W        W39614   1.134   7.967   4.186  0.1709  0.0385 -0.0302
23998W        W39615  13.760   3.461   0.277 -0.0564 -0.2617 -0.2205
23999W        W39616  15.214   9.972   3.918  0.2016  0.1550 -0.2632
24000W        W39617  14.094  13.113  15.848 -0.0461  0.2329 -0.1314
24001W        W39618   2.281  17.401  10.283 -0.2893  0.0745 -0.4128
24002W        W39619  11.238  11.489   4.107  0.1186 -0.1378  0.1639
24003W        W39620  16.339  12.815   2.001 -0.1408  0.3732 -0.2310
24004W        W39621   0.301  14.587   1.877  0.1591  0.0279  0.3818
24005W        W39622  15.738  16.090   1.894  0.0399 -0.0678 -0.1034
24006W        W39623   9.157   2.469   4.768  0.2703 -0.0604 -0.0367
24007W        W39624  15.697  16.260  14.988  0.1762 -0.0528  0.3106
24008W        W39625   2.494  14.479   5.843 -0.0841  0.0552  0.1856
24009W        W39626  17.455   2.752  12.078  0.1307 -0.0646  0.0824
24010W        W39627  10.509   8.308   4.083 -0.2839  0.2217 -0.0254
24011W        W39628  10.405  17.720  11.792  0.0635  0.2088  0.0793
24012W        W39629   9.450  12.278  14.477  0.2206 -0.1996  0.0188
24013W        W39630  10.908   4.706  14.917 -0.1324 -0.2077  0.2035
24014W        W39631   8.613   0.742   3.524  0.1197 -0.0623  0.0148
24015W        W39632   2.734  16.188   2.746 -0.3626  0.5547  0.0166
24016W        W39633   4.313   5.673   2.563  0.0893 -0.0697  0.0554
24017W        W39634   5.142  11.655  16.290  0.0454  0.2259  0.1884
24018W        W39635   2.227   8.227   2.499 -0.3210 -0.0075 -0.2405
24019W        W39636  17.682  10.265  12.367  0.0715 -0.1751 -0.0408
24020W        W39637   5.662   3.811   4.818  0.0785  0.0030  0.0190
24021W        W39638   7.095   0.800  11.295 -0.1231 -0.2101  0.0106
24022W        W39639   4.954   5.260   1.985 -0.2070 -0.0048  0.1591
24023W        W39640   8.141   5.335  16.720 -0.1633  0.0985 -0.0368
24024W        W39641  13.323   3.424  15.729  0.0360 -0.2499  0.1260
24025W        W39642   1.403   5.423  12.942  0.1728  0.0885  0.2019
24026W        W39643   2.126  13.101  12.251 -0.2163  0.0754 -0.0873
24027W        W39644   8.083   7.583   4.622 -0.1945  0.0941  0.1361
24028W        W39645   6.756  17.617  14.613  0.1443  0.0268  0.2256
24029W        W39646   8.554  17.656   6.774  0.0671 -0.2134 -0.2256
24030W        W39647   5.878  15.143  10.972  0.1325  0.3540  0.1333
24031W        W39648  14.850  13.711   1.115 -0.1087 -0.1229  0.1477
24032W        W39649   9.730  16.315   5.664 -0.2136  0.0544 -0.1343
24033W        W39650   7.077  10.548  11.862 -0.4475 -0.3422  0.2540
24034W        W39651   5.221   5.621   3.226 -0.0093 -0.4042  0.0029
24035W        W39652   3.466  17.046   1.113  0.1801  0.0323  0.0753
24036W        W39653   9.663  13.901  13.302 -0.2253  0.0246  0.0872
24037W        W39654  15.920  13.355  14.684 -0.1325 -0.0827 -0.0401
24038W        W39655   8.654   2.951   1.009 -0.0028  0.1766 -0.0136
24039W        W39656   7.872   5.409  15.622  0.2006  0.0691 -0.3926
24040W        W39657   9.062  16.882  15.550 -0.1165  0.4229  0.2520
24041W        W39658  11.856  15.679   0.210 -0.0066  0.0582  0.2965
24042W        W39659  16.053   1.918   4.270 -0.0227  0.1898 -0.1194
24043W        W39660   5.011  13.971  14.155  0.0331 -0.0602  0.1662
24044W        W39661  10.601  15.186   1.379  0.0654  0.0362 -0.0405
24045W        W39662   5.206   4.452  14.079  0.0090  0.1540  0.1536
24046W        W39663   6.649  17.739   1.583  0.1212 -0.0538  0.0306
24047W        W39664  13.661   5.330   1.682  0.2705 -0.1131  0.0806
24048W        W39665  15.282   8.466   4.224 -0.0375  0.1212  0.3262
24049W        W39666  11.984   2.455   5.353  0.2151  0.1957 -0.0269
24050W        W39667   9.806  17.055   0.904 -0.0548  0.2430  0.1339
24051W        W39668  12.018   2.042   0.432 -0.1666  0.2127 -0.2790
24052W        W39669   1.915  15.709   3.032 -0.3560 -0.2366 -0.0434
24053W        W39670   1.328   8.257  13.750  0.0538 -0.2007 -0.0437
24054W        W39671   3.961   2.312   3.004 -0.3918  0.2113  0.1192
24055W        W39672  11.691   2.960   4.720 -0.1323  0.0296  0.1050
24056W        W39673   7.714   8.642   2.125  0.0120 -0.0414 -0.3626
24057W        W39674   7.979   1.344  12.183 -0.2988  0.0098 -0.3125
24058W        W39675  13.076  12.365   0.999  0.2606 -0.0060 -0.1442
24059W        W39676  13.599   9.181   3.531 -0.0246  0.6041 -0.0980
24060W        W39677   7.269  17.289   2.350  0.5651 -0.0475 -0.4145
24061W        W39678  13.716   2.373  15.266  0.1637 -0.0840  0.1177
24062W        W39679  10.175  16.617  15.400 -0.1042  0.2894 -0.1013
24063W        W39680  13.585   7.279   1.472  0.0022  0.0628  0.0419
24064W        W39681   8.911   6.121   4.992  0.1388 -0.1319  0.2728
24065W        W39682   1.080   1.863  12.776 -0.0205 -0.3079  0.1374
24066W        W39683   7.934  13.800   4.706 -0.0464 -0.1448  0.1469
24067W        W39684   9.825  16.113   5.135  0.0070  0.4356 -0.2544
24068W        W39685   4.588  11.936  16.817  0.0560 -0.0685 -0.0339
24069W        W39686  13.498   6.296   1.748 -0.0102  0.0935  0.0053
24070W        W39687  10.473  11.851   5.088 -0.0353 -0.1631 -0.2295
24071W        W39688   9.096   9.578  16.270  0.1179  0.2369  0.0998
24072W        W39689  12.943   3.795  15.629  0.0061 -0.0485 -0.0597
24073W        W39690  13.813   1.859   0.071  0.0679  0.3422 -0.1408
24074W        W39691  14.722  17.430  15.811 -0.1109 -0.2755  0.2740
24075W        W39692   7.965  10.912   2.123  0.2601 -0.0255 -0.0671
24076W        W39693  15.365   5.449   5.500 -0.0325  0.1077 -0.0460
24077W        W39694   5.640  10.435  14.614 -0.0588 -0.2013 -0.2857
24078W        W39695   2.850   3.195   3.596 -0.2017  0.0755 -0.1475
24079W        W39696   8.980   4.347  12.563  0.1253  0.0921 -0.2736
24080W        W39697   1.907  14.979   2.465  0.0568 -0.0658 -0.0251
24081W        W39698   8.929  10.710   1.174 -0.3116  0.0364 -0.2638
24082W        W39699  11.485  16.716   3.116 -0.1870 -0.0092 -0.0561
24083W        W39700  17.748   5.321  15.254 -0.0187 -0.0046 -0.0741
24084W        W39701   2.606  15.240  15.493 -0.1703  0.0037  0.0027
24085W        W39702  10.609   2.675   2.592  0.1994 -0.1818  0.0022
24086W        W39703   2.081  12.752  16.746  0.0697  0.0169 -0.1048
24087W        W39704   2.775   7.676   3.946 -0.0803  0.1219 -0.1852
24088W        W39705   7.740  12.445  16.431  0.1259  0.2265  0.2345
24089W        W39706  13.727   2.576  15.713 -0.0861  0.0730 -0.3175
24090W        W39707   9.952  17.375   3.052  0.0302  0.0917 -0.0442
24091W        W39708  11.538  10.830  14.175  0.0540 -0.1397  0.0971
24092W        W39709  11.266  17.625   0.091  0.0858  0.4217  0.0052
24093W        W39710   1.824   7.390   2.252 -0.1459 -0.1741  0.6574
24094W        W39711  16.720   5.114   0.048 -0.2718  0.0549 -0.3355
24095W        W39712   7.118  16.688  14.865  0.0300 -0.2187 -0.1227
24096W        W39713  13.275  14.867  14.395  0.2575  0.1786  0.0055
24097W        W39714  13.077   3.697  15.157 -0.2858 -0.0377 -0.0514
24098W        W39715   0.741   4.377  14.768 -0.0616  0.0828 -0.0493
24099W        W39716   9.859  15.589  16.160  0.0127 -0.0315 -0.2819
24100W        W39717   9.521  10.441  16.384  0.0648 -0.2731  0.2158
24101W        W39718   9.794   6.332  15.600  0.0341  0.1279  0.1712
24102W        W39719   2.972  10.528   6.011 -0.2567  0.0406 -0.4102
24103W        W39720   8.326  12.726   1.108  0.5045  0.0682  0.1065
24104W        W39721  12.420   5.581  15.221 -0.1117 -0.0937 -0.0028
24105W        W39722  13.292   4.995   1.744  0.2469 -0.1278  0.1171
24106W        W39723   5.174  12.813   1.114  0.0818  0.1095  0.1228
24107W        W39724  10.891  15.106  13.340  0.3229 -0.2400 -0.1516
24108W        W39725   2.362  17.522   4.186 -0.1538 -0.0647  0.2112
24109W        W39726  15.810   4.608   3.935  0.2682 -0.0022 -0.1714
24110W        W39727  14.126  15.000  15.944 -0.1622 -0.1101  0.1778
24111W        W39728  10.638   6.526   5.055  0.1652  0.0792 -0.0254
24112W        W39729   0.208  11.961   1.626 -0.0107 -0.1195 -0.0290
24113W        W39730  14.512   3.435   1.691  0.3482  0.1133  0.0347
24114W        W39731  10.292   1.720   4.375  0.3110  0.0490  0.0495
24115W        W39732   6.765   4.024   5.557  0.0615 -0.1700  0.0338
24116W        W39733   6.604  17.823  15.738  0.2521  0.1903 -0.1058
24117W        W39734   0.729   6.800  15.054  0.2085  0.1550  0.1215
24118W        W39735  15.788  13.784  14.255 -0.0714  0.1072 -0.0501
24119W        W39736   7.056   2.627   5.569  0.2640 -0.0452  0.0975
24120W        W39737   0.840  12.283   1.198 -0.1063  0.1480 -0.0030
24121W        W39738  12.987  12.267  16.079  0.0325 -0.3012 -0.0399
24122W        W39739  16.070   8.451   0.357  0.0659  0.0878 -0.0516
24123W        W39740   6.800   2.390   5.206  0.4182 -0.3715  0.1233
24124W        W39741   0.071   4.154   3.085  0.0107  0.0381  0.1854
24125W        W39742   7.869  15.260   1.675  0.1024  0.1725  0.3016
24126W        W39743  12.135   6.727   6.377  0.0705 -0.1191  0.4494
24127W        W39744   4.652  15.157  13.669  0.1164 -0.2801 -0.0122
24128W        W39745  12.131   4.686  14.052 -0.0097  0.2478  0.0025
24129W        W39746  11.011  11.767  12.814 -0.0445 -0.1503 -0.3602
24130W        W39747   4.729   8.267   0.477  0.1638 -0.2265 -0.1336
24131W        W39748   3.958  15.433   2.536  0.1085 -0.2048  0.1093
24132W        W39749   7.559   8.426  14.104  0.0532  0.1930 -0.0852
24133W        W39750  16.701   1.081  14.644 -0.0341 -0.1986 -0.0173
24134W        W39751  17.110  11.843  13.031 -0.0002 -0.0974  0.2266
24135W        W39752  15.162  12.042   5.889  0.1798 -0.0880  0.1066
24136W        W39753   5.292   5.868  16.757 -0.0446 -0.1498  0.1812
24137W        W39754   5.286   7.160   3.819  0.1590  0.0531  0.3096
24138W        W39755  12.661   7.042   0.109  0.0718  0.1327  0.4369
24139W        W39756   5.920   3.434   5.307  0.7255  0.2206  0.0618
24140W        W39757   1.714   5.887  12.147  0.1207  0.1161  0.1865
24141W        W39758   3.585   8.733   3.877  0.1534 -0.2607  0.0851
24142W        W39759  16.154  15.991   3.149 -0.1507  0.0545 -0.0574
24143W        W39760   6.004  12.576   2.362  0.0830  0.4284  0.0984
24144W        W39761   7.898   2.180   0.011 -0.2042  0.0613 -0.1338
24145W        W39762  16.796   1.562  16.025  0.1493 -0.5812  0.0160
24146W        W39763   4.067   6.276  13.761 -0.0465 -0.0139  0.2238
24147W        W39764   8.195   5.139  15.252 -0.2170  0.2487  0.1374
24148W        W39765  13.027  14.053  14.120  0.2421  0.3970  0.3259
24149W        W39766   9.683   0.173   2.657 -0.2229  0.2654 -0.3799
24150W        W39767   0.009   6.390  13.835 -0.1345  0.1156 -0.0601
24151W        W39768   3.296   8.821  14.073 -0.1844 -0.1212  0.2849
24152W        W39769  11.514   9.040  14.517 -0.0036 -0.0973 -0.2759
24153W        W39770   4.263   3.639  11.965  0.1310  0.1554 -0.0971
24154W        W39771  16.893  14.115   5.298 -0.1044 -0.1507  0.1642
24155W        W39772   7.665   5.915   3.579 -0.0942 -0.1676  0.3349
24156W        W39773   6.224  10.863   0.823  0.0720  0.3129 -0.1927
24157W        W39774   1.138   7.030  15.333  0.2188  0.1095  0.2998
24158W        W39775   8.829  16.435   2.194  0.0917 -0.0691 -0.1312
24159W        W39776   4.986   7.482   5.802  0.1806 -0.0061  0.1966
24160W        W39777   6.518  13.825  15.459 -0.1573 -0.0874 -0.1667
24161W        W39778  14.692  14.467   6.401  0.0161 -0.2088 -0.2245
24162W        W39779  15.594   8.807   4.595  0.2254  0.1392 -0.2379
24163W        W39780   7.311   1.911  12.819 -0.1976 -0.0499  0.0504
24164W        W39781  17.196   0.667   5.026 -0.1216 -0.0632 -0.2644
24165W        W39782  16.172   5.308  10.559 -0.3951  0.1862 -0.3411
24166W        W39783  17.826  12.453  15.912 -0.1248  0.1615  0.1260
24167W        W39784   8.480  16.591   1.807 -0.2118 -0.3678  0.3528
24168W        W39785   3.805  15.982   0.225  0.2154 -0.2843 -0.0580
24169W        W39786  15.038   7.066   3.680 -0.0819 -0.0797  0.4126
24170W        W39787   7.285  12.391  16.612 -0.1969  0.0108 -0.3899
24171W        W39788  10.154  17.413  15.490 -0.0106  0.0195  0.1596
24172W        W39789  16.677  17.041  14.031  0.0870  0.2034  0.0898
24173W        W39790   4.370   5.739   3.067 -0.0442 -0.1460 -0.0440
24174W        W39791   2.973   0.598   2.207  0.2782 -0.0067  0.0829
24175W        W39792  16.760   4.243  12.494 -0.0460  0.1005  0.0941
24176W        W39793  16.608  17.743  15.964  0.2865 -0.0258 -0.0763
24177W        W39794  14.487   4.605  13.533  0.0312  0.0383  0.1167
24178W        W39795   2.232  17.102   1.903  0.0036 -0.1394 -0.0758
24179W        W39796   0.419  17.465  11.385 -0.1648  0.0206  0.0210
24180W        W39797  14.866  11.648  15.377 -0.0106  0.2042  0.0969
24181W        W39798  14.762   7.020   4.345 -0.0273 -0.0865 -0.1936
24182W        W39799  16.038  11.405  13.161 -0.2068 -0.0320 -0.0618
24183W        W39800   9.122  10.566   3.709 -0.1872  0.1145  0.1623
24184W        W39801   8.624  15.354  14.896  0.0672  0.1091 -0.1902
24185W        W39802   5.966   5.669   0.491  0.1465  0.3960  0.3123
24186W        W39803   2.164   9.448   0.777  0.0307  0.0178  0.0289
24187W        W39804  16.167   5.492  12.273 -0.2095  0.2137 -0.0280
24188W        W39805  14.636  16.645  15.612 -0.1083  0.3120  0.0045
24189W        W39806  15.777   7.879  15.052 -0.1282  0.1837  0.0515
24190W        W39807   1.748   8.889  16.805 -0.1866  0.1094  0.0519
24191W        W39808   1.036  10.902   5.449 -0.1053  0.2430 -0.1717
24192W        W39809  13.053   6.321  11.935 -0.0815 -0.0425  0.0935
24193W        W39810  13.731   5.857  15.387  0.2654  0.2032 -0.1388
24194W        W39811   8.128   6.449   1.192 -0.0657  0.1927 -0.0116
24195W        W39812  14.729   7.525   2.076  0.1092  0.2563 -0.1519
24196W        W39813   8.670   6.618  12.080  0.1717 -0.0838 -0.0761
24197W        W39814  12.390   5.941  16.098 -0.1041  0.3394  0.0010
24198W        W39815  15.640  16.624   1.254  0.0321 -0.1532  0.3218
24199W        W39816   2.447  13.151   4.870 -0.0171  0.0730 -0.1512
24200W        W39817  11.584  17.157   4.519  0.1307 -0.2132 -0.1581
24201W        W39818   1.180  15.563  12.263 -0.0576 -0.0471 -0.1618
24202W        W39819  17.803   2.870   3.625 -0.3870  0.2428  0.2270
24203W        W39820   5.610   3.219   2.435 -0.2145 -0.2505  0.0958
24204W        W39821   1.497  14.207  13.702 -0.2965  0.0437 -0.3225
24205W        W39822   9.017   8.320   3.311 -0.1027 -0.0037 -0.0735
24206W        W39823  11.406  12.110   5.297  0.2058  0.2800  0.2270
24207W        W39824  10.560  15.884  10.923 -0.1635  0.0858  0.0314
24208W        W39825   3.024  13.789   6.438 -0.0438  0.1107 -0.0788
24209W        W39826  17.336   4.948  12.928  0.0103  0.2155  0.2229
24210W        W39827  16.849  13.227  16.828  0.1295 -0.1722  0.0894
24211W        W39828   7.639  13.919  10.322 -0.1463  0.1340  0.2991
24212W        W39829  15.460   2.125   1.861 -0.4420 -0.0917 -0.2156
24213W        W39830   9.913   0.525  12.455  0.0546 -0.0330  0.0157
24214W        W39831   4.481  15.831   0.084 -0.0439 -0.2967 -0.0641
24215W        W39832  13.948  13.999   4.335 -0.1793  0.0134  0.0254
24216W        W39833   7.007  16.065   5.412  0.0251  0.1753 -0.2314
24217W        W39834   9.103  10.478   5.032 -0.1906 -0.0091 -0.1880
24218W        W39835   5.312   4.821   2.196 -0.2277 -0.1234 -0.0329
24219W        W39836   5.103   1.118  14.113  0.1335  0.4540  0.0259
24220W        W39837  17.602   3.572   5.395 -0.0803  0.0065  0.1655
24221W        W39838   3.085  13.096  14.953  0.1282  0.1921 -0.2663
24222W        W39839   6.160   8.105  14.185  0.1571 -0.4817 -0.1075
24223W        W39840   8.268  10.782   4.793 -0.0362 -0.0284  0.1325
24224W        W39841  12.988  14.854  12.158 -0.1496 -0.1795  0.2429
24225W        W39842   1.886   6.880  15.830 -0.1276 -0.0945 -0.2566
24226W        W39843  10.164  16.889  16.254 -0.0957 -0.0576 -0.1001
24227W        W39844  17.548  17.855   5.602  0.1313  0.1281 -0.1201
24228W        W39845   0.685  10.410  16.023 -0.2123  0.1388 -0.0788
24229W        W39846  13.758  15.528  13.941 -0.0275  0.1249 -0.0529
24230W        W39847  11.412   3.239  15.194  0.2138  0.0645 -0.3975
24231W        W39848   6.191  12.165  15.143 -0.0844 -0.4935 -0.0686
24232W        W39849  13.870   6.559  12.334 -0.1207 -0.1292  0.0511
24233W        W39850  10.823   9.727  12.482 -0.0424  0.0688  0.1025
24234W        W39851   2.366  14.367   3.047  0.2459 -0.2608 -0.0032
24235W        W39852   3.252   1.226   5.471 -0.1007 -0.0280  0.1084
24236W        W39853  14.230  12.801  14.608  0.1556  0.2655 -0.1701
24237W        W39854   3.795   1.785   4.324 -0.0005  0.2027  0.0701
24238W        W39855  15.318   5.453  11.715 -0.0708  0.1345 -0.0271
24239W        W39856   5.841  14.641  12.556  0.2843  0.1296 -0.0503
24240W        W39857   9.499  10.823  10.983  0.1356 -0.0746 -0.1746
24241W        W39858  12.002  11.430  12.817  0.0013  0.1764 -0.1188
24242W        W39859   1.804   7.017   3.580  0.2875 -0.0513  0.1538
24243W        W39860  14.607   0.459  13.811  0.2280 -0.0217  0.6373
24244W        W39861   4.129   4.116  12.834  0.1548  0.1123 -0.1363
24245W        W39862   9.721  11.533  15.271  0.0575 -0.1849  0.0311
24246W        W39863   9.611   7.359   6.333 -0.3151  0.1691 -0.1023
24247W        W39864  11.701   8.158  13.521 -0.0516  0.1536  0.1858
24248W        W39865   4.028   0.741  14.561  0.1362 -0.0874 -0.0831
24249W        W39866  12.160  15.956  16.168  0.2138  0.0701  0.0626
24250W        W39867  16.319   2.370   0.255 -0.1461 -0.1271  0.1175
24251W        W39868   3.567   3.775  11.032 -0.0835 -0.2736  0.1256
24252W        W39869   1.523   4.734  12.401 -0.0048 -0.0741 -0.1717
24253W        W39870   1.717  17.803   3.638 -0.0715 -0.1739 -0.1476
24254W        W39871  17.298  11.173   4.706  0.2338 -0.0928 -0.0748
24255W        W39872  15.718  11.335  16.615  0.0038  0.2996  0.0320
24256W        W39873  15.161  10.114   6.159  0.1753  0.1162 -0.0852
24257W        W39874  11.689  15.164   2.263  0.1197  0.2475  0.0898
24258W        W39875   9.629   6.736  16.787 -0.0902 -0.0205 -0.2429
24259W        W39876   2.201   8.812   6.140 -0.0903 -0.0138 -0.1729
24260W        W39877  11.761   4.107  14.293  0.1297  0.2461 -0.2575
24261W        W39878   8.773   1.434   2.523  0.0836  0.0971  0.1864
24262W        W39879  13.568  13.997   3.207  0.0279  0.0119 -0.0578
24263W        W39880   3.010   4.439  15.373  0.1193  0.1521 -0.2617
24264W        W39881   4.199   5.053  14.960  0.1629 -0.1768 -0.1114
24265W        W39882  17.338  10.720   3.828  0.0041  0.2632 -0.0107
24266W        W39883   0.227   7.980   3.965 -0.1814  0.0237  0.1123
24267W        W39884  14.873   3.072   1.769  0.1164 -0.0161  0.0667
24268W        W39885  14.684  14.116  12.078  0.0166 -0.1700  0.0459
24269W        W39886   6.455   6.716   0.922  0.1731 -0.1422 -0.1822
24270W        W39887   6.567  10.721   1.163 -0.2642  0.0953  0.2370
24271W        W39888  15.288  10.566   2.391 -0.3704  0.0972  0.0319
24272W        W39889  11.584  16.864  15.622  0.0975  0.4039 -0.1608
24273W        W39890  10.153   8.302   5.335 -0.2987  0.0330 -0.0126
24274W        W39891   8.683   6.658   1.246  0.1584  0.1029 -0.0256
24275W        W39892  17.515   5.564   4.794  0.1355 -0.4285  0.3132
24276W        W39893   4.137   0.414  12.447 -0.0083  0.2336  0.2027
24277W        W39894  14.162   5.685  15.084  0.0921 -0.2091 -0.1534
24278W        W39895   9.255   7.431   4.672 -0.0783  0.0468 -0.1690
24279W        W39896  17.333  17.366   4.078  0.2522  0.0203 -0.0446
24280W        W39897  13.451  10.487  15.084 -0.2676  0.0429  0.1129
24281W        W39898   8.349   4.738   0.166 -0.0021  0.0115  0.0634
24282W        W39899  13.954   7.449  12.936  0.0936  0.0841  0.0810
24283W        W39900   7.295  14.532   3.271 -0.0667  0.2432  0.2571
24284W        W39901  15.527  11.855   3.733 -0.1242 -0.0992 -0.0736
24285W        W39902  13.908  17.706  15.065  0.0278 -0.0798 -0.4604
24286W        W39903  15.275   8.968   3.576 -0.0912 -0.1914 -0.1122
24287W        W39904   8.562   1.894   4.405 -0.1323  0.0744 -0.0286
24288W        W39905  12.144   5.400   0.652 -0.0329 -0.1334 -0.1446
24289W        W39906   7.637   0.919  15.000  0.3136 -0.1988 -0.0360
24290W        W39907   1.628   9.935  15.978  0.1178 -0.2792 -0.2436
24291W        W39908   9.307   8.159  15.383 -0.0330 -0.3884  0.0168
24292W        W39909   1.542   2.857   0.712 -0.2626  0.1764  0.0550
24293W        W39910  16.918   1.478  15.557 -0.1080  0.1595 -0.0116
24294W        W39911   4.166   0.970   1.310  0.1787  0.1100 -0.1657
24295W        W39912   4.005   0.675   0.331  0.0804  0.1055 -0.2580
24296W        W39913   1.792   1.738  15.297  0.3057 -0.0441  0.0067
24297W        W39914  14.978  14.290   3.360 -0.0839 -0.3277  0.1295
24298W        W39915   0.667  15.566   1.003 -0.0818 -0.1221  0.0636
24299W        W39916   8.922   9.198  14.529 -0.0285  0.1828  0.1415
24300W        W39917   5.387  17.441   4.763  0.0369 -0.2482 -0.0405
24301W        W39918   6.142   7.577   2.739 -0.1004 -0.2153  0.0912
24302W        W39919   8.420   6.295  15.343  0.0018 -0.0233  0.3552
24303W        W39920   9.939   8.730  14.799  0.2337  0.2024  0.0484
24304W        W39921  10.426   4.982   0.753 -0.2078 -0.1016  0.0489
24305W        W39922   6.062  16.778  11.150 -0.1611 -0.0453 -0.2151
24306W        W39923  10.643   3.054   2.961 -0.0650  0.0330 -0.1000
24307W        W39924  12.234   6.475   4.495 -0.1454 -0.2034  0.2774
24308W        W39925  12.420   3.524   3.559  0.2226  0.2312  0.4622
24309W        W39926   1.241   6.633  12.073 -0.0020  0.3003 -0.1611
24310W        W39927  12.280   2.817   1.455  0.0417 -0.1959 -0.1391
24311W        W39928   7.837  14.584  12.111 -0.2043  0.2537  0.1982
24312W        W39929  15.215   8.536   5.340  0.0194 -0.2089 -0.0536
24313W        W39930   5.674   2.686  11.869 -0.1688 -0.2090  0.4888
24314W        W39931  12.784   8.108   4.282  0.1492  0.0423  0.2176
24315W        W39932   5.270  16.840  14.020  0.0031  0.0328 -0.0050
24316W        W39933   0.204   2.012  14.749 -0.0820 -0.2117  0.2486
24317W        W39934  12.160  15.197   2.091  0.1242 -0.1680 -0.3242
24318W        W39935   1.408  11.026   4.561  0.1460 -0.2860  0.2650
24319W        W39936   9.440  10.314   5.639 -0.1259 -0.3319  0.1777
24320W        W39937  14.266  11.641   0.207 -0.0108 -0.3802  0.1666
24321W        W39938   5.688  13.789  12.129 -0.2640 -0.0884  0.0811
24322W        W39939  17.773  16.695  12.301 -0.2457  0.2610 -0.0874
24323W        W39940   9.403  17.542   5.655 -0.2698 -0.0470  0.1594
24324W        W39941   7.401   3.661   0.756  0.1269 -0.0847 -0.0454
24325W        W39942   2.397  12.271  16.537 -0.2109 -0.1208  0.0690
24326W        W39943   2.837  16.976  13.672 -0.0308 -0.0271 -0.0684
24327W        W39944   2.353   6.221  16.119  0.1152 -0.1430 -0.1020
24328W        W39945  17.370   1.324   1.453 -0.0666 -0.0563 -0.1555
24329W        W39946  14.765   4.995   0.943 -0.0996 -0.0138  0.1904
24330W        W39947   2.454  17.285  16.518 -0.2953 -0.0231  0.0324
24331W        W39948  10.430  15.025   2.947  0.0894  0.2378  0.2696
24332W        W39949   0.131   6.381  13.312 -0.2045  0.4588 -0.1051
24333W        W39950  13.562  15.452   6.291  0.2444  0.0171  0.0418
24334W        W39951  12.956   8.852  16.696 -0.2010  0.1432  0.2594
24335W        W39952   6.234  15.606   1.297  0.1964 -0.0149 -0.0481
24336W        W39953  15.253  11.196   3.226  0.0873 -0.2639 -0.1227
24337W        W39954   9.122   7.869  14.297  0.4140  0.3042  0.0390
24338W        W39955   9.457  15.168  16.821  0.1005 -0.0103 -0.2282
24339W        W39956   7.239   4.669  12.868 -0.3756 -0.2498 -0.1727
24340W        W39957  10.342  12.329  15.700 -0.0535  0.1038  0.0753
24341W        W39958   5.516   5.425   5.637  0.0423 -0.0931  0.0196
24342W        W39959  10.508  10.430   3.395  0.0285 -0.2113 -0.0727
24343W        W39960   3.905   2.479   4.271 -0.1410  0.0019  0.2248
24344W        W39961  17.064   9.391  16.572  0.0256  0.3204  0.1985
24345W        W39962  15.228  15.753  16.641 -0.0116 -0.1646 -0.0026
24346W        W39963   8.177  14.670   3.489 -0.1463  0.1328 -0.2371
24347W        W39964  12.245   4.690   4.715 -0.0592 -0.1027 -0.1316
24348W        W39965   6.387  13.934  11.441  0.2151 -0.2011  0.2046
24349W        W39966   9.654  11.862   2.784 -0.0345  0.3919  0.0941
24350W        W39967  12.649  16.955   4.444 -0.2810  0.1681 -0.2614
24351W        W39968  13.868  14.110  13.224 -0.1590 -0.0967 -0.0190
24352W        W39969  15.676   6.598   4.687  0.4322 -0.2608 -0.2960
24353W        W39970  16.441   7.935  15.839  0.0951  0.2445  0.1331
24354W        W39971  15.557  15.884  12.588  0.0943  0.2739  0.2732
24355W        W39972   6.797   3.513  16.512  0.0268  0.0324 -0.2149
24356W        W39973   5.158  14.409  10.115  0.3215 -0.2730 -0.0602
24357W        W39974   0.845   4.343   3.523 -0.1714 -0.2480  0.0203
24358W        W39975  14.825  13.830   2.389 -0.1551  0.0439  0.0012
24359W        W39976   0.422  14.386  15.600  0.0985  0.1734 -0.1687
24360W        W39977  17.458  11.009  16.055  0.1221 -0.1413  0.0039
24361W        W39978  13.922  13.044   0.176 -0.2573 -0.1299  0.1352
24362W        W39979   5.179   4.218  15.766  0.1082  0.3159 -0.0389
24363W        W39980  10.773   2.233   0.603  0.1817 -0.0235 -0.1142
24364W        W39981  15.624  10.223   3.354 -0.3104 -0.0766 -0.1311
24365W        W39982   0.274  14.984  14.728 -0.0866 -0.0205 -0.1964
24366W        W39983   7.144   8.135  15.207  0.0616  0.1297 -0.1477
24367W        W39984   1.253   1.398   0.810 -0.0112 -0.2175  0.0156
24368W        W39985  13.281   5.536   1.173 -0.1766 -0.2058  0.0275
24369W        W39986  15.213   8.533  15.644  0.3940  0.1694 -0.0715
24370W        W39987   2.697  11.183   0.649 -0.2300  0.1296 -0.1500
24371W        W39988  12.245   5.998  13.251  0.0539  0.0199  0.1374
24372W        W39989  16.222   9.016  13.330 -0.1397  0.0776 -0.1155
24373W        W39990  10.044  12.787  16.602  0.0974  0.0901 -0.3549
24374W        W39991   4.031   7.026   5.395 -0.0538  0.1059  0.0734
24375W        W39992   8.236   9.991  13.053 -0.0044 -0.1288 -0.3337
24376W        W39993   6.055   9.182  16.815 -0.1174 -0.1831 -0.0980
24377W        W39994   3.043  12.730   1.365  0.2176 -0.2543  0.3343
24378W        W39995   1.596  12.338  12.185 -0.1052 -0.1625  0.0436
24379W        W39996   3.602   1.582  13.213  0.1000  0.0476  0.0537
24380W        W39997  10.288  10.020   4.433 -0.0570  0.0170  0.2103
24381W        W39998  12.690   5.817  13.587  0.2351  0.2288 -0.0883
24382W        W39999   1.768  12.292  15.861  0.0589 -0.3762  0.0253
24383W        W40000  12.608  11.566  14.705  0.2192 -0.1430 -0.2472
24384W        W40001  13.594   7.013   3.495 -0.1589  0.1367 -0.0367
24385W        W40002  13.964   6.066  13.986  0.1964  0.0399  0.0641
24386W        W40003   6.902   9.682   4.917  0.0996 -0.0979 -0.0767
24387W        W40004  16.448  17.367   3.023  0.1593 -0.0735  0.1016
24388W        W40005   7.064   3.415  12.924 -0.3462 -0.3754  0.2013
24389W        W40006   4.895   7.975   1.040 -0.2725  0.3605  0.2878
24390W        W40007  12.817   2.525   0.136 -0.4071  0.3200  0.1358
24391W        W40008   7.640  17.782   1.616  0.1298 -0.1159  0.2786
24392W        W40009  17.145   0.589   3.347  0.1311  0.0504  0.2719
24393W        W40010  11.047   8.177   1.966 -0.1764 -0.1094 -0.1127
24394W        W40011   1.567  15.877   1.562 -0.2929  0.1562  0.0485
24395W        W40012  11.538   2.621   5.659  0.1424  0.1312  0.0332
24396W        W40013   7.679  14.801   3.443  0.1397 -0.2498 -0.0087
24397W        W40014  10.812   5.389  13.915  0.0758  0.1162  0.2712
24398W        W40015   7.010  15.544   0.062  0.1216  0.1409 -0.2684
24399W        W40016  15.903   1.836  15.164  0.0211 -0.1259  0.1604
24400W        W40017   2.595  16.570   4.090  0.1279 -0.0346 -0.2605
24401W        W40018  15.813  10.399   1.691  0.1221  0.0397 -0.3422
24402W        W40019  14.782   0.234  12.708 -0.2706 -0.3256  0.3133
24403W        W40020  14.867  10.202  14.849  0.2399 -0.4264  0.0525
24404W        W40021   9.111   5.873   4.252 -0.1407  0.3070 -0.0693
24405W        W40022  12.034  11.466  14.899 -0.2134 -0.1640 -0.0771
24406W        W40023  10.897   5.112   4.235 -0.1177 -0.1487  0.3833
24407W        W40024   9.366   4.859   0.393  0.1049  0.0363 -0.0056
24408W        W40025  17.086  16.534   3.094  0.0688 -0.2725  0.0966
24409W        W40026  11.887  13.246  11.403  0.1082  0.2193  0.2336
24410W        W40027  10.374  10.903  16.174 -0.1308  0.3542 -0.0640
24411W        W40028   5.500   1.994  14.750 -0.1713 -0.0336  0.1054
24412W        W40029  17.535   1.253  12.570  0.2825 -0.1330 -0.2814
24413W        W40030  16.998  16.079   3.265 -0.1265 -0.0899  0.3573
24414W        W40031  13.439   0.701  11.199  0.3072  0.3106  0.1127
24415W        W40032  11.811   4.523   2.567 -0.1222 -0.2677 -0.2283
24416W        W40033  11.271   3.970  11.860  0.0633  0.2135 -0.3463
24417W        W40034   7.059   7.486  13.953 -0.0069  0.0357  0.2295
24418W        W40035   1.723  17.625   3.192  0.1977  0.0949 -0.3358
24419W        W40036  15.260   7.894   4.155  0.1704 -0.0543  0.4031
24420W        W40037  10.272   2.713   2.199  0.0730  0.1512  0.1349
24421W        W40038   4.389   6.647  11.727  0.0638 -0.3116 -0.5558
24422W        W40039  10.761   8.341   2.411 -0.0297 -0.1743  0.1455
24423W        W40040   6.873  10.106  15.203 -0.0941  0.0997 -0.4953
24424W        W40041   3.906   4.300  13.392 -0.2017 -0.0452  0.1110
24425W        W40042  15.516  11.539  11.648 -0.2620 -0.0885 -0.0512
24426W        W40043   6.863  10.436   1.558  0.0291 -0.3076  0.0246
24427W        W40044  11.740  16.866   1.907 -0.2134 -0.1006  0.2741
24428W        W40045  12.183  10.431  16.440  0.3130  0.2172 -0.1931
24429W        W40046   1.079  13.230   5.317  0.4085  0.3269  0.3068
24430W        W40047   2.614   8.439  15.369  0.1064 -0.0875  0.3649
24431W        W40048  14.311  15.234   3.154  0.2994  0.0352 -0.1214
24432W        W40049  11.484   9.740  16.459  0.0592 -0.2085  0.0471
24433W        W40050  10.856   1.497   5.277  0.0316  0.1157  0.1734
24434W        W40051  13.638   3.301  13.726  0.2947 -0.3274  0.1811
24435W        W40052  11.131   7.788  14.433 -0.1290 -0.0645 -0.1402
24436W        W40053  17.459  12.768  16.103 -0.1621 -0.2045 -0.0294
24437W        W40054   9.298   6.483   1.905 -0.3301  0.2842  0.1004
24438W        W40055   2.825   4.527  16.573 -0.1136  0.2714  0.0252
24439W        W40056   1.682  16.420   5.743  0.0734 -0.0081 -0.3676
24440W        W40057  17.431  16.082  12.180 -0.1726  0.0437  0.0901
24441W        W40058  13.812  14.254   5.661 -0.0059 -0.2554 -0.2260
24442W        W40059   4.181  11.796  16.582 -0.0878  0.1752  0.0119
24443W        W40060  14.033  11.227   3.738 -0.2253  0.0835  0.0012
24444W        W40061  11.254   7.090   3.946  0.1290 -0.0607  0.0015
24445W        W40062   6.166   0.762  12.009 -0.0225 -0.2566 -0.0484
24446W        W40063   8.196   4.611   5.544 -0.0356 -0.1706  0.0444
24447W        W40064  11.558   2.447   2.663 -0.0661 -0.0341  0.1470
24448W        W40065   9.395   0.895  11.647 -0.0521 -0.2828  0.1385
24449W        W40066   5.443   0.310   3.442  0.1351  0.3230 -0.1090
24450W        W40067  12.633  10.337   5.533  0.3836 -0.0244  0.2959
24451W        W40068   1.143   2.710  12.391  0.5571 -0.0093  0.0857
24452W        W40069   1.752  14.793   5.676 -0.0206 -0.2461  0.2471
24453W        W40070   9.937  13.914  12.825 -0.1321  0.1279 -0.0850
24454W        W40071   0.535   8.655  15.104 -0.0088  0.0817 -0.1995
24455W        W40072   7.885   2.352  12.098  0.0516  0.0843 -0.3056
24456W        W40073   6.936   4.952  12.034 -0.0871 -0.0501 -0.3961
24457W        W40074  16.234   1.358   1.739 -0.3609  0.3110 -0.1347
24458W        W40075  10.088  17.474   4.894  0.1023 -0.0258 -0.1508
24459W        W40076   7.666   5.524   3.897  0.1593 -0.1065 -0.1368
24460W        W40077   6.379  13.063  12.323 -0.1494  0.1303  0.0306
24461W        W40078   0.775  11.519  13.167  0.0494 -0.1938 -0.0910
24462W        W40079   7.123   9.046   3.753  0.1166  0.0281  0.0806
24463W        W40080   6.575  10.078   3.750 -0.1099  0.1556 -0.1027
24464W        W40081   0.749  17.489  11.030 -0.0775  0.0894  0.3013
24465W        W40082  12.794   8.617  13.553  0.1072  0.0068 -0.2226
24466W        W40083  15.190   9.475  15.953  0.3007  0.2045 -0.3495
24467W        W40084  12.751  10.640   3.291 -0.2952 -0.1203  0.0021
24468W        W40085   9.623   0.556   5.427  0.2169 -0.0618 -0.3047
24469W        W40086   2.502  16.587  11.653  0.0447 -0.0715  0.0105
24470W        W40087  14.310   1.044  11.575 -0.0098 -0.1671 -0.2128
24471W        W40088   6.551   4.115   4.453  0.0634  0.0409  0.1875
24472W        W40089  15.928   8.680  12.935  0.1027 -0.4588  0.0136
24473W        W40090   0.552   8.082  14.323  0.0920 -0.2285  0.2279
24474W        W40091  14.153   0.810   3.256  0.0936 -0.0469 -0.1689
24475W        W40092   7.024   2.683  15.353  0.3405 -0.1772 -0.3138
24476W        W40093   6.093  10.572  15.295  0.1198  0.1176  0.2128
24477W        W40094   9.977   3.512  13.971  0.1179  0.2727 -0.0470
24478W        W40095   2.829  10.527   1.552 -0.0202 -0.1648  0.0879
24479W        W40096  13.483  16.887   1.739  0.2547 -0.0564 -0.0654
24480W        W40097   9.968  14.070  13.632 -0.1059  0.0863  0.0029
24481W        W40098  17.253  13.925  12.865 -0.0913 -0.1784 -0.0963
24482W        W40099  13.878  13.213  16.397  0.1557 -0.0765  0.0164
24483W        W40100  17.695   3.409   0.942  0.3124  0.1476  0.2242
24484W        W40101   1.664  11.802  14.530  0.0296  0.0693  0.1962
24485W        W40102   1.200   5.146  15.767  0.1598 -0.1394 -0.4001
24486W        W40103  14.751   5.789   1.607 -0.0544  0.5343 -0.1035
24487W        W40104   0.904   2.980   2.754  0.2220 -0.1367 -0.1280
24488W        W40105   6.968   1.846  13.800 -0.1958 -0.2787 -0.2299
24489W        W40106   5.412   8.333   2.065  0.0991 -0.1007 -0.0074
24490W        W40107  17.855  11.522   1.568 -0.1255 -0.0276 -0.1703
24491W        W40108   5.560  13.200  13.078 -0.0078  0.1384  0.0644
24492W        W40109   6.922  13.511  15.147  0.0400 -0.3291 -0.0745
24493W        W40110  12.273   1.252   0.670  0.1067 -0.0525 -0.3647
24494W        W40111  15.582   6.158   1.478 -0.1627 -0.0265  0.0380
24495W        W40112   5.368   2.001  11.489 -0.1255  0.0890 -0.3995
24496W        W40113   9.440  15.399   4.154 -0.0571  0.1180  0.2458
24497W        W40114  11.584  17.560  11.405  0.1510  0.3379  0.3587
24498W        W40115   8.045   5.649   1.443  0.0957 -0.4678  0.4087
24499W        W40116  11.576   3.572  10.674 -0.1573  0.3787 -0.1484
24500W        W40117  10.458   2.422   0.943 -0.0533  0.1702 -0.1126
24501W        W40118  13.587  15.062   2.909 -0.0242  0.0614 -0.1113
24502W        W40119   5.914   8.962   2.451  0.3513 -0.0655 -0.0413
24503W        W40120   0.510  16.892   2.073  0.1998 -0.0013 -0.0760
24504W        W40121  15.988   6.058   3.063 -0.1595 -0.0093  0.1128
24505W        W40122   4.509   1.607   5.614  0.1947  0.0802  0.1124
24506W        W40123   3.688   4.395   4.007  0.1239 -0.0438 -0.5343
24507W        W40124   9.756  17.480  15.923 -0.1998 -0.2836  0.1965
24508W        W40125   3.821   6.571  15.923  0.0965  0.0116  0.0819
24509W        W40126   3.792   7.548  13.668 -0.2168  0.2097  0.1031
24510W        W40127   8.909  17.194   4.970 -0.2136  0.0086  0.0317
24511W        W40128   5.494   5.835  12.304 -0.2236 -0.0417  0.3327
24512W        W40129   1.204   2.866  11.852  0.0977  0.0133 -0.0733
24513W        W40130   1.197   0.904   0.497  0.0444 -0.1206 -0.1734
24514W        W40131  16.099   3.141  14.198 -0.0570 -0.0368  0.0860
24515W        W40132  10.024   6.397  14.023 -0.1278  0.1675  0.0787
24516W        W40133   6.355  15.787  13.252 -0.0844 -0.3190 -0.0687
24517W        W40134  13.799  14.561   1.271  0.0058 -0.4066  0.2420
24518W        W40135  14.265   2.711   2.435 -0.0965  0.0851  0.2001
24519W        W40136   2.511   9.715   4.757  0.1256  0.0387 -0.0076
24520W        W40137  12.837   6.395  15.741  0.1278 -0.0605  0.1895
24521W        W40138   1.833   2.928  14.486  0.1025 -0.0057  0.4257
24522W        W40139   1.587   5.272  12.142 -0.0466  0.0132  0.0792
24523W        W40140   4.023   7.629  14.208  0.0501 -0.1449 -0.1490
24524W        W40141  16.309   9.222  14.310 -0.3131 -0.2856  0.0269
24525W        W40142   4.680   2.265   2.903 -0.3150  0.0978  0.0355
24526W        W40143   8.786  10.590   0.681  0.1354  0.0333 -0.0342
24527W        W40144   8.077   4.075  16.169  0.3247  0.0417 -0.2320
24528W        W40145  12.415  16.350  10.439 -0.1813  0.0305 -0.1730
24529W        W40146  12.560   1.724  16.432 -0.1796 -0.2417 -0.1103
24530W        W40147  12.668  16.870   3.948 -0.1645 -0.2199  0.2172
24531W        W40148   5.587  17.030   4.999  0.0335  0.0576 -0.2565
24532W        W40149   0.300   4.532   0.910  0.2444  0.0441  0.1278
24533W        W40150  16.084   9.134  12.418 -0.0026  0.1683  0.0358
24534W        W40151  11.818   3.348  14.932 -0.1072  0.1227 -0.0948
24535W        W40152  16.039  13.637  15.766 -0.0205  0.0175  0.0278
24536W        W40153   6.007  12.909   3.306 -0.5026 -0.3054 -0.0799
24537W        W40154  15.637   5.053  16.519 -0.1299  0.0101 -0.1394
24538W        W40155   7.607   0.907   3.511  0.1128 -0.0251 -0.1473
24539W        W40156  12.047   9.216   1.833 -0.2991  0.0904  0.2016
24540W        W40157  16.699  13.771   2.463  0.1920  0.0495  0.2826
24541W        W40158   4.462   2.700   5.489 -0.1659 -0.1817  0.3164
24542W        W40159   5.591  17.187  16.304  0.0849  0.1112 -0.2920
24543W        W40160   9.977   4.727  14.674 -0.2396  0.0892 -0.1974
24544W        W40161  10.014   9.317  16.680  0.0958  0.2744 -0.0882
24545W        W40162  14.737  14.795  10.630 -0.2280  0.0551  0.0976
24546W        W40163   3.608   5.732   4.028 -0.1814 -0.1826 -0.1541
24547W        W40164  10.748  17.336  14.505  0.0137  0.0377 -0.1008
24548W        W40165  17.681  10.919   2.425 -0.1077 -0.2553 -0.0256
24549W        W40166   9.070   1.042  15.248 -0.0327 -0.1755 -0.0638
24550W        W40167   6.063  17.718  15.894 -0.2226 -0.2962  0.1671
24551W        W40168   2.932   2.377   5.162 -0.2508  0.2196 -0.1559
24552W        W40169  14.899  15.626   1.430 -0.1606 -0.0856  0.1107
24553W        W40170  14.980   6.863   3.211  0.2370 -0.2078 -0.1515
24554W        W40171   8.012   6.244  16.291 -0.0921 -0.1420 -0.1015
24555W        W40172   5.017   5.097   4.525 -0.3244 -0.1102 -0.4341
24556W        W40173   2.814   0.582   4.025 -0.3542 -0.1958 -0.0259
24557W        W40174   3.730  15.424  16.217  0.0851  0.2026 -0.0551
24558W        W40175   4.215   7.500  14.705  0.0991  0.0581  0.3721
24559W        W40176  11.463   0.160   3.378 -0.0398 -0.2477 -0.1813
24560W        W40177  12.704  10.961   0.103 -0.1536  0.0821 -0.0453
24561W        W40178   8.253   5.900   1.072  0.0614 -0.0974  0.0741
24562W        W40179   4.482  14.170  12.083  0.1011  0.0736 -0.1983
24563W        W40180  15.260  16.293  13.615  0.0799  0.0652 -0.0222
24564W        W40181  17.313   8.181   2.715  0.0401 -0.1678  0.0165
24565W        W40182   1.999   9.817  11.268 -0.4492  0.3276 -0.0997
24566W        W40183   3.713   0.680   2.991  0.1886  0.1948  0.0140
24567W        W40184  10.084   4.336   0.622  0.0376  0.2137 -0.0585
24568W        W40185   9.795   4.622   4.775  0.1061 -0.1421  0.0368
24569W        W40186  13.766  10.983   2.517  0.0048 -0.2439 -0.0837
24570W        W40187   5.979   9.506   0.579 -0.2799  0.1794 -0.1239
24571W        W40188  14.977   6.661   0.256  0.0441 -0.2362  0.2350
24572W        W40189  12.338  10.511   3.032  0.2233 -0.2260 -0.3486
24573W        W40190  17.353  10.457   3.269 -0.1079 -0.3676  0.0444
24574W        W40191   1.288   0.089   2.927 -0.3185  0.0192  0.0235
24575W        W40192   4.112  15.462  14.461 -0.2803  0.1598  0.0662
24576W        W40193   8.532   3.370   0.721  0.0511 -0.1745 -0.1174
24577W        W40194  15.946   5.768  16.008 -0.1246 -0.2120  0.4473
24578W        W40195  15.341  12.779  13.009  0.0452 -0.0562 -0.0006
24579W        W40196   2.095  16.991  11.445 -0.1172  0.3653  0.3087
24580W        W40197   6.546  17.146  14.305 -0.1104 -0.1507 -0.1489
24581W        W40198  13.241  13.080  11.626 -0.0762 -0.1019  0.0789
24582W        W40199  14.412   2.935   5.029 -0.4688  0.0891 -0.2735
24583W        W40200   7.818   5.304  11.226 -0.0448 -0.0501  0.1728
24584W        W40201   2.358   8.446   1.620 -0.1963 -0.2198  0.0785
24585W        W40202  11.875  15.516   5.450  0.4142 -0.1745 -0.2459
24586W        W40203   2.382   3.673  12.367 -0.1037 -0.0775 -0.3177
24587W        W40204  15.330  11.535  15.032  0.0747 -0.1149 -0.0213
24588W        W40205  15.994  14.916   2.449  0.2184  0.1581  0.1486
24589W        W40206  11.998  16.445   4.932 -0.1269 -0.0285  0.2460
24590W        W40207   7.895   2.826  11.956  0.2502 -0.0448  0.1368
24591W        W40208  11.233  10.924  13.790  0.2732  0.3331 -0.2047
24592W        W40209   5.839  10.119   1.417 -0.1137  0.0668  0.1859
24593W        W40210  15.523   2.929   3.644 -0.2368  0.4340  0.3231
24594W        W40211  16.136   6.522   0.103 -0.1442  0.1177 -0.1233
24595W        W40212  11.441   9.571  15.805 -0.1423  0.1604 -0.0104
24596W        W40213   7.152   0.959   0.754  0.2214  0.1654 -0.2046
24597W        W40214  11.103   4.387   1.276 -0.1750 -0.1108  0.1952
24598W        W40215   4.840   5.072   3.632 -0.1478  0.0677 -0.0451
24599W        W40216  11.820  13.966   1.518  0.0868  0.2126  0.0036
24600W        W40217   1.949   7.397  15.879  0.1130 -0.0183  0.0563
24601W        W40218  15.909  17.005  12.685  0.0285 -0.1615 -0.0244
24602W        W40219   3.698  17.366  15.537  0.0427 -0.0261 -0.1137
24603W        W40220   8.145  11.563   3.794  0.1105 -0.1567  0.0323
24604W        W40221   4.833  10.182   3.849 -0.4864 -0.1459  0.0044
24605W        W40222   7.433   7.662   3.597 -0.1103 -0.0832 -0.1047
24606W        W40223   0.433   5.057   5.666  0.0177  0.1856  0.1780
24607W        W40224  10.698  17.314  11.562 -0.0369 -0.2000  0.0597
24608W        W40225  10.997  16.632   1.505  0.0578 -0.0802  0.2491
24609W        W40226   4.136   4.320   2.529  0.1407 -0.3083  0.2112
24610W        W40227   1.546   7.198  15.587  0.1009 -0.1366  0.0022
24611W        W40228  10.598  15.610   1.632  0.2331 -0.0380 -0.0621
24612W        W40229   9.535   1.166   5.177  0.2097  0.0996 -0.1654
24613W        W40230   2.916   1.234   1.380  0.0813 -0.0949  0.0013
24614W        W40231   2.677  17.036   5.480  0.2595  0.1138  0.0493
24615W        W40232  17.458  14.122   5.223  0.0020  0.0604  0.1033
24616W        W40233  17.579  12.059  12.628  0.1391 -0.1316  0.2871
24617W        W40234  14.060   5.967   3.414  0.0085  0.1043 -0.2281
24618W        W40235   7.209   4.006   5.082  0.1691 -0.0539  0.2656
24619W        W40236  15.165  13.644   2.018  0.1479 -0.1651  0.0403
24620W        W40237  11.908  17.763   4.561  0.0390  0.1156  0.0494
24621W        W40238   2.651  13.326  14.204  0.0529  0.1138  0.1535
24622W        W40239   3.693   8.523   6.440 -0.2355 -0.0060  0.1951
24623W        W40240   2.520   0.693  13.604 -0.2669  0.1988  0.1262
24624W        W40241  12.572  14.210   2.728  0.1520 -0.0985  0.0505
24625W        W40242  12.494   1.214   1.771 -0.1382  0.2543 -0.0606
24626W        W40243  13.748  16.810  12.268 -0.0268  0.2712  0.2008
24627W        W40244   0.552   7.640  13.580 -0.1142  0.1094  0.0669
24628W        W40245  12.588  16.376   2.414 -0.0159  0.1400 -0.0419
24629W        W40246   2.980   3.918  15.561 -0.4796 -0.1577  0.2858
24630W        W40247  11.966   6.609   2.220  0.0133 -0.2447 -0.2023
24631W        W40248   4.892   8.195   4.819 -0.2560 -0.1912 -0.2176
24632W        W40249  13.981  16.648   0.785  0.0239  0.2282 -0.1280
24633W        W40250  13.912  14.638   5.055  0.3177 -0.0591 -0.1376
24634W        W40251   0.438  10.137   0.047 -0.0850  0.2149  0.0034
24635W        W40252   6.638   2.066   0.237 -0.0447  0.3464 -0.1378
24636W        W40253  11.426  10.319  11.744  0.1176  0.0134  0.3393
24637W        W40254  16.602   9.630   4.045 -0.1851  0.0868  0.0504
24638W        W40255   3.025  12.361   2.583 -0.1847 -0.2070 -0.0034
24639W        W40256  13.341   2.007  11.463  0.2013 -0.1470 -0.1459
24640W        W40257  12.937   3.577  14.073 -0.0001 -0.0915 -0.0341
24641W        W40258  10.610  15.623   2.321  0.3213  0.1153 -0.0770
24642W        W40259   1.643  10.733   1.065 -0.1597 -0.2045 -0.1773
24643W        W40260   4.312   4.516  14.740 -0.1293  0.0749  0.0808
24644W        W40261   0.971  12.696   4.464 -0.1352  0.1559  0.1256
24645W        W40262   4.252  11.232   4.319 -0.0450  0.2891  0.1777
24646W        W40263   4.041   2.103  12.110 -0.1683 -0.0211 -0.0827
24647W        W40264  16.598   3.736   4.066 -0.1873 -0.0936 -0.0290
24648W        W40265   5.243   2.286   3.068  0.3357 -0.0354  0.0778
24649W        W40266   9.733  10.878  12.864 -0.0266 -0.2016  0.1964
24650W        W40267  12.415  10.545  13.783 -0.3303  0.0084 -0.0435
24651W        W40268  14.597   5.270  15.762  0.3014 -0.0907  0.1432
24652W        W40269   3.878  13.300   3.901 -0.0187 -0.1608  0.2112
24653W        W40270   9.607  12.216  11.333  0.3874  0.0865 -0.2828
24654W        W40271  10.508   2.818  12.554 -0.0624 -0.2737 -0.1259
24655W        W40272   7.675  10.608  14.600  0.0051  0.5736  0.4201
24656W        W40273  10.324   3.573   5.328  0.0663 -0.0394  0.0507
24657W        W40274  10.936   4.980  15.811  0.1092  0.2031  0.2270
24658W        W40275   6.148  16.738  14.463  0.2704 -0.2503 -0.3256
24659W        W40276  14.735   7.544   5.375 -0.1851  0.2410 -0.0102
24660W        W40277   0.601   7.829  16.296 -0.1605  0.1415 -0.1224
24661W        W40278  17.735   8.629   2.019  0.1680 -0.0017 -0.0438
24662W        W40279  16.407   4.974  14.489  0.1172 -0.1575 -0.0265
24663W        W40280  16.158  16.248  16.511 -0.0570 -0.2278 -0.0052
24664W        W40281   0.266   9.567  14.719  0.2042 -0.0686  0.1485
24665W        W40282   1.237  17.571  16.632 -0.0750 -0.1068  0.0578
24666W        W40283  14.317  12.199  15.856 -0.0790  0.2314  0.0563
24667W        W40284   1.809  11.563  15.398 -0.1369  0.1415 -0.1232
24668W        W40285  11.628   0.889   4.779  0.2288 -0.0353  0.1131
24669W        W40286   9.300   6.045   5.877  0.1470  0.2740  0.0569
24670W        W40287  10.431  10.279  11.590  0.0135  0.1295 -0.2613
24671W        W40288  14.894   1.321   0.473 -0.0567  0.2971 -0.1309
24672W        W40289   6.431   0.646  14.419  0.1562 -0.1565 -0.0419
24673W        W40290   0.380   2.427  11.696 -0.0539 -0.2077  0.1477
24674W        W40291  10.182  17.415   5.382 -0.1242 -0.0062 -0.0400
24675W        W40292  15.478   8.893  15.859 -0.1266  0.2206  0.2498
24676W        W40293   5.455   4.877   0.064 -0.1442  0.0791  0.1150
24677W        W40294   5.841   0.782   5.215 -0.1004 -0.0579  0.0308
24678W        W40295   2.875   9.530   0.008  0.0850  0.0780 -0.0741
24679W        W40296  17.839  13.980  11.513  0.0726 -0.1932  0.0419
24680W        W40297   5.368   8.784   2.297 -0.0233  0.2004  0.2377
24681W        W40298   8.769   6.566  13.779  0.1624 -0.2873 -0.2519
24682W        W40299   1.485   1.084  12.779 -0.0995  0.1884  0.1079
24683W        W40300   3.060   1.482   4.502  0.2276 -0.2370 -0.0555
24684W        W40301   3.144   9.941  12.498  0.0736  0.0877  0.2620
24685W        W40302  15.942  16.405   4.231 -0.1793  0.0805  0.2331
24686W        W40303   7.571  10.775  15.637  0.3041 -0.1125  0.2326
24687W        W40304  11.753   8.601  15.225  0.2217 -0.0115 -0.0074
24688W        W40305  10.006  16.401  12.601 -0.1213  0.4537  0.1593
24689W        W40306  17.156   0.357   2.447  0.0965 -0.2115  0.0522
24690W        W40307  12.881  16.303   5.487  0.1125 -0.0508 -0.2804
24691W        W40308  15.065   5.589   2.007 -0.0268  0.3075  0.0988
24692W        W40309   0.184  14.500  13.567  0.2416  0.0200  0.3081
24693W        W40310   7.664  13.003  13.454 -0.0805 -0.3116 -0.0181
24694W        W40311   8.618   1.324   5.314  0.0069 -0.0373  0.0605
24695W        W40312   6.679   6.482   2.086 -0.1643  0.0066 -0.0136
24696W        W40313  12.121  15.136   5.772  0.0349  0.1950 -0.0779
24697W        W40314   6.488  13.282  12.744 -0.1622 -0.3217 -0.0107
24698W        W40315   9.863   1.324  16.446 -0.0474  0.0973  0.0152
24699W        W40316   4.730  10.553  16.806 -0.1910  0.0359  0.0553
24700W        W40317   3.174   0.993   2.437 -0.0684 -0.2096 -0.2757
24701W        W40318  14.163  12.220   3.660 -0.1843 -0.0109 -0.1452
24702W        W40319  17.716  11.402   0.031  0.0413  0.2485  0.0858
24703W        W40320   4.020   4.798   2.960  0.0551 -0.3413  0.4026
24704W        W40321  12.763   2.367   2.812 -0.0994 -0.0194  0.1470
24705W        W40322   6.086   5.166   4.656 -0.0787 -0.2649  0.1367
24706W        W40323  17.191  14.695  11.802 -0.0983 -0.0657 -0.2414
24707W        W40324   4.281  10.742  11.360 -0.4928  0.2913  0.1560
24708W        W40325  12.996  15.647  13.163 -0.3045  0.2868  0.2037
24709W        W40326   6.846  14.369  16.374 -0.0894  0.0342  0.0706
24710W        W40327   6.371  14.474  13.978 -0.2659  0.1050  0.1811
24711W        W40328  11.965  16.127  12.702  0.0187 -0.0693 -0.1461
24712W        W40329  16.222   5.412  15.597 -0.1177 -0.3966 -0.1589
24713W        W40330  17.576   0.344  14.213 -0.3146  0.1582 -0.0837
24714W        W40331   9.655  10.858  14.227 -0.2400 -0.0096  0.0678
24715W        W40332   2.295  11.297  12.068  0.0910  0.0491  0.1286
24716W        W40333   3.931  10.599  15.765  0.1501 -0.3279  0.2321
24717W        W40334   2.190   5.836  11.590  0.0648 -0.1398 -0.0347
24718W        W40335   7.168   3.663   2.369  0.0080 -0.1058  0.3613
24719W        W40336   0.568  13.531  11.683  0.1799 -0.0243 -0.1934
24720W        W40337  11.845  11.879   4.664  0.0273  0.0328  0.0947
24721W        W40338   7.362   3.932  12.396 -0.1797  0.1799 -0.1056
24722W        W40339   0.584   4.572  15.268  0.2306  0.2255  0.0619
24723W        W40340  10.220   7.579  13.170  0.0889  0.0326 -0.1034
24724W        W40341  13.127   1.686   0.508  0.3101 -0.1440 -0.3174
24725W        W40342  14.841   9.301   3.284 -0.3994  0.0928 -0.2754
24726W        W40343  13.665   0.992  15.010  0.1050  0.2533 -0.0919
24727W        W40344  12.928  17.545  14.523  0.0522  0.2389  0.0740
24728W        W40345   1.382  13.157   4.042  0.1474  0.2632  0.2610
24729W        W40346  11.333   5.918   4.357  0.0491 -0.0905  0.2019
24730W        W40347   5.760   3.247   4.843  0.0086  0.1431  0.0552
24731W        W40348   7.743   0.858  14.025 -0.2365 -0.1010 -0.0355
24732W        W40349   0.653   1.393   4.336  0.2412  0.4263 -0.0777
24733W        W40350  16.864   0.800   2.241  0.0327  0.1694  0.0930
24734W        W40351   0.630   1.213  13.935  0.0483 -0.0387  0.2241
24735W        W40352   1.880  14.447  14.042  0.0584 -0.3061  0.0129
24736W        W40353   9.690  10.025   5.274 -0.3441 -0.0750 -0.1231
24737W        W40354   1.956   8.700   2.560  0.2192 -0.0951 -0.0888
24738W        W40355   7.275   7.032   0.626  0.0402 -0.3024  0.1111
24739W        W40356   9.900  10.015   2.751 -0.1767  0.0270  0.0130
24740W        W40357  16.661   2.819  11.341  0.2088  0.0646  0.1751
24741W        W40358  16.813   8.151   4.157  0.0757 -0.0620  0.0308
24742W        W40359   3.720   8.164   4.005  0.3634 -0.0317 -0.2269
24743W        W40360  17.847  17.660   4.239  0.1135 -0.0902 -0.1211
24744W        W40361   0.904  10.157  11.395  0.0959  0.3927  0.2964
24745W        W40362   9.543   5.272   6.026  0.2410  0.0544  0.2672
24746W        W40363   2.783   7.663   5.679 -0.0134  0.1168  0.0578
24747W        W40364   8.585   7.539  16.584 -0.1345 -0.0641  0.0480
24748W        W40365  14.135   7.958   5.994  0.1779 -0.1287 -0.3853
24749W        W40366   4.961   7.659   0.139 -0.0295 -0.0849 -0.4090
24750W        W40367  13.809  16.914  16.685 -0.0066 -0.0155 -0.1196
24751W        W40368   2.499  14.812  15.268  0.0970  0.2983 -0.1701
24752W        W40369  16.830   3.067   2.466 -0.2448 -0.0296  0.0696
24753W        W40370  14.242  15.200  12.795 -0.1224 -0.1306 -0.3553
24754W        W40371   7.525   5.888   6.489  0.0044 -0.2765 -0.0823
24755W        W40372   7.873   2.067  12.561 -0.0812  0.1900  0.1916
24756W        W40373   1.917  14.664   2.959 -0.1488  0.3405 -0.0258
24757W        W40374   9.165   8.347  14.664 -0.1182  0.1984  0.1469
24758W        W40375   1.155  15.611  11.675  0.0178  0.2185 -0.0982
24759W        W40376   4.372   2.485  12.321 -0.2251  0.0120 -0.0846
24760W        W40377   2.914   4.860   4.850 -0.0960 -0.0314  0.1852
24761W        W40378   8.934  12.403  15.843  0.3942 -0.0461 -0.0695
24762W        W40379   7.740  10.755  12.029 -0.0709 -0.0212  0.1419
24763W        W40380  15.487  13.192  13.308  0.1066 -0.0908  0.3564
24764W        W40381   6.917  14.827  14.825  0.3440  0.2734  0.2673
24765W        W40382  12.584   7.986   5.795 -0.0782  0.3304 -0.2389
24766W        W40383   4.769  10.123  15.636  0.2528  0.1362  0.1952
24767W        W40384   3.066   1.681   0.439  0.0218  0.1950 -0.0581
24768W        W40385   2.299  12.911   2.400  0.1623 -0.0233  0.0259
24769W        W40386  11.746   7.888   4.734  0.3141  0.1054  0.0554
24770W        W40387  12.276  16.808   2.244  0.0364  0.0367  0.0301
24771W        W40388  12.452   9.986   1.642  0.0973 -0.0409  0.2605
24772W        W40389   0.609   0.176  14.058 -0.2536  0.0529  0.0076
24773W        W40390  15.054  11.896  16.312 -0.1124 -0.1999 -0.0026
24774W        W40391   3.254  16.353   3.460 -0.2148 -0.0393  0.0193
24775W        W40392   1.663   1.317  13.196 -0.0849 -0.1070  0.2420
24776W        W40393   1.699   5.831  13.047 -0.3567 -0.2683  0.1656
24777W        W40394   5.448   4.017   1.745 -0.1606 -0.0392 -0.0759
24778W        W40395  15.663   1.460   4.988 -0.2701  0.0259  0.1308
24779W        W40396   0.159  12.652   0.131  0.0948  0.2121  0.1417
24780W        W40397  10.657   3.470   5.688  0.2882  0.1996 -0.0259
24781W        W40398  17.821   8.196   1.802 -0.1093 -0.0551 -0.0052
24782W        W40399  14.968   0.753   4.220 -0.1158  0.3455 -0.1408
24783W        W40400  12.184   2.258   3.995  0.2527  0.1749 -0.1200
24784W        W40401   8.226   2.666   3.667  0.0968  0.0067 -0.1354
24785W        W40402  17.265  10.537  12.168  0.1633  0.0704  0.0717
24786W        W40403   7.270  17.767   4.468  0.0546 -0.0820  0.3049
24787W        W40404  16.398  15.273  13.383  0.1300 -0.1951  0.1890
24788W        W40405   4.613  10.385   5.299 -0.1871 -0.0748 -0.0216
24789W        W40406  14.515   9.842   1.536  0.1036  0.0502  0.0776
24790W        W40407   6.743  12.129  13.897 -0.1485 -0.2252 -0.4036
24791W        W40408   3.869  11.243   0.263  0.0909  0.2298 -0.0564
24792W        W40409  14.191   4.982   2.725 -0.0254  0.3091  0.2062
24793W        W40410   9.780   7.007  13.890 -0.0227  0.0294 -0.1778
24794W        W40411  14.948   1.674  13.191  0.0888 -0.3166  0.2562
24795W        W40412   7.085   8.501  13.778  0.1062  0.1183  0.1239
24796W        W40413  14.397   8.606   1.457 -0.1886  0.1076 -0.1459
24797W        W40414   2.085   0.341   4.309  0.4253 -0.2101  0.0463
24798W        W40415   3.302  15.561  13.199  0.0942 -0.0426 -0.1120
24799W        W40416  10.273  11.829   3.055 -0.0632 -0.0452 -0.0919
24800W        W40417   9.366   9.679   4.992  0.2276  0.0324  0.2941
24801W        W40418   3.085  12.763  16.234 -0.0187  0.1545  0.0507
24802W        W40419  15.631  12.570  12.195  0.4090  0.5120  0.2849
24803W        W40420  17.158  17.590   1.724  0.0679  0.2367 -0.3725
24804W        W40421  10.248   1.732  16.505  0.0067  0.3300 -0.2180
24805W        W40422  17.008   9.844  15.479 -0.0487 -0.1652  0.3181
24806W        W40423  13.978  17.529   3.779  0.1910 -0.2150 -0.0384
24807W        W40424   6.794   5.360   5.095  0.3206  0.2168  0.1679
24808W        W40425   3.645   5.063  16.177 -0.1894  0.2784  0.1767
24809W        W40426  13.169   1.173   0.466 -0.0217  0.5064 -0.2657
24810W        W40427  14.377   7.836  15.950  0.0219  0.3888  0.4469
24811W        W40428  12.973  15.070   2.159 -0.1610 -0.4180 -0.0199
24812W        W40429  15.649   3.222  12.354 -0.0808 -0.0712 -0.1597
24813W        W40430  10.348  15.621  15.947 -0.3227 -0.0610  0.1152
24814W        W40431   5.121   5.940  14.753  0.0864 -0.3898 -0.0025
24815W        W40432   1.881  12.302  12.848 -0.2767  0.1726 -0.0278
24816W        W40433   1.222  16.864  16.351  0.0498  0.2133 -0.4350
24817W        W40434   4.432   1.886  12.977 -0.0333 -0.1672  0.2378
24818W        W40435   4.196  12.874   3.903 -0.0670  0.0921  0.2126
24819W        W40436   4.214   9.416   3.940 -0.0390 -0.0061  0.0557
24820W        W40437   3.254  14.090  16.393  0.2716 -0.2286  0.0420
24821W        W40438   2.178   2.985   3.824 -0.2649  0.1189  0.2882
24822W        W40439   1.504   4.248   0.356 -0.2095 -0.0379 -0.1315
24823W        W40440   9.679   8.673  13.050 -0.0436 -0.2498 -0.0363
24824W        W40441  11.797  13.416  13.783  0.0106  0.2278  0.4296
24825W        W40442   1.786  14.025  14.852 -0.3088 -0.2187  0.0521
24826W        W40443  10.638   1.421  12.064  0.2518  0.0788 -0.2599
24827W        W40444   7.260   4.707  15.495  0.2962 -0.0345  0.0178
24828W        W40445   0.708  14.640  11.482  0.1308  0.1765  0.2214
24829W        W40446   8.067  10.060  15.819  0.0475  0.4054  0.4942
24830W        W40447  16.539  12.389  13.830 -0.2587  0.0814 -0.1086
24831W        W40448   9.431   0.997  13.423 -0.3516 -0.0668  0.3306
24832W        W40449   9.430   8.545   4.121 -0.0852  0.5003 -0.3127
24833W        W40450   7.083   2.502  16.162 -0.0888 -0.2691  0.0950
24834W        W40451  10.918  14.942  15.368  0.1363  0.2163  0.0263
24835W        W40452   4.540   9.582  14.893 -0.1888 -0.0573 -0.3911
24836W        W40453   7.328  12.158  12.780  0.0643 -0.3035 -0.0048
24837W        W40454  16.142   6.498  15.266 -0.1712  0.1551 -0.1725
24838W        W40455   9.770  16.392   0.241  0.1234  0.0473  0.3545
24839W        W40456   4.881   6.114   1.678  0.0348  0.1332 -0.4226
24840W        W40457  10.486   5.083  11.873  0.1682 -0.1284  0.0979
24841W        W40458   9.629   8.938  14.280  0.0793  0.3158 -0.2761
24842W        W40459   7.098   2.703   3.272  0.3443  0.0656 -0.0666
24843W        W40460   9.093   0.463  14.643 -0.0636  0.0129  0.1837
24844W        W40461   1.721   2.995   3.501  0.2551  0.0314 -0.0794
24845W        W40462  16.870   3.002   4.659  0.0476 -0.0838  0.0710
24846W        W40463  12.970  16.762   3.314  0.2680 -0.3291  0.2383
24847W        W40464   0.906  17.623   5.712  0.0181 -0.0146 -0.0124
24848W        W40465   4.018  10.660  14.454  0.1842 -0.1509  0.0390
24849W        W40466   4.498  10.534  13.078 -0.0510  0.3412  0.0444
24850W        W40467   3.183   1.876   3.588  0.1584  0.1195  0.1865
24851W        W40468  13.671  10.383  15.569  0.1358 -0.0804  0.2495
24852W        W40469   7.447  15.904   1.330  0.0211 -0.1333 -0.0813
24853W        W40470  10.910   6.809  15.876 -0.0300 -0.1998 -0.0402
24854W        W40471   5.521   2.827  14.208 -0.0074  0.0102 -0.0459
24855W        W40472   5.445   4.228   4.617 -0.0899  0.0232 -0.0654
24856W        W40473   9.113  17.398   1.474  0.0967 -0.3475  0.0404
24857W        W40474  10.356   3.856  15.042 -0.0283 -0.1855  0.2676
24858W        W40475   5.474   1.518   2.360  0.0140  0.0707 -0.0532
24859W        W40476   8.264  14.682   1.329  0.0853  0.0119 -0.2718
24860W        W40477  12.515  14.789  15.637 -0.1509 -0.0737 -0.1494
24861W        W40478   2.021   0.759   1.094 -0.0372  0.3297 -0.1621
24862W        W40479  13.406  15.032   5.071  0.1147  0.0471  0.2446
24863W        W40480   8.161   8.526   2.013  0.0307 -0.3045 -0.1109
24864W        W40481   4.930   2.457  16.794  0.4149  0.0716 -0.2919
24865W        W40482  17.864   5.812  13.339  0.1316 -0.0458 -0.2613
24866W        W40483  12.330  11.123  12.579  0.0296  0.0478 -0.0262
24867W        W40484   8.740   8.507   0.721  0.0459  0.1669  0.1304
24868W        W40485   9.037  15.757   3.956  0.2743  0.1179  0.4335
24869W        W40486   0.882  13.589   0.275  0.3095  0.4812 -0.0997
24870W        W40487   0.759   7.387   5.800  0.0884  0.0117  0.0859
24871W        W40488   1.392  13.770   1.073 -0.2288  0.0758  0.0348
24872W        W40489  13.084  17.822  11.729 -0.3196  0.1661 -0.0662
24873W        W40490   8.588   8.914   2.763  0.0772  0.0517 -0.4624
24874W        W40491   9.895  15.734  15.698  0.1161  0.3718  0.1382
24875W        W40492  14.125  13.615  11.829 -0.2142 -0.2678 -0.2327
24876W        W40493  13.800  10.908  15.287 -0.0566  0.2407  0.4341
24877W        W40494   1.070  10.707   1.806 -0.1947  0.0431  0.1991
24878W        W40495   0.630   2.863  11.754 -0.2655  0.1098 -0.1727
24879W        W40496   6.874  12.685   0.003 -0.0149  0.0986 -0.0898
24880W        W40497   8.984   1.127   4.117 -0.0002 -0.1420 -0.3578
24881W        W40498  11.503   6.674  15.974 -0.0188  0.1626 -0.0900
24882W        W40499  10.056  15.363  16.529 -0.1187 -0.0989  0.0003
24883W        W40500  10.283   9.755   2.042 -0.0410  0.0732  0.0232
24884W        W40501  10.340  14.176   1.280  0.4516 -0.0245 -0.3789
24885W        W40502  13.736   9.692  12.499  0.5273  0.1764  0.1708
24886W        W40503   5.358   3.269   2.867 -0.1432  0.0372 -0.1052
24887W        W40504  17.108   9.098   1.330 -0.0360  0.0958  0.1948
24888W        W40505   3.920   9.634  13.165  0.3464 -0.1730 -0.1479
24889W        W40506  13.618  10.128  16.592  0.0829  0.1200 -0.2275
24890W        W40507  12.185  12.980  14.453  0.1672  0.3631  0.1957
24891W        W40508  11.366   1.870  15.599 -0.0298  0.1398 -0.2290
24892W        W40509   2.081  14.835  14.307  0.2424  0.1289 -0.1304
24893W        W40510   5.449  14.205   4.352  0.1077 -0.0608 -0.0574
24894W        W40511   1.086  13.470  13.978  0.3652  0.0957  0.0503
24895W        W40512   0.865   2.464  11.964  0.1764 -0.0977 -0.0963
24896W        W40513  14.811   1.629   3.036  0.1214  0.1810 -0.0400
24897W        W40514   1.005  11.216   1.778  0.1044 -0.3816  0.3847
24898W        W40515   0.164  12.154  16.665  0.1148 -0.1083  0.0720
24899W        W40516   3.060  10.808  12.182 -0.0258  0.0638 -0.2196
24900W        W40517  12.036   0.554   0.279  0.1561  0.2232 -0.2098
24901W        W40518  11.399  13.135   0.168  0.0289  0.0503  0.0405
24902W        W40519   4.059  10.080  15.586  0.0377 -0.0496 -0.2612
24903W        W40520  17.056   8.628   1.367  0.1734  0.0099  0.3195
24904W        W40521   2.748  10.893   4.233 -0.1067  0.2383  0.0040
24905W        W40522  12.923   3.965   0.829  0.0786  0.0223 -0.2205
24906W        W40523   5.309  13.383  11.932 -0.1930  0.0186 -0.3169
24907W        W40524   8.257  10.723   4.254 -0.2748  0.0295  0.1750
24908W        W40525  13.994  10.046  16.284 -0.0313  0.1512  0.3105
24909W        W40526   9.991   1.400   5.506  0.1325  0.0440  0.2815
24910W        W40527  16.405   1.571  16.524 -0.1445  0.0093  0.4775
24911W        W40528   0.535  11.010   0.427 -0.1918  0.0094 -0.1766
24912W        W40529   8.117  12.239  14.297  0.3837 -0.1122 -0.0611
24913W        W40530   4.919   1.892   0.892  0.0435 -0.1197 -0.2540
24914W        W40531  10.121  11.892  12.206  0.1890 -0.0080 -0.0769
24915W        W40532  12.375   9.290   3.932  0.1270 -0.0327  0.0590
24916W        W40533   5.564  12.045  13.075  0.2943 -0.0776 -0.2626
24917W        W40534   8.030   2.471   3.237  0.3232  0.0988  0.0756
24918W        W40535   5.534  10.771   0.505 -0.1810 -0.1305  0.1391
24919W        W40536   3.880   5.405  14.839  0.0443 -0.1103  0.2060
24920W        W40537  11.673   3.076  12.658  0.2386  0.2115  0.1130
24921W        W40538   8.462   5.234  16.221 -0.0094  0.0290  0.1343
24922W        W40539  17.466  14.124  15.620  0.1270 -0.0477 -0.1555
24923W        W40540   6.474  16.606  11.689 -0.2678 -0.5991  0.0235
24924W        W40541  11.131   1.432  11.170 -0.2452 -0.0532 -0.4351
24925W        W40542   5.787   4.342   0.899 -0.3406  0.0189 -0.0429
24926W        W40543  10.485   2.580   4.094 -0.4996  0.3940  0.1298
24927W        W40544   1.914   1.981  14.275  0.1464 -0.1454  0.1165
24928W        W40545   2.077  13.356   2.279  0.1653 -0.2281 -0.1324
24929W        W40546   7.668  17.030   2.249  0.2624  0.2902  0.1250
24930W        W40547   5.821   2.122  13.227  0.1969 -0.0223 -0.0485
24931W        W40548   6.806   5.199  14.272  0.2902  0.0955  0.0626
24932W        W40549   1.908   4.633  14.766 -0.0049  0.2429 -0.0382
24933W        W40550   2.587   8.639  15.861  0.0773 -0.0833  0.1766
24934W        W40551   3.712  11.042   3.459  0.2487  0.3350 -0.2889
24935W        W40552  10.419  10.445  16.399 -0.2226  0.3172 -0.1232
24936W        W40553  13.777   8.517   2.751 -0.0319 -0.1512  0.2101
24937W        W40554   4.926  16.358  15.077  0.0674  0.0160  0.2462
24938W        W40555   2.198   5.496   2.431  0.1386  0.1091  0.0060
24939W        W40556   5.540   9.558   3.042  0.1991 -0.1732 -0.2318
24940W        W40557   5.965  14.078  16.158  0.0641  0.1375 -0.1820
24941W        W40558  17.474  12.735  13.398  0.0983  0.0726  0.2003
24942W        W40559  12.207   5.619  16.733 -0.0963 -0.0911 -0.0893
24943W        W40560   8.093  12.208   2.596 -0.0378 -0.2482 -0.1759
24944W        W40561   4.365   9.145  15.312  0.0059 -0.0485 -0.1034
24945W        W40562   8.701   8.225   4.986  0.1646 -0.2417 -0.0383
24946W        W40563  13.600   1.397   0.352 -0.1424 -0.1856  0.3479
24947W        W40564   7.393  11.435   2.004  0.2849  0.0709 -0.2548
24948W        W40565   7.649  16.237   2.860 -0.3770  0.2703 -0.1729
24949W        W40566  14.545  14.930  11.721 -0.1350 -0.4651 -0.2273
24950W        W40567  13.064  13.735   1.220 -0.2314 -0.0636 -0.0554
24951W        W40568   7.136   7.319   1.534 -0.1430 -0.1308  0.0223
24952W        W40569  16.279  10.468  12.524  0.1505 -0.3526  0.0646
24953W        W40570   1.519   3.988   5.004 -0.2748  0.0767 -0.0542
24954W        W40571  15.380   8.457  13.306  0.1840 -0.2449 -0.2027
24955W        W40572   2.404   4.718  12.860 -0.1044 -0.0759  0.0279
24956W        W40573  10.832   0.792  15.066 -0.1105  0.1008 -0.0749
24957W        W40574  10.368   2.375  12.783 -0.4685  0.0329 -0.0646
24958W        W40575   9.520   8.154   0.231  0.0445  0.2224  0.2822
24959W        W40576   9.470  17.640   2.419 -0.1637 -0.1104  0.1015
24960W        W40577   7.067   7.720  12.222 -0.2016 -0.2946 -0.2300
24961W        W40578   6.774  15.627   5.167  0.3655 -0.0952 -0.3484
24962W        W40579  14.139   4.048   3.695 -0.0451  0.0666  0.2446
24963W        W40580   3.251   2.291  12.826  0.1934  0.0578 -0.1810
24964W        W40581  12.765  15.884   5.253 -0.1223  0.0084  0.0690
24965W        W40582   2.942   1.076  15.748 -0.0765 -0.0825  0.3374
24966W        W40583  17.848  16.066  14.029  0.2946 -0.0159 -0.2330
24967W        W40584   5.475   5.422   1.803  0.0286  0.0591 -0.2666
24968W        W40585   7.988  14.342  12.968  0.2314  0.1488 -0.2643
24969W        W40586   9.043  13.402  14.993  0.2401  0.0909  0.1475
24970W        W40587   1.491  16.857   5.634  0.0902  0.2092  0.2749
24971W        W40588   4.843  15.996  16.614 -0.2224  0.0376 -0.1442
24972W        W40589  10.503   9.939  12.906  0.0955 -0.1644 -0.0222
24973W        W40590   3.316   9.600   1.937 -0.3707 -0.3088 -0.1874
24974W        W40591   8.191   9.624  12.591 -0.0308  0.1959 -0.1041
24975W        W40592  16.660   8.526  12.801 -0.1479 -0.0869  0.0817
24976W        W40593  13.790   3.427  11.572  0.0228  0.0443  0.1417
24977W        W40594   7.151   0.790   5.840  0.4313  0.1831  0.3106
24978W        W40595  10.607   8.312   3.457 -0.1619  0.1394 -0.0936
24979W        W40596   8.762   2.279  12.917 -0.1181 -0.2633 -0.0003
24980W        W40597   7.603   7.603  12.987  0.2279 -0.4803  0.4725
24981W        W40598   0.628   2.799  15.155 -0.1037  0.0419  0.1715
24982W        W40599  15.291  15.725  15.714 -0.1071 -0.1908  0.1176
24983W        W40600   6.664  11.225   2.991  0.0759 -0.0179  0.3132
24984W        W40601  10.744   1.914  16.564  0.1808  0.2131  0.0013
24985W        W40602  11.432   1.152   0.238 -0.3922 -0.1998 -0.1756
24986W        W40603   9.520   1.294  10.387 -0.1207  0.2037 -0.2271
24987W        W40604  11.380  13.442   5.200 -0.0134 -0.1133  0.0988
24988W        W40605  13.380   1.090   4.284 -0.1793  0.2070 -0.0037
24989W        W40606  17.353  11.158  13.761 -0.1011 -0.2214  0.3508
24990W        W40607   9.160  14.237  15.295 -0.0713 -0.2235 -0.4479
24991W        W40608   9.735  16.857   0.250  0.0883  0.1835  0.2717
24992W        W40609   9.824   0.213  11.250 -0.0685 -0.0308  0.1375
24993W        W40610  14.090   2.433  16.009  0.1275  0.1809 -0.1049
24994W        W40611   7.278   6.202  16.673  0.0084 -0.3519 -0.1387
24995W        W40612   5.397  16.006   0.821 -0.0387  0.0732 -0.1755
24996W        W40613  12.092   8.996   0.911  0.1388  0.1225 -0.1690
24997W        W40614  14.059   7.548  16.271 -0.2827 -0.3208 -0.1524
24998W        W40615   2.382  14.677  14.741 -0.3314 -0.0704  0.1683
24999W        W40616  14.800   3.772  14.443 -0.1704  0.3341  0.0351
25000W        W40617   2.844   3.926  16.446 -0.2296 -0.0879  0.1104
25001W        W40618   9.262  13.206   3.368 -0.1174 -0.0387 -0.0223
25002W        W40619   6.807  12.937  13.100  0.0502 -0.3455  0.0183
25003W        W40620   3.638   0.986  16.221  0.1466 -0.2953 -0.0872
25004W        W40621   0.176   0.577   3.123  0.1346 -0.0724 -0.0275
25005W        W40622  14.750   6.300   1.603  0.0707 -0.2315 -0.0193
25006W        W40623  14.075  11.801  13.927  0.1263 -0.2400  0.3040
25007W        W40624  10.555   1.260  15.263 -0.0621  0.0019 -0.2561
25008W        W40625  13.519  10.561   3.700 -0.0962  0.1743  0.0368
25009W        W40626  11.333   1.436  13.747  0.2129 -0.1369  0.1908
25010W        W40627   4.289  16.915   0.723 -0.1598  0.1826  0.1264
25011W        W40628   6.227   0.634  13.306  0.0392  0.1085 -0.0042
25012W        W40629  15.177  11.272  12.013 -0.0447  0.1519 -0.0742
25013W        W40630  10.952   2.182   3.841 -0.0199 -0.1858  0.1200
25014W        W40631  14.609   5.486   4.299  0.1933 -0.2478  0.3165
25015W        W40632   2.215   3.691   3.140 -0.0359  0.1064 -0.1735
25016W        W40633   1.612   9.419   0.526 -0.1328  0.2667  0.0456
25017W        W40634   4.818  16.065  14.706 -0.2723 -0.1307 -0.1785
25018W        W40635   8.829  10.848   5.152  0.0877  0.1813  0.0645
25019W        W40636   7.950  12.016   4.024 -0.1533  0.0651  0.3272
25020W        W40637   4.774  12.519   0.856 -0.1687 -0.2095 -0.2347
25021W        W40638   5.611  10.716   1.181 -0.1223 -0.1356  0.0090
25022W        W40639  10.394   6.031  13.126 -0.0548 -0.2182 -0.1675
25023W        W40640  17.315   2.511  12.737  0.0669 -0.0997 -0.1744
25024W        W40641   1.507  10.038   6.579 -0.0969 -0.0174 -0.0216
25025W        W40642   5.638   9.809   5.007 -0.1195 -0.2132 -0.2620
25026W        W40643  17.761   2.368   3.524 -0.0606  0.1848 -0.1269
25027W        W40644   4.344   0.290  14.537  0.1061  0.0178 -0.1188
25028W        W40645   0.897   5.825  15.360  0.3504 -0.2569 -0.0136
25029W        W40646   9.960  10.691  13.840  0.2179  0.0550 -0.2213
25030W        W40647   7.931  13.866   0.427  0.0227  0.0098  0.1170
25031W        W40648   5.580  15.521  16.174  0.0306 -0.2454 -0.2651
25032W        W40649   7.784   3.870   4.167 -0.1150  0.0466  0.0745
25033W        W40650   0.238  10.977   1.585  0.1311 -0.2747  0.1129
25034W        W40651  12.400   5.493   1.515  0.1460  0.0410 -0.1633
25035W        W40652  14.742  16.988   0.210  0.0637  0.1757 -0.2165
25036W        W40653   9.751  11.856   3.262  0.1671  0.0167 -0.1907
25037W        W40654  16.551   1.104   1.133  0.2570 -0.0530  0.0884
25038W        W40655  14.626   1.004  15.301 -0.0153 -0.1290 -0.0739
25039W        W40656   8.269  12.406  11.868  0.2054  0.1545  0.0274
25040W        W40657  12.665   8.418  16.614  0.2050  0.0497 -0.0832
25041W        W40658   2.638   3.098  14.987 -0.2679  0.1433  0.0332
25042W        W40659   4.740  10.577   4.251  0.1867 -0.1781 -0.0830
25043W        W40660   5.907   4.025   2.860 -0.0417  0.2865  0.1143
25044W        W40661  17.363   2.630   3.666  0.0845 -0.0541  0.1592
25045W        W40662   7.196   1.730  15.064  0.2890 -0.0508  0.1016
25046W        W40663   8.771   5.823   0.930  0.0677 -0.2184 -0.0676
25047W        W40664  10.569   1.978  15.188 -0.0866 -0.0345  0.1703
25048W        W40665  14.245   0.177  15.328  0.0363  0.0187 -0.1072
25049W        W40666  17.346   2.963  14.796 -0.1945 -0.3577  0.1967
25050W        W40667  11.033   0.695  14.565 -0.0517  0.0698  0.0283
25051W        W40668   0.180   7.097   5.048 -0.2977  0.2043  0.0939
25052W        W40669  11.690   0.707   1.704  0.2058 -0.4127  0.5220
25053W        W40670   2.844   7.984   4.300 -0.0698 -0.2039  0.0623
25054W        W40671   9.995  10.404   4.039  0.3111 -0.1594 -0.1159
25055W        W40672  17.144   8.546  12.376 -0.0165  0.2530  0.2094
25056W        W40673   2.241  16.920  14.753 -0.1497  0.1823 -0.1977
25057W        W40674   5.318   6.762  13.610  0.5026  0.0130 -0.0244
25058W        W40675  16.419  10.132  14.793  0.0810 -0.2012 -0.5284
25059W        W40676   6.233   1.291   5.447  0.1476 -0.1024  0.0335
25060W        W40677  11.499  12.976   4.420  0.2242  0.0486 -0.1094
25061W        W40678   4.641   1.731   3.752 -0.1116  0.1779 -0.1130
25062W        W40679   5.561   9.030  11.649  0.1699 -0.1443  0.0889
25063W        W40680  15.961   2.232   1.632  0.2667 -0.0570 -0.1603
25064W        W40681  15.613   4.020   4.770  0.1376 -0.2416  0.0338
25065W        W40682   8.644  14.441   0.987  0.0686 -0.1614  0.2295
25066W        W40683   9.745   2.323   0.766  0.0128 -0.2374 -0.2182
25067W        W40684   2.886   4.320   6.086 -0.3318 -0.3368  0.2419
25068W        W40685   8.027   3.076   4.585 -0.0166 -0.0982  0.0500
25069W        W40686  13.614   2.425   1.304  0.1659 -0.1422 -0.0658
25070W        W40687   6.851  12.344   4.017 -0.0929  0.1477  0.1144
25071W        W40688  15.629  16.654   3.079  0.0159 -0.0537  0.1224
25072W        W40689   5.665  15.938  12.911  0.4204 -0.1158  0.1987
25073W        W40690  17.111  16.606   3.666 -0.0870  0.2375 -0.1191
25074W        W40691  12.873   5.477   5.029  0.0428  0.1139 -0.0905
25075W        W40692   3.347   6.921   0.240  0.0691 -0.3277 -0.0641
25076W        W40693   2.580  11.877  13.097  0.1605 -0.1089 -0.1286
25077W        W40694  15.538  13.036  12.283  0.1905  0.2045  0.0695
25078W        W40695  15.108   6.804   1.973  0.0499  0.2299  0.0093
25079W        W40696   3.521   9.792   4.625 -0.1061  0.1398 -0.1615
25080W        W40697   4.531  13.932  16.173  0.2149 -0.0283  0.1927
25081W        W40698   3.309   8.877   3.439 -0.0727 -0.0335 -0.3013
25082W        W40699   4.092   7.937   1.356  0.0275  0.2030 -0.2022
25083W        W40700   0.528  10.842  15.538 -0.2523  0.0672  0.1089
25084W        W40701  13.303   5.328   2.552 -0.2860 -0.2122  0.1602
25085W        W40702  11.318  14.722   1.174  0.1928 -0.3186  0.0366
25086W        W40703   4.485  14.552   2.141 -0.1025  0.1973  0.0853
25087W        W40704   5.633   7.930  14.457  0.1914  0.1056  0.0066
25088W        W40705   8.149   5.587  14.259  0.2560 -0.0578  0.0149
25089W        W40706   9.204   4.246   5.429  0.1683  0.2082  0.0201
25090W        W40707  17.536   0.573   3.758  0.1093 -0.3293  0.1223
25091W        W40708   4.782   2.904   1.921  0.0829 -0.0424  0.1547
25092W        W40709   3.974  15.478  11.985 -0.1961  0.6348 -0.2709
25093W        W40710   1.190   6.891   1.501 -0.1731 -0.0928  0.1115
25094W        W40711  14.258   3.472  11.678 -0.0995 -0.3390  0.1556
25095W        W40712  15.175   7.262  13.388  0.1889 -0.2269  0.0067
25096W        W40713   5.220  14.157   2.811 -0.0566 -0.5852 -0.0774
25097W        W40714   7.482   7.280  15.318 -0.0167 -0.3470  0.0859
25098W        W40715  14.302  11.015  16.411 -0.3161 -0.4776  0.1724
25099W        W40716   3.352   5.748  15.852 -0.2434 -0.2263 -0.2818
25100W        W40717  10.688   8.362   0.557 -0.0212 -0.1857  0.2367
25101W        W40718   0.838   1.893   1.598  0.1153  0.1227  0.0343
25102W        W40719  17.092   3.173  13.954 -0.0871  0.0677  0.1714
25103W        W40720   8.404   8.005   4.664 -0.1602  0.1503  0.0699
25104W        W40721   7.133  14.819   0.703  0.2261 -0.1391 -0.3103
25105W        W40722  14.307  11.248   5.084  0.0187  0.2365  0.4000
25106W        W40723   9.754  15.513  12.191 -0.0749 -0.0656 -0.2044
25107W        W40724  13.383   6.599  13.840  0.3385 -0.0009 -0.1522
25108W        W40725  14.165   3.737  16.189  0.0237 -0.2754  0.2364
25109W        W40726  14.657  16.025  12.975 -0.1009  0.5423 -0.1661
25110W        W40727  11.439   9.424   3.123 -0.3416  0.4158 -0.0594
25111W        W40728  16.705  10.397   1.608 -0.0497  0.3250 -0.0317
25112W        W40729   5.099  17.037   5.061  0.1545 -0.3508 -0.2567
25113W        W40730  10.812   8.440   1.110  0.0491  0.2091  0.1515
25114W        W40731  16.941  16.909   0.586  0.0957 -0.1815  0.3155
25115W        W40732  10.327  13.538   2.143 -0.0997  0.1972 -0.2328
25116W        W40733   5.279  15.869   3.644 -0.0788  0.0458  0.0135
25117W        W40734   4.781   7.404   3.859 -0.0419 -0.3301  0.3868
25118W        W40735   1.484   6.968   3.214 -0.1560  0.2409  0.1675
25119W        W40736  17.450  12.197   4.213  0.0097 -0.0934  0.0437
25120W        W40737  12.319  13.206   1.311  0.0248  0.1216 -0.4657
25121W        W40738  11.543   5.360   4.688 -0.2103 -0.2010  0.0887
25122W        W40739   6.047   2.097  12.758 -0.0223 -0.0499  0.3074
25123W        W40740   3.085  17.246   4.634  0.0870  0.0211  0.2460
25124W        W40741   5.558  12.172   3.671 -0.0070  0.1548  0.1369
25125W        W40742   4.228   7.669  11.727 -0.0295 -0.0395 -0.1141
25126W        W40743   5.197   8.544   5.166  0.1893 -0.1490 -0.1265
25127W        W40744   2.272  12.704   4.140 -0.0397 -0.2346 -0.1923
25128W        W40745  17.686   7.098  12.914  0.0085 -0.0181  0.0969
25129W        W40746   9.568   6.482   5.556  0.0972  0.1814 -0.2808
25130W        W40747  11.525  15.114   0.963 -0.1011  0.0505  0.1170
25131W        W40748   6.411   1.374   4.208 -0.3371  0.0805  0.1428
25132W        W40749   6.755   1.978  15.532  0.0245  0.1756 -0.1197
25133W        W40750  10.367  10.560  15.830 -0.2792 -0.1138 -0.0826
25134W        W40751  13.733   4.909  12.238 -0.0125  0.1531 -0.2673
25135W        W40752  11.920   9.267  14.370 -0.0160 -0.1392  0.3826
25136W        W40753   8.478  16.188  15.827  0.0647  0.1891  0.0331
25137W        W40754   1.199   2.292   4.386  0.0491 -0.0204 -0.1962
25138W        W40755   4.185   5.373  14.301 -0.1336 -0.0565 -0.0644
25139W        W40756  14.773   2.456  13.813 -0.1802  0.1950  0.1012
25140W        W40757   1.935   2.238  15.399  0.2050  0.1404  0.1904
25141W        W40758  15.252  14.302   5.299  0.1359  0.2799 -0.2124
25142W        W40759   3.364   8.362   4.873  0.2632  0.1248 -0.0219
25143W        W40760  12.899   3.533   4.152 -0.1702  0.0665 -0.1034
25144W        W40761   2.676   0.564   1.843 -0.3189 -0.3849  0.0260
25145W        W40762   8.671   0.775   6.412  0.0377 -0.0846 -0.2289
25146W        W40763  17.086   8.019   1.234 -0.0869 -0.1945 -0.1196
25147W        W40764   8.253   2.472  11.717 -0.0038  0.0510  0.0294
25148W        W40765  16.343  11.033   0.171 -0.1249 -0.2548  0.1562
25149W        W40766  10.090  10.710   0.460 -0.2671 -0.0130  0.0204
25150W        W40767   9.021  17.558  11.986 -0.0992 -0.2208  0.2381
25151W        W40768   3.410   1.798   6.143  0.2203  0.0171  0.2683
25152W        W40769   9.369   1.507   0.769 -0.2128 -0.0410  0.1250
25153W        W40770  10.027   9.468  15.490  0.0713  0.0760 -0.2226
25154W        W40771  16.115   6.013   0.160 -0.0207 -0.2642 -0.0711
25155W        W40772   1.886  12.957   3.669 -0.0562 -0.2026  0.3279
25156W        W40773   5.000  17.218  13.609  0.0539 -0.0102  0.3004
25157W        W40774   8.608   6.251   0.824  0.2033 -0.1019 -0.0462
25158W        W40775  14.123   5.519   3.591 -0.0048 -0.0908 -0.0002
25159W        W40776   0.144   5.057  16.814 -0.2519  0.1157  0.1414
25160W        W40777   2.756   2.480  14.221  0.0126 -0.0404 -0.0724
25161W        W40778   1.689   6.486   3.302 -0.2495  0.2741 -0.0657
25162W        W40779   3.762  14.878  11.747  0.1152  0.1320 -0.2384
25163W        W40780  14.117   9.051   1.555 -0.1402 -0.1366 -0.2859
25164W        W40781   7.124  13.848  13.118  0.2483 -0.2531 -0.0549
25165W        W40782  13.947   2.237  16.430 -0.3843  0.0282 -0.1051
25166W        W40783  15.509   7.659  13.217  0.1627  0.1816 -0.0155
25167W        W40784   4.551   6.147   2.737 -0.4845 -0.3045 -0.0326
25168W        W40785  13.131   4.050  13.931 -0.0639 -0.1728 -0.2276
25169W        W40786  15.215   5.855  15.023  0.0661  0.0175 -0.0811
25170W        W40787   7.280  15.841   2.856 -0.2443  0.0211 -0.1470
25171W        W40788   6.494  17.316  12.384 -0.1418  0.1930 -0.1087
25172W        W40789  11.701  11.146   1.122  0.0520 -0.0956  0.0530
25173W        W40790   4.025   4.081   4.194  0.2943  0.1780 -0.4406
25174W        W40791   1.310  13.358  15.851 -0.0067 -0.2612 -0.0480
25175W        W40792   7.919   0.944   0.633 -0.2809 -0.0460 -0.1215
25176W        W40793   9.421  12.322   2.753 -0.1736 -0.2373 -0.1993
25177W        W40794   8.823  15.155  12.307  0.2190  0.1242  0.1256
25178W        W40795   5.579  16.266   2.776 -0.1662 -0.1181 -0.2236
25179W        W40796  12.725  13.554   5.914  0.3958 -0.0508  0.2173
25180W        W40797  12.804  11.038   6.248 -0.1460 -0.1519 -0.3142
25181W        W40798  16.703  12.300   2.847 -0.1284  0.0450 -0.1569
25182W        W40799   4.379  10.922  16.153 -0.0343  0.2003 -0.1469
25183W        W40800  14.316   6.092   1.373  0.2497 -0.0044  0.1769
25184W        W40801   6.508   3.489  12.691  0.0491  0.3686  0.1451
25185W        W40802   7.629   3.331  15.178 -0.2925 -0.0501 -0.2755
25186W        W40803   0.053  16.599  14.546  0.0385 -0.2501  0.0662
25187W        W40804   9.776   6.972   2.877  0.0804  0.1868 -0.1647
25188W        W40805   5.961   6.930  16.815 -0.3769  0.3849 -0.0532
25189W        W40806  10.659   6.950   0.930  0.0967  0.1541  0.0811
25190W        W40807   1.010  12.421  16.207 -0.0465  0.1428  0.0340
25191W        W40808  16.309   1.244   2.279 -0.0501  0.4965 -0.0133
25192W        W40809   5.476  11.702   3.926  0.0494 -0.0659 -0.0746
25193W        W40810   5.119  17.774  15.096  0.2439  0.3845  0.1611
25194W        W40811   7.456   2.587  11.749 -0.0086  0.1887 -0.1688
25195W        W40812   8.327  17.481   0.888 -0.0389 -0.0088 -0.2040
25196W        W40813   5.940  15.963   5.145 -0.0515 -0.0921  0.0009
25197W        W40814  16.193   3.453   2.284  0.1274 -0.1873 -0.3209
25198W        W40815   0.269   2.555   3.892  0.0151  0.1692 -0.1697
25199W        W40816  12.404  15.827  14.618  0.0891  0.0085 -0.0756
25200W        W40817   1.240   6.630   0.681  0.0804 -0.0836  0.1356
25201W        W40818  13.908  10.764  15.748  0.2362 -0.0602 -0.0487
25202W        W40819   8.808   3.896  15.558 -0.1303 -0.2185 -0.0370
25203W        W40820   9.217   5.063  13.078  0.1418 -0.0962  0.0321
25204W        W40821  11.046  16.550  14.224  0.1953  0.0816  0.0688
25205W        W40822  16.264   0.985  14.971 -0.3741 -0.0247  0.0193
25206W        W40823   8.588   3.856   5.676  0.1479 -0.0481 -0.1900
25207W        W40824  14.220  11.495   4.138  0.0187  0.0951  0.0079
25208W        W40825   2.965   4.582  12.435 -0.1744  0.1238  0.2144
25209W        W40826   3.848   0.953   0.807 -0.1213 -0.0537 -0.1566
25210W        W40827  16.779  12.599   5.456  0.0586  0.0321  0.2278
25211W        W40828  14.037  15.438   2.757 -0.1463  0.0157 -0.0755
25212W        W40829   9.425   9.050   3.826  0.3950  0.3208  0.4742
25213W        W40830   6.870  11.824  11.167  0.1234 -0.1180  0.1375
25214W        W40831   7.366  11.480  16.576  0.1607  0.4984  0.2673
25215W        W40832   4.946  12.099  16.003 -0.1961  0.2465  0.0065
25216W        W40833   6.274  13.497   1.631  0.2772 -0.1230 -0.4219
25217W        W40834   7.638   3.369   4.035 -0.0728  0.0692  0.1654
25218W        W40835   2.247  15.384  15.115 -0.0407  0.0905  0.0587
25219W        W40836   9.050   7.182  12.157 -0.0854  0.3074  0.0395
25220W        W40837   5.770   6.708  13.697 -0.3387  0.1276  0.1658
25221W        W40838  14.666   2.409  12.241  0.2090  0.0865 -0.1211
25222W        W40839   6.991   4.564  13.283 -0.3832 -0.1065 -0.1461
25223W        W40840  17.636   2.755   5.358 -0.0635 -0.2676 -0.0040
25224W        W40841  15.693   8.128  13.079  0.2618  0.2068  0.0961
25225W        W40842  17.055  10.951  14.788 -0.0000 -0.4222 -0.1795
25226W        W40843   2.326   0.244   1.141  0.1161  0.0699  0.1342
25227W        W40844  14.201  14.130  14.654 -0.1238  0.0019 -0.1007
25228W        W40845   5.479  12.152   1.158 -0.1829  0.0570 -0.3594
25229W        W40846   1.986  10.828   0.364 -0.2545  0.2258  0.0411
25230W        W40847   1.556  10.077  15.007 -0.1114  0.2028 -0.1603
25231W        W40848  10.934   7.357  15.707 -0.0421 -0.3350  0.2973
25232W        W40849  13.088   8.011  16.088  0.0878  0.1533  0.1156
25233W        W40850  14.021  17.505  11.587 -0.2506 -0.0239  0.0031
25234W        W40851  14.040   4.021   2.519  0.0682  0.3347 -0.3642
25235W        W40852   8.704   5.688  14.059  0.0951  0.0971  0.2036
25236W        W40853   4.631  13.530  12.794 -0.1844 -0.0625 -0.3402
25237W        W40854   8.101   6.306   3.127 -0.2038 -0.0005  0.0477
25238W        W40855   7.181  12.322  15.859 -0.1928 -0.1734  0.0959
25239W        W40856   6.428  17.146  14.807  0.0660 -0.2733  0.2087
25240W        W40857  15.230   3.790  15.378  0.1157  0.1214  0.0012
25241W        W40858   9.368  10.201  12.191 -0.3928  0.0140  0.1915
25242W        W40859  16.060  11.119   5.025 -0.0982 -0.0630  0.1133
25243W        W40860   4.238   5.853   5.688 -0.1076  0.4984 -0.1793
25244W        W40861  17.577   7.696  16.725  0.0619  0.5163 -0.3505
25245W        W40862   2.566  11.828   5.298  0.1507 -0.0269 -0.1368
25246W        W40863   8.325  12.039   2.991  0.2710  0.1145  0.0037
25247W        W40864   7.759  15.266   0.013  0.2298  0.0556 -0.0781
25248W        W40865   1.370  11.587   2.917  0.1281  0.0539  0.1242
25249W        W40866   2.474   1.855  15.869  0.0256 -0.0740  0.1139
25250W        W40867   7.080   1.799   4.615 -0.0240 -0.1864  0.0982
25251W        W40868   7.777   2.133   4.101  0.2808 -0.1741  0.1909
25252W        W40869   7.781  14.942  11.741  0.2104 -0.0517 -0.0555
25253W        W40870  17.252   9.628   0.609 -0.4484  0.1513  0.2490
25254W        W40871  12.952   1.212   4.543  0.3043  0.0496  0.3157
25255W        W40872   7.924   8.772  16.367  0.0522  0.0361  0.0579
25256W        W40873   3.068  16.415  16.453  0.2483 -0.1096  0.2798
25257W        W40874  11.144  14.905  13.799 -0.3297  0.1221  0.0553
25258W        W40875   1.445  17.069  13.284  0.1975  0.0999  0.2432
25259W        W40876  16.521   4.311   0.009  0.3807 -0.2247 -0.1509
25260W        W40877  14.787  10.429  12.181 -0.0432 -0.2094 -0.2342
25261W        W40878  17.510  13.291   0.959  0.1685 -0.0202 -0.2505
25262W        W40879   5.802  12.356  13.491  0.1378 -0.0976  0.1532
25263W        W40880   2.585   5.486   0.772  0.0305  0.0434  0.0091
25264W        W40881   3.339   1.992  16.146 -0.3563 -0.0572  0.0484
25265W        W40882   4.804   6.299   3.640  0.2207  0.1254  0.4633
25266W        W40883  15.110   4.597  12.308  0.2382 -0.2987  0.1971
25267W        W40884   4.185  11.482   2.152  0.2452 -0.1326 -0.3788
25268W        W40885  15.216   1.039   2.669  0.0465  0.1381 -0.1823
25269W        W40886   2.641   1.447   0.397 -0.2177  0.0985 -0.0953
25270W        W40887  13.610  10.223  13.585 -0.2568  0.4249 -0.0107
25271W        W40888   4.732  10.384   0.793 -0.2529 -0.0734  0.0137
25272W        W40889   7.799   6.533   5.871  0.0576  0.2638  0.2155
25273W        W40890   1.716   9.728   4.202 -0.5651  0.2624  0.1176
25274W        W40891  14.570   2.953   0.386  0.3432 -0.2102 -0.1948
25275W        W40892  14.882   6.146   2.135 -0.1835  0.1242  0.0949
25276W        W40893   1.790  11.888  16.175 -0.0071  0.0283  0.1096
25277W        W40894   8.839   0.519  15.069  0.3777  0.0946 -0.0205
25278W        W40895  15.642   6.990   2.052  0.2225 -0.2426 -0.1868
25279W        W40896   6.615  15.828  12.756 -0.0656 -0.1728 -0.0148
25280W        W40897  15.219  11.162   0.617 -0.1035 -0.2797  0.0434
25281W        W40898   7.275  14.593  16.769 -0.0740 -0.2820  0.0539
25282W        W40899   6.815   5.781  12.351  0.0639  0.2416  0.0695
25283W        W40900  16.135   6.994   2.087  0.2413 -0.2473  0.0211
25284W        W40901   2.315  13.318  15.700  0.1141  0.3085  0.1854
25285W        W40902   8.016  15.641  14.595  0.0992  0.3078  0.3274
25286W        W40903   4.279  13.994   3.487 -0.2520 -0.0229 -0.0464
25287W        W40904   5.591   0.905  16.764 -0.2022 -0.1138 -0.1227
25288W        W40905  11.158  15.098   5.999 -0.3125  0.0689  0.0339
25289W        W40906  10.446  16.355  12.931 -0.0845 -0.1447  0.2220
25290W        W40907   2.649   0.599  14.530  0.0879  0.1053 -0.0377
25291W        W40908   7.865  15.202   3.233  0.1760  0.1337 -0.0998
25292W        W40909   1.723   1.352  15.976  0.0617  0.0243 -0.1995
25293W        W40910   3.697   1.463   5.345  0.1227  0.0452 -0.0122
25294W        W40911  16.784  12.213  16.611  0.0899  0.2846  0.0016
25295W        W40912  15.282   1.918   0.156  0.0475  0.6304 -0.0762
25296W        W40913   1.709   5.096   4.081  0.1432  0.3002  0.0560
25297W        W40914   9.947   9.804   0.891 -0.2162  0.1388 -0.1398
25298W        W40915   5.387   1.205  13.597  0.0326  0.0172  0.3168
25299W        W40916   7.441   1.567  10.684  0.1771 -0.0896 -0.0543
25300W        W40917  15.603   2.212   4.141  0.0957 -0.1455  0.2263
25301W        W40918  13.467   8.915   2.580  0.4377 -0.2268 -0.0862
25302W        W40919  10.625   4.490   3.117 -0.2969  0.1746  0.0374
25303W        W40920   9.792   9.397   3.828 -0.0423  0.0870  0.1311
25304W        W40921   1.685   1.357   2.480  0.1084 -0.2252 -0.2341
25305W        W40922   3.897   6.691   0.620 -0.0198 -0.0254  0.2814
25306W        W40923   5.890   4.911   4.191 -0.0293 -0.0374 -0.2991
25307W        W40924  11.616   2.534   6.191 -0.0639 -0.2334  0.0416
25308W        W40925   9.240   7.585   3.775 -0.0069  0.1676  0.1096
25309W        W40926   6.260  14.593  15.683  0.1247  0.1407  0.1129
25310W        W40927   0.829   5.521  15.815 -0.1995  0.0613  0.1690
25311W        W40928   1.253  14.898   3.930 -0.0565 -0.0248 -0.1913
25312W        W40929   2.397  17.328   5.154 -0.2349  0.0762  0.2335
25313W        W40930   5.605   4.522  15.187 -0.0105  0.0391  0.1583
25314W        W40931   0.777  11.213   3.185  0.3451 -0.1749  0.0312
25315W        W40932  14.901  10.016   1.902  0.2564  0.2511  0.0912
25316W        W40933   2.442   5.929  13.568 -0.3846 -0.2932  0.1241
25317W        W40934   8.117  13.728   0.849 -0.0731  0.0069  0.1452
25318W        W40935   3.890   5.888   2.335  0.0467 -0.2095  0.3045
25319W        W40936  11.485  12.254   3.908 -0.0319 -0.2937 -0.1239
25320W        W40937  12.944  10.870   0.852  0.2148  0.1130 -0.0762
25321W        W40938  16.841   2.426  14.425 -0.1048  0.0339 -0.1743
25322W        W40939   3.001   6.500  15.163 -0.1116  0.0454  0.0995
25323W        W40940   4.038   2.622  16.483  0.0427  0.0295  0.0941
25324W        W40941   2.496  14.965   6.164  0.0620 -0.0155 -0.1773
25325W        W40942   1.221  10.139  16.506 -0.1322 -0.1066  0.0534
25326W        W40943  11.582  16.336   4.710  0.2093  0.0190 -0.1426
25327W        W40944  14.849   4.618   2.753  0.1320  0.0674  0.0910
25328W        W40945  17.808  12.929  11.555 -0.1381  0.1373  0.0830
25329W        W40946   2.169   0.416  12.463  0.0997 -0.0923  0.1388
25330W        W40947   8.392   2.024   0.105 -0.0438 -0.0814 -0.0790
25331W        W40948  15.131  11.920  14.749  0.2614 -0.0332 -0.1137
25332W        W40949   5.862   7.180  13.868 -0.3931  0.0704 -0.1455
25333W        W40950   6.243   7.226   4.720  0.1330  0.0037  0.3876
25334W        W40951   7.864   8.991   0.115 -0.0095 -0.2350 -0.0376
25335W        W40952   7.182   9.199   1.543 -0.2068  0.0963  0.1329
25336W        W40953  10.204  10.017  12.417 -0.0731  0.0876  0.0145
25337W        W40954   8.274   6.250  16.707 -0.0011  0.3251 -0.1903
25338W        W40955  11.591   5.128   3.218  0.0927 -0.5123 -0.0011
25339W        W40956  10.064   1.417   3.997 -0.1596  0.0625 -0.1042
25340W        W40957  13.230   5.461   0.655  0.0134 -0.3908  0.0982
25341W        W40958   8.712   0.117   4.731  0.0897 -0.1062 -0.0098
25342W        W40959  13.709  15.934  11.304 -0.1690 -0.0383 -0.1821
25343W        W40960   5.094   8.162  15.698 -0.1425  0.2186  0.1772
25344W        W40961  16.696   6.992   3.851  0.2298  0.1242 -0.1886
25345W        W40962   5.876   6.575   4.937  0.0365  0.1150 -0.4427
25346W        W40963  15.458   1.389   3.887 -0.1052  0.1929  0.0392
25347W        W40964  14.901  13.778  13.220  0.3056 -0.1201 -0.0098
25348W        W40965  14.390   9.537   3.498 -0.2787 -0.1446  0.1077
25349W        W40966   8.090   4.111   0.755  0.1950  0.0697 -0.0005
25350W        W40967   3.094   0.529  12.418  0.1444  0.2524  0.3962
25351W        W40968  10.636  12.816   2.771  0.0319 -0.1264 -0.0085
25352W        W40969   8.166   6.869   5.715  0.0548 -0.0922 -0.1639
25353W        W40970   7.522   8.701  13.157 -0.1021 -0.0243 -0.1643
25354W        W40971  13.761  17.481  16.291  0.1761 -0.0740 -0.1456
25355W        W40972   7.542   3.684  14.358 -0.0093  0.0466  0.4803
25356W        W40973   2.867  13.054  15.458 -0.1659 -0.1849 -0.1174
25357W        W40974  10.139  12.863  14.063 -0.3798  0.0422 -0.3772
25358W        W40975   8.928  17.256   4.134  0.2432 -0.0572 -0.0122
25359W        W40976  16.934  13.353  14.931  0.1820  0.0235  0.3426
25360W        W40977   1.240   9.072  16.455  0.0401  0.1032  0.1999
25361W        W40978  17.395   8.396   0.950 -0.0828  0.1092 -0.3238
25362W        W40979  15.656   1.188  16.191 -0.2350 -0.0593 -0.3830
25363W        W40980  11.711  10.145   3.101  0.1524  0.3887 -0.3855
25364W        W40981  10.250   3.195   4.871  0.1654 -0.0427  0.1282
25365W        W40982   5.210   6.505  11.664 -0.2959 -0.0725  0.2714
25366W        W40983   1.890   7.432  14.979 -0.2902 -0.0609  0.1475
25367W        W40984   4.406   4.261   4.474  0.1577  0.0863 -0.2287
25368W        W40985  10.117   2.037   4.032  0.0005 -0.4902  0.0233
25369W        W40986   7.169  11.965   3.507  0.0236 -0.0995 -0.0331
25370W        W40987   5.175   5.738  13.431 -0.2869  0.1945  0.3946
25371W        W40988  11.846  15.139   4.091 -0.2981  0.0812 -0.2004
25372W        W40989   6.213   7.971  13.670 -0.3626 -0.0338  0.1292
25373W        W40990   0.238  12.640   5.432 -0.0601  0.1768 -0.0141
25374W        W40991   4.502  13.407  15.312 -0.3988 -0.0568  0.2526
25375W        W40992  11.239  10.766  12.614 -0.1292  0.2548  0.2437
25376W        W40993  11.262   5.915  15.474  0.3699 -0.1346  0.2769
25377W        W40994  17.320  12.742  11.300  0.2361 -0.1121  0.0874
25378W        W40995  13.433   0.594  13.888  0.3217 -0.0800  0.0137
25379W        W40996   0.874   6.805   1.892  0.3502  0.1256 -0.2201
25380W        W40997   3.485  11.199  16.369  0.0442 -0.0488  0.1248
25381W        W40998   5.810  17.473   1.069  0.3320 -0.1126  0.0674
25382W        W40999  13.563  13.280  16.758  0.2164 -0.0012 -0.1827
25383W        W41000  14.240  16.028   5.793  0.1797  0.2693  0.0597
25384W        W41001  11.665   5.583  15.430  0.0253 -0.0388  0.0978
25385W        W41002   0.550   0.552   1.088  0.0078 -0.4222 -0.1153
25386W        W41003   2.346  16.363  15.529  0.0906 -0.2007 -0.0864
25387W        W41004   9.246  11.003  12.784 -0.0767  0.0168  0.1315
25388W        W41005   0.009  14.313   2.249 -0.1322 -0.3121 -0.1091
25389W        W41006   3.715   3.156  16.462 -0.0075  0.0133 -0.1693
25390W        W41007   6.747  10.540   2.414  0.0584 -0.0085  0.1835
25391W        W41008   8.199  16.194   5.021 -0.1585 -0.0097 -0.1358
25392W        W41009  17.257   1.366  13.320 -0.0361 -0.1881  0.0863
25393W        W41010  14.489   5.342  14.497 -0.2025  0.3289 -0.0714
25394W        W41011  14.740   0.453   5.147  0.1026  0.0155 -0.1427
25395W        W41012  13.631   5.681   3.405  0.2237  0.1224 -0.1714
25396W        W41013  11.992  10.995   5.182 -0.2840 -0.0902  0.0730
25397W        W41014   1.885  12.968   5.582  0.1598 -0.0207 -0.0334
25398W        W41015  17.848   8.634  14.411  0.3004  0.0122 -0.2830
25399W        W41016  11.746  10.467  12.611  0.1052  0.1893 -0.0354
25400W        W41017   8.388   2.005  12.772  0.1805  0.1957 -0.0537
25401W        W41018  13.127  10.397   5.578  0.1359 -0.0280 -0.0778
25402W        W41019   9.095   1.945   1.389 -0.2076  0.1009 -0.5170
25403W        W41020  16.406  14.537   3.298  0.1713 -0.2174 -0.3049
25404W        W41021   0.748   6.923  13.373 -0.0970 -0.2087 -0.2561
25405W        W41022  15.570  15.776   0.676 -0.2502 -0.0613  0.1035
25406W        W41023   9.128   4.715   5.664 -0.0743  0.2919 -0.1863
25407W        W41024   0.422  16.103  12.778  0.2339  0.3500 -0.0447
25408W        W41025   5.280   0.475  12.699  0.2087 -0.1925 -0.0838
25409W        W41026  11.760   1.431   4.813  0.1864  0.0769  0.1442
25410W        W41027   8.581  17.227   0.525 -0.0973  0.0743 -0.0381
25411W        W41028  14.810   4.290   5.600 -0.1863  0.1643 -0.1781
25412W        W41029  12.241   6.036  14.527  0.0256  0.0593 -0.2594
25413W        W41030   0.960  16.835  15.950  0.0671  0.0771 -0.2816
25414W        W41031   8.682   1.792   0.460 -0.1190  0.0879 -0.1981
25415W        W41032   1.703   1.184  13.758 -0.1053 -0.1378  0.0102
25416W        W41033   1.739  17.122   1.668  0.0378  0.1904 -0.0548
25417W        W41034  11.404   6.179   5.136 -0.0244  0.1117 -0.1689
25418W        W41035  13.682   5.656  13.167 -0.0158 -0.2816 -0.0168
25419W        W41036   9.360  10.337   1.851 -0.0819  0.0780 -0.1614
25420W        W41037  16.216   8.791   5.070  0.0672  0.1076 -0.0031
25421W        W41038   2.303   8.425   0.934 -0.2429  0.0355  0.1733
25422W        W41039  13.298   2.576  15.065  0.0253  0.0990  0.2327
25423W        W41040   7.334  13.805   5.832  0.1390 -0.0332  0.0360
25424W        W41041   9.606   3.207   4.856 -0.3656 -0.1921 -0.2269
25425W        W41042  17.661   5.896  14.547  0.0275  0.0897  0.1172
25426W        W41043  14.968   3.584   0.891  0.1289 -0.0291 -0.0297
25427W        W41044  11.390   5.468   2.933 -0.0556  0.2717 -0.1068
25428W        W41045  17.836   9.234  12.559  0.1628 -0.3792 -0.0678
25429W        W41046   2.930  14.109  13.481  0.1010 -0.1863 -0.3911
25430W        W41047  16.446  13.773  16.389  0.3306  0.0992 -0.1011
25431W        W41048   1.114   9.700   4.870  0.2073 -0.1926  0.2711
25432W        W41049  16.525  11.666  13.305 -0.2862  0.0465 -0.4740
25433W        W41050   9.598  13.719  16.774  0.3137 -0.1383  0.4392
25434W        W41051  16.974  11.919   2.672  0.1726 -0.1998 -0.0469
25435W        W41052  13.160  13.634  15.749 -0.0320  0.2250 -0.2166
25436W        W41053  16.187   0.503   3.638  0.1786 -0.1595  0.0696
25437W        W41054   1.330  13.896  15.537 -0.2432  0.1813  0.2477
25438W        W41055   7.608  10.854   6.016 -0.5199 -0.0678  0.0482
25439W        W41056   8.346   1.943   1.680  0.2639 -0.2624 -0.1172
25440W        W41057   3.887   8.243  14.195  0.0007 -0.0589  0.2007
25441W        W41058   8.290  12.925   4.945 -0.1651  0.2453 -0.1043
25442W        W41059  15.538  17.509  14.097  0.1827 -0.1328 -0.2762
25443W        W41060  14.167  14.426  15.152 -0.0331  0.0697 -0.1205
25444W        W41061   7.416   5.263   3.468 -0.1118 -0.2888 -0.0014
25445W        W41062  15.086   3.112   3.439  0.1878  0.2552 -0.0275
25446W        W41063   6.087   1.459   0.266  0.0570  0.1938 -0.2020
25447W        W41064   7.636   8.140   2.792  0.1725  0.2834 -0.0105
25448W        W41065  14.238   6.593  15.947 -0.1938 -0.0375 -0.1146
25449W        W41066  14.529  11.882   3.862 -0.1161 -0.0707  0.1202
25450W        W41067  10.207   0.228  11.553 -0.0725 -0.0774  0.1784
25451W        W41068  10.783  11.919  13.775 -0.2331  0.0582  0.2743
25452W        W41069  13.235   3.844   3.979 -0.0475  0.3295  0.3498
25453W        W41070   8.420   2.949  11.767 -0.0503  0.0591  0.0022
25454W        W41071   7.586  17.769   4.895  0.1730  0.1002  0.2916
25455W        W41072  13.572   1.943  12.518  0.4378 -0.0368  0.0821
25456W        W41073   7.160  10.701  14.281 -0.0824  0.1946 -0.0078
25457W        W41074  10.910   2.825   4.283 -0.0840 -0.2809 -0.0150
25458W        W41075   7.603  10.618  14.086 -0.2338 -0.3551 -0.0837
25459W        W41076   5.689   5.128   5.280  0.0107 -0.1657 -0.2452
25460W        W41077   3.476   7.748   0.497  0.0483 -0.3531  0.0187
25461W        W41078   2.486   4.214   6.442  0.0661 -0.1850 -0.1220
25462W        W41079  16.316  12.411  16.783  0.1334 -0.3375  0.1787
25463W        W41080   6.160   0.399  12.378 -0.0057 -0.3126  0.1569
25464W        W41081  14.366   5.442  11.917  0.2367 -0.0501 -0.0000
25465W        W41082   6.274   3.056   1.369 -0.0417 -0.0819  0.0219
25466W        W41083  12.222   4.452   5.593  0.0768 -0.2338  0.3437
25467W        W41084   6.818  14.869   3.499  0.0947  0.3432 -0.0510
25468W        W41085  14.939   2.025   4.843  0.0264 -0.0504  0.0517
25469W        W41086   0.512   8.284   0.327 -0.1130  0.0785 -0.0004
25470W        W41087  12.353  11.662  15.863  0.3304 -0.0406  0.0953
25471W        W41088  12.827   7.803  13.848  0.2599  0.1205  0.0783
25472W        W41089  14.476  16.005  16.749  0.2481  0.2127  0.1501
25473W        W41090   5.697  16.034  15.619 -0.1586 -0.0051 -0.2796
25474W        W41091  17.098   4.733   3.014 -0.1556  0.1182  0.0160
25475W        W41092   0.729   0.579   0.070 -0.0493 -0.0034 -0.1645
25476W        W41093  15.778   1.735   0.983 -0.1093 -0.0016 -0.2586
25477W        W41094  16.049  12.977   6.081  0.1444  0.1836 -0.0485
25478W        W41095  16.396   3.028   2.224 -0.0337 -0.0235 -0.0977
25479W        W41096   8.312   8.802   0.286  0.1236  0.1930  0.1526
25480W        W41097   1.138   2.431   1.197 -0.1931  0.0357 -0.2383
25481W        W41098  14.723   9.063  14.323 -0.0200  0.0533  0.0719
25482W        W41099  15.099   9.874  14.358  0.0298  0.0819  0.0261
25483W        W41100  10.696  10.831   6.056 -0.0473 -0.0629  0.0766
25484W        W41101   5.854  15.485  11.372  0.3216 -0.0665  0.0207
25485W        W41102   8.376  11.049  11.941 -0.1934  0.1941  0.1025
25486W        W41103   4.298   5.950  13.362  0.3867 -0.0092 -0.1602
25487W        W41104   6.726   0.899  14.799 -0.2143  0.0602  0.0276
25488W        W41105  17.338   8.951   0.173 -0.0864  0.0819 -0.0102
25489W        W41106   3.566   6.116  13.577 -0.0370 -0.2184 -0.0939
25490W        W41107  15.857  17.130  13.934 -0.1394  0.2755  0.0905
25491W        W41108  10.021   2.449  14.539  0.2124  0.2504  0.0091
25492W        W41109  11.040   2.939   0.082 -0.0439  0.1493 -0.1048
25493W        W41110  16.519  10.030  15.829  0.0730 -0.2844 -0.2164
25494W        W41111   6.931   5.470   2.045 -0.2030  0.0539 -0.1483
25495W        W41112   9.867   4.488  16.551 -0.3354 -0.1825  0.1934
25496W        W41113   3.684  16.041   2.694  0.1621 -0.0313  0.2431
25497W        W41114   2.523  16.166   0.363 -0.1279  0.2420 -0.1167
25498W        W41115   2.903   5.069   0.532  0.1748  0.0457 -0.0435
25499W        W41116  14.719  16.501  16.816  0.2366  0.2730 -0.0825
25500W        W41117  13.269  17.195  16.779 -0.3042  0.0877 -0.1120
25501W        W41118  14.423   4.960   0.555  0.2346  0.1548 -0.3152
25502W        W41119  15.408   1.974   3.114  0.0374  0.1401 -0.1975
25503W        W41120  14.955  12.406  11.618 -0.0205  0.3114  0.0135
25504W        W41121   3.395   3.619   0.167 -0.3383 -0.4406 -0.3167
25505W        W41122   9.427  16.748   2.793 -0.2945 -0.0520  0.0773
25506W        W41123  17.686  10.553   4.206 -0.0867  0.1117 -0.0425
25507W        W41124  14.544  12.353   5.389 -0.0129  0.0807  0.2006
25508W        W41125  12.499  17.361  10.671 -0.4170  0.0993  0.3158
25509W        W41126  15.325   8.167   3.750  0.1742  0.1245  0.0010
25510W        W41127  10.119  14.107   5.393 -0.4067 -0.2954  0.2076
25511W        W41128   0.265   8.479   4.823 -0.2487  0.0710 -0.0834
25512W        W41129   7.933   8.089   4.552  0.2097 -0.0789  0.3557
25513W        W41130  15.232   6.549   1.460  0.0858 -0.0636 -0.0294
25514W        W41131  14.499   2.660  15.778  0.1291  0.2732  0.4582
25515W        W41132   3.496   5.958   5.592  0.3870  0.1920  0.1188
25516W        W41133  12.261   8.473   3.672 -0.2453 -0.1614 -0.1652
25517W        W41134   6.371   7.873   3.836  0.0324  0.1371 -0.0558
25518W        W41135  13.315   1.059  14.575 -0.0238 -0.3574  0.0008
25519W        W41136  12.993  14.496   2.563 -0.0027 -0.4202  0.1006
25520W        W41137  13.775   9.931   1.130  0.0775 -0.1918  0.2136
25521W        W41138   2.060   5.574  13.794  0.0736  0.1788 -0.0646
25522W        W41139  12.902   8.585   6.499 -0.1320  0.0056 -0.0354
25523W        W41140   5.578   3.554   1.538  0.0862 -0.1475 -0.0350
25524W        W41141  10.973  11.594   2.704 -0.1843 -0.0634 -0.0120
25525W        W41142   8.574  11.774   1.318 -0.1851  0.0386  0.0780
25526W        W41143   8.769  13.622  13.050 -0.0008  0.2130  0.0054
25527W        W41144   3.899  11.044  14.851 -0.0333 -0.0020 -0.1784
25528W        W41145  10.300  13.784  13.835  0.0513 -0.0716 -0.0849
25529W        W41146   8.058   2.976  14.573  0.0692 -0.2357  0.1005
25530W        W41147  10.826  13.017  11.957  0.0580 -0.2253 -0.1952
25531W        W41148  12.013   8.914  14.801  0.0315 -0.0814  0.1473
25532W        W41149  12.033   1.773   3.721  0.1175 -0.1129  0.0516
25533W        W41150   8.917   4.667  13.652 -0.3011 -0.4398 -0.2154
25534W        W41151   2.785  13.088  10.636  0.2130 -0.0038 -0.0450
25535W        W41152   1.971  13.967  11.783  0.0414 -0.1829 -0.1537
25536W        W41153   6.271   4.044  14.098 -0.0497 -0.1061 -0.2507
25537W        W41154   2.681   4.978   3.406 -0.3527 -0.0362 -0.1922
25538W        W41155   6.456  17.800   5.571  0.0635 -0.0030 -0.2104
25539W        W41156  17.644   9.828   3.949  0.2534  0.1711 -0.3467
25540W        W41157  11.393   6.631  14.590 -0.0995  0.3501  0.0861
25541W        W41158   7.191   0.959  14.564 -0.2450  0.1120  0.0989
25542W        W41159   6.977   7.838   3.218  0.0514  0.0075 -0.0549
25543W        W41160   1.369   1.165  15.139  0.0079  0.0188 -0.1393
25544W        W41161   6.806  16.776   1.674  0.1651  0.1124  0.0702
25545W        W41162   2.598  10.839   2.737  0.2597  0.0123 -0.0614
25546W        W41163  14.321  11.005   1.707  0.0852 -0.1171  0.0772
25547W        W41164  16.909   3.702  14.312 -0.0658 -0.0653  0.1577
25548W        W41165   5.258  11.029   5.032  0.0099 -0.5335  0.2053
25549W        W41166  16.775   5.046  16.301  0.0932 -0.1602  0.2089
25550W        W41167  15.214   5.247   1.647 -0.0852  0.2768  0.0173
25551W        W41168   3.366  13.271  14.573  0.1503 -0.0183 -0.1839
25552W        W41169   7.819  16.657   2.552 -0.1993 -0.0659  0.3080
25553W        W41170  14.335   8.115   2.709  0.1669 -0.1610  0.0031
25554W        W41171   9.648   1.740   5.265  0.3010  0.2881 -0.1794
25555W        W41172  16.743   6.228   1.849 -0.2833  0.1734 -0.3114
25556W        W41173   6.374  10.372   1.515 -0.4040 -0.1033  0.1385
25557W        W41174   0.090   5.530  16.579  0.0743 -0.0049 -0.1546
25558W        W41175   9.676   5.090  12.843  0.1415 -0.2689  0.3258
25559W        W41176   6.963  16.632  11.791 -0.3317 -0.0179  0.2618
25560W        W41177  11.727  14.971   4.877 -0.0921 -0.0767 -0.0475
25561W        W41178   5.848   1.545   6.351 -0.0334  0.1513  0.1981
25562W        W41179   7.117  10.074  11.660 -0.0686  0.1434 -0.0008
25563W        W41180  12.437   0.896  12.118  0.2463  0.0024  0.0319
25564W        W41181   9.284   4.270  10.787 -0.0099  0.0734 -0.1347
25565W        W41182   1.420   0.843  11.694 -0.3300 -0.1521  0.0500
25566W        W41183  10.038  11.704  14.527  0.3210  0.2012  0.0321
25567W        W41184  17.744  16.501  15.556 -0.1541  0.0324  0.2359
25568W        W41185   3.440   4.317  12.438 -0.1963 -0.2052  0.1952
25569W        W41186   9.430   3.854   5.221 -0.2099 -0.0667 -0.1869
25570W        W41187  17.199   2.562   1.968  0.1908 -0.2723  0.1989
25571W        W41188   9.297  12.732  11.608 -0.3129 -0.0375  0.2650
25572W        W41189   3.251  12.076  12.602  0.0476  0.0138  0.5104
25573W        W41190  15.042  15.951   0.602 -0.0824 -0.0048 -0.2218
25574W        W41191   9.980  16.064  16.117  0.0306 -0.1356  0.2147
25575W        W41192  10.315  10.510   6.295 -0.1126  0.1266 -0.0614
25576W        W41193   8.598   5.828  15.088 -0.2105 -0.1819  0.1306
25577W        W41194   2.459  12.085   6.332  0.0200 -0.3520  0.1940
25578W        W41195   6.412  17.280   2.610  0.4630  0.1852  0.0432
25579W        W41196  17.384   5.814   3.398 -0.2144 -0.0474 -0.2480
25580W        W41197   8.468   3.576   3.070 -0.1052  0.1944  0.0307
25581W        W41198   7.812   1.711   3.377 -0.1573  0.0478  0.3366
25582W        W41199  13.481   1.159  11.442  0.3077  0.4690  0.1724
25583W        W41200   1.162   9.956  14.007 -0.2474  0.1586  0.0313
25584W        W41201   5.592   0.495  12.272 -0.1299 -0.4834  0.3150
25585W        W41202   6.148   9.296   1.291 -0.0769  0.3288 -0.1545
25586W        W41203   9.846  11.406   3.013  0.1604 -0.0645 -0.0167
25587W        W41204   4.063  12.765  13.755 -0.1045  0.0520  0.1362
25588W        W41205  11.469   1.239   1.404 -0.1613  0.0777 -0.0867
25589W        W41206  14.258   3.530   0.202 -0.0631  0.0193 -0.0613
25590W        W41207  12.373   3.256   1.174  0.1068  0.0867  0.1467
25591W        W41208   8.373  12.011   3.779 -0.0742 -0.2975  0.1032
25592W        W41209   9.470  13.751   1.379 -0.3207  0.2141 -0.2069
25593W        W41210   2.950   6.803   4.379 -0.1459  0.1735 -0.0171
25594W        W41211  11.574  15.809  12.492  0.1221  0.0729  0.2262
25595W        W41212   9.869   3.056  16.040  0.0666  0.0085  0.1457
25596W        W41213  15.579  12.955   1.516  0.1243 -0.1148 -0.1803
25597W        W41214   4.483  10.733  12.598 -0.2576 -0.0810  0.0663
25598W        W41215   2.886  16.234  12.265  0.0739  0.1772  0.1061
25599W        W41216   0.555   9.496   2.052 -0.0264  0.1346  0.1647
25600W        W41217  10.165  13.278   1.644  0.0680  0.0091 -0.2053
25601W        W41218   9.349   2.501  16.204  0.2759  0.2560 -0.1827
25602W        W41219   2.298   2.808  15.191  0.1338 -0.1441  0.0207
25603W        W41220  10.292   5.349  13.085 -0.1652  0.2327 -0.2531
25604W        W41221  11.863   3.399   0.166  0.3341 -0.0914  0.2711
25605W        W41222   5.981  17.429  11.397 -0.0625 -0.0078  0.0042
25606W        W41223   3.214   9.723   5.070  0.2091  0.3309 -0.0909
25607W        W41224   9.321   5.846   2.809 -0.0832 -0.0281  0.4326
25608W        W41225   2.235  15.347  14.196 -0.0886  0.1085 -0.0868
25609W        W41226  11.382   0.921  16.335  0.0444  0.1754 -0.2131
25610W        W41227   1.673   7.289   5.011  0.0514 -0.1521  0.0079
25611W        W41228   6.010   3.500  15.720 -0.0225 -0.4303 -0.2032
25612W        W41229  14.402  17.155   6.040 -0.0269  0.3777  0.0113
25613W        W41230   7.593   7.898   4.884 -0.2647  0.0296  0.1660
25614W        W41231   2.998  15.475  11.032 -0.2708 -0.0063  0.0050
25615W        W41232   7.885   3.562   1.539  0.1540  0.1156 -0.2118
25616W        W41233   3.783  14.522   0.385  0.0156  0.2957  0.1133
25617W        W41234  10.877   6.704   4.656  0.2117  0.0533  0.5033
25618W        W41235   4.126  17.403  15.883 -0.0488 -0.1414 -0.2036
25619W        W41236   4.575   6.815   3.654 -0.0272  0.1821 -0.0039
25620W        W41237   3.357  14.643  15.040 -0.5248 -0.0801  0.2433
25621W        W41238  14.063  12.495  12.513 -0.2209 -0.1537 -0.0189
25622W        W41239   1.958   1.386  16.477  0.1480  0.0883 -0.1897
25623W        W41240   9.685  13.837  15.412 -0.0715 -0.3285  0.1699
25624W        W41241   5.808   2.001  10.683  0.3631 -0.0202 -0.0592
25625W        W41242   7.311   0.382  14.799  0.2253  0.1975  0.1934
25626W        W41243   3.895   3.767  13.662  0.1728 -0.3049  0.2761
25627W        W41244  10.926  12.028   0.105 -0.0669 -0.2655 -0.3073
25628W        W41245  12.202   4.135   0.031 -0.1185 -0.2975 -0.0381
25629W        W41246   1.818  13.154   6.044 -0.1521  0.2442  0.1231
25630W        W41247   5.333   0.931   5.108  0.0455  0.3816 -0.1858
25631W        W41248   7.308  14.661   1.174 -0.0901  0.2633 -0.0732
25632W        W41249   1.309  16.681  13.984 -0.1695 -0.0423  0.1067
25633W        W41250   2.567   0.168   3.563 -0.0813  0.0638  0.2337
25634W        W41251  17.788   8.200   4.313  0.1750  0.0397  0.0929
25635W        W41252  15.918   9.615   1.205 -0.3074 -0.1846 -0.0950
25636W        W41253  15.924   3.203   0.637 -0.0699  0.2005 -0.4687
25637W        W41254  16.872   7.585  13.919 -0.1823 -0.0647 -0.1273
25638W        W41255   8.994   3.133   6.225 -0.0977  0.2392  0.0132
25639W        W41256   4.068  13.163  16.810  0.0014 -0.0633 -0.3047
25640W        W41257   4.653   2.387  14.421  0.2283 -0.1709 -0.2301
25641W        W41258  15.534   1.135  14.191 -0.1716  0.4071 -0.1272
25642W        W41259   7.397  13.458   0.905  0.0823 -0.0471 -0.0488
25643W        W41260  14.732   5.239   0.333  0.3461 -0.3069  0.0063
25644W        W41261  13.797  10.239   2.000 -0.0411 -0.0277  0.0870
25645W        W41262  11.361  10.577   4.777  0.0010 -0.1097 -0.0056
25646W        W41263   9.631   7.911  12.532 -0.1730  0.0836  0.1630
25647W        W41264   6.194   6.343   1.180 -0.2739  0.0963  0.2773
25648W        W41265  12.564  14.742   2.253  0.1235  0.0923  0.0618
25649W        W41266  16.180   6.690   1.164 -0.0722 -0.1488 -0.3043
25650W        W41267  16.128  12.335   4.395  0.0939  0.3807 -0.1300
25651W        W41268  17.365   3.710   4.981  0.2378  0.3922  0.1763
25652W        W41269  12.846  14.931   2.650  0.1976  0.0659  0.4476
25653W        W41270  17.778   6.428   5.699 -0.0910 -0.4169  0.2085
25654W        W41271   6.576   0.289   1.072 -0.0383  0.0528  0.0626
25655W        W41272   2.253   7.381   4.028  0.1685 -0.1935 -0.0097
25656W        W41273   7.090  17.059  12.972 -0.1816  0.2517  0.0178
25657W        W41274  17.070   7.189   3.647  0.1620 -0.0319 -0.1795
25658W        W41275   9.713   1.753   2.882 -0.3600  0.0976 -0.0173
25659W        W41276  14.765  10.989   3.961 -0.1184 -0.0344 -0.2243
25660W        W41277  15.539   1.975  16.592 -0.0302 -0.1492 -0.0747
25661W        W41278   2.857  16.619  14.050 -0.1583  0.0685  0.1293
25662W        W41279  10.732  16.426   2.903  0.2557  0.1191  0.2528
25663W        W41280   0.918   2.005   2.034 -0.0008  0.0686  0.0494
25664W        W41281  17.225  13.832   5.551  0.2203  0.0890 -0.1650
25665W        W41282   6.878   4.707  14.292 -0.2093 -0.0110  0.2306
25666W        W41283   9.045   6.529   5.292  0.0448  0.2759  0.1830
25667W        W41284  10.363  13.792   4.086 -0.1421 -0.2321  0.2308
25668W        W41285  13.170   8.329   5.307  0.1536  0.1640  0.1440
25669W        W41286  15.602   2.223   5.666  0.0876  0.0943 -0.2321
25670W        W41287   4.167   7.036  15.845  0.0326 -0.5209  0.0127
25671W        W41288   3.210  16.765   5.438 -0.0982 -0.1275 -0.1316
25672W        W41289  14.038   7.749   3.523 -0.0505 -0.0086 -0.1053
25673W        W41290   0.925  11.131   5.883  0.0784 -0.1885 -0.0988
25674W        W41291   1.015   2.472   5.432  0.0084  0.1597  0.0527
25675W        W41292  10.958   3.970   2.136 -0.0441  0.2375 -0.2802
25676W        W41293  11.034   3.370   0.550  0.0972 -0.1931  0.2115
25677W        W41294   3.654   9.861  15.243  0.0442 -0.0761  0.0123
25678W        W41295  15.991  15.698   1.414 -0.0460 -0.1284 -0.0026
25679W        W41296  14.747  16.020   4.779 -0.0956 -0.2083 -0.3784
25680W        W41297   9.323   4.070  12.718 -0.0534  0.1503 -0.0604
25681W        W41298   2.593   8.001   1.815 -0.2002 -0.0544  0.1288
25682W        W41299   8.463  13.124  14.750  0.1084  0.1341 -0.0841
25683W        W41300   5.397  11.966   5.265 -0.0298  0.2242 -0.4630
25684W        W41301  15.621  13.829  15.661 -0.0806 -0.0452 -0.0143
25685W        W41302   9.114   9.186  15.011  0.0040  0.0114 -0.2224
25686W        W41303   1.607   3.759  14.785  0.0434 -0.0217  0.2194
25687W        W41304  15.168   6.411  12.458  0.1258 -0.0154 -0.1814
25688W        W41305  15.436  14.404  13.792  0.3747  0.1604  0.1010
25689W        W41306   5.181  11.470   4.313  0.2245 -0.0373 -0.2066
25690W        W41307  11.701   0.810  12.221  0.1322  0.0140  0.1533
25691W        W41308  13.013   8.284   0.656  0.0298  0.1335 -0.0422
25692W        W41309  11.396   4.245   4.917  0.3474  0.0455  0.1452
25693W        W41310  17.521  15.837   0.410  0.2064  0.1353  0.1867
25694W        W41311  15.683  10.577  14.224 -0.0830 -0.0114 -0.1891
25695W        W41312   1.120   0.899   5.144  0.2651  0.0754 -0.1860
25696W        W41313   5.083   0.946   2.782 -0.2254  0.1192 -0.0631
25697W        W41314   2.981   0.052  12.381 -0.0485  0.0888  0.0100
25698W        W41315  11.588  17.475   1.097 -0.1954 -0.0714  0.1633
25699W        W41316   8.158   5.500   3.968  0.3192 -0.3070  0.2424
25700W        W41317  16.115   9.730  16.767  0.3046 -0.0110  0.1087
25701W        W41318   8.641   0.218  13.768  0.2059  0.2684  0.4376
25702W        W41319   2.642   1.800  13.161 -0.0155 -0.0790 -0.0228
25703W        W41320   9.418   8.909   0.009 -0.0893  0.0156  0.0875
25704W        W41321   6.084  12.795  14.859  0.0101  0.1900 -0.0879
25705W        W41322   5.575  15.539   3.444 -0.0572  0.2021 -0.3790
25706W        W41323   8.508   9.225  13.434 -0.1563  0.0226 -0.2687
25707W        W41324   0.608   3.891   5.338  0.0507  0.0116 -0.1561
25708W        W41325  10.130   2.064   0.107 -0.1057  0.1343 -0.1586
25709W        W41326   0.060  12.964   2.643 -0.1580 -0.0201 -0.0256
25710W        W41327   9.289   0.125   5.709  0.0762 -0.0467  0.0933
25711W        W41328   8.940  13.079  11.775 -0.0980  0.1582  0.0961
25712W        W41329  16.050  13.149   1.529 -0.2241  0.2211 -0.2103
25713W        W41330   7.846  12.865   0.418  0.0514  0.1218 -0.1516
25714W        W41331   9.256  17.511   4.860 -0.1098 -0.1353 -0.1406
25715W        W41332   1.478  11.046   2.084 -0.1239 -0.0870 -0.1124
25716W        W41333  10.781   3.359   0.075 -0.3444  0.0028 -0.1172
25717W        W41334   0.648   3.389  14.425 -0.2656  0.3978 -0.2264
25718W        W41335  15.273  11.533   5.537  0.1871  0.0557  0.0838
25719W        W41336   2.151   7.051   4.814 -0.3443 -0.3414 -0.0605
25720W        W41337   6.655   3.145  13.268 -0.0975  0.3094 -0.2620
25721W        W41338   9.236  13.907  13.709  0.4911 -0.0147 -0.1126
25722W        W41339   1.905   2.977  13.934 -0.3969 -0.2588  0.0903
25723W        W41340  13.193   1.503   4.135 -0.0193 -0.3510  0.2582
25724W        W41341  17.333   0.406  12.294  0.0961  0.3168  0.2087
25725W        W41342   2.065   9.283   3.381 -0.2930  0.1414  0.4388
25726W        W41343   1.166   2.078  14.869  0.0281 -0.4301 -0.2294
25727W        W41344  12.420   0.285  15.208 -0.1488  0.1143  0.1303
25728W        W41345   4.533   3.311  16.726 -0.1669 -0.2315 -0.2097
25729W        W41346  11.307  12.731   4.830 -0.0219  0.2088 -0.1377
25730W        W41347  11.653  13.680   0.804  0.1578  0.0344  0.1570
25731W        W41348  16.942   2.130  13.428  0.3373 -0.0702 -0.0716
25732W        W41349   1.915   7.119   5.393 -0.0276 -0.1491  0.3381
25733W        W41350   3.696   9.269  12.232  0.1061  0.5175 -0.0248
25734W        W41351  12.059  17.337   4.787 -0.0560  0.0296  0.2840
25735W        W41352   6.654   8.251  13.519 -0.0483  0.0338 -0.1595
25736W        W41353   3.373   9.455  15.028  0.1678  0.0995  0.0691
25737W        W41354  16.787   0.900   4.213  0.0425  0.0791  0.3515
25738W        W41355   0.138   8.364  15.866  0.3096  0.1525  0.0914
25739W        W41356   2.929   7.993  11.955 -0.1188 -0.0243  0.0920
25740W        W41357   0.293  13.336   1.943  0.0507  0.1902  0.1071
25741W        W41358  17.047   8.156  15.281  0.1014  0.0590 -0.3544
25742W        W41359  16.560   2.523   4.879  0.1816  0.0476  0.0142
25743W        W41360   6.488  14.785   0.473 -0.1195 -0.1930 -0.0041
25744W        W41361   2.109  16.380  12.827  0.0225 -0.0816 -0.0125
25745W        W41362  10.258  10.712   5.853  0.2141 -0.0256 -0.1479
25746W        W41363   2.910  14.712  14.857  0.1971  0.2948 -0.0400
25747W        W41364   4.132   0.542  11.913  0.1581  0.0010 -0.2817
25748W        W41365  12.439   8.832  12.758  0.3166 -0.0333 -0.2235
25749W        W41366   7.524   5.235   2.530  0.0276 -0.2387  0.2339
25750W        W41367  17.501  14.483  16.286 -0.0077  0.0601  0.0787
25751W        W41368  10.477  15.005  14.472  0.4167  0.0611 -0.0492
25752W        W41369   0.770   4.930   4.333  0.2474 -0.1335 -0.1624
25753W        W41370  14.022   0.233  12.528  0.1806  0.3258  0.1225
25754W        W41371  10.105   6.795  14.357 -0.0036  0.3093  0.1987
25755W        W41372  17.779   6.098   4.183  0.0162  0.0173  0.0682
25756W        W41373  16.333   9.732   0.886 -0.0157 -0.0940 -0.4237
25757W        W41374   4.698   3.150  16.226 -0.0844 -0.0607  0.0619
25758W        W41375   8.724   1.891   5.443 -0.0290  0.1167 -0.0188
25759W        W41376  13.782   9.609  13.446  0.2359 -0.3974 -0.1728
25760W        W41377   7.726  11.221   3.687 -0.0645 -0.1999  0.0443
25761W        W41378  11.335   4.253  15.848  0.1892 -0.1284  0.1050
25762W        W41379   5.680  16.982   3.971 -0.1553  0.0342  0.2421
25763W        W41380   6.762   2.630  14.902  0.0438  0.3740  0.2862
25764W        W41381  16.440   4.534  14.938  0.1920  0.2644  0.0395
25765W        W41382   7.884  11.899   4.556 -0.0889 -0.0291 -0.1862
25766W        W41383  15.289   1.321  12.993 -0.1676  0.1688 -0.1194
25767W        W41384   2.176   8.879   5.129  0.0808 -0.0733 -0.1341
25768W        W41385   7.612   4.306   4.387  0.2916  0.0136 -0.0107
25769W        W41386   9.590   0.073   4.329 -0.2191  0.1993  0.3405
25770W        W41387  16.806  10.675   0.756  0.0076  0.1456  0.2965
25771W        W41388   7.867  15.755   0.179  0.3292  0.0497 -0.1659
25772W        W41389  13.176   9.190   5.147  0.3352  0.3050  0.0132
25773W        W41390   7.455  15.038  11.135 -0.1713 -0.1619  0.1527
25774W        W41391  12.430   6.619  16.762  0.1446  0.0440 -0.0215
25775W        W41392  14.001  17.125   5.160 -0.0416 -0.0290  0.0465
25776W        W41393   2.860   8.550   4.101  0.0899  0.0223  0.1983
25777W        W41394   5.688  10.399  15.666 -0.1435  0.2579 -0.3758
25778W        W41395   2.390   4.560  12.289 -0.2061  0.0432 -0.0948
25779W        W41396  16.732  14.813   0.334  0.1015 -0.0615  0.0234
25780W        W41397   2.781  10.745  16.757  0.0076  0.2027  0.2465
25781W        W41398  11.755   3.032  14.302 -0.1176 -0.1280  0.0821
25782W        W41399  15.220  16.236  11.921 -0.0480 -0.1413  0.1044
25783W        W41400  11.115   9.732  15.060 -0.0581  0.0965 -0.2366
25784W        W41401   1.175  12.516  13.585 -0.4304 -0.2872 -0.1793
25785W        W41402   3.072   4.676  14.114  0.0656  0.0981  0.1686
25786W        W41403  17.655  16.039  11.662 -0.4072  0.2855 -0.0498
25787W        W41404  17.434   8.148  16.120 -0.0504  0.3402 -0.0143
25788W        W41405  13.631   6.990   5.653 -0.1051 -0.1316 -0.0134
25789W        W41406   0.988  12.430  11.497 -0.0479  0.3661 -0.3705
25790W        W41407   2.640   6.443   3.248  0.0108 -0.2417  0.3492
25791W        W41408  15.864   0.069   3.832  0.0983 -0.2401  0.3016
25792W        W41409   2.540   4.350  13.881  0.0551  0.1769  0.1657
25793W        W41410  12.265  13.014   6.227 -0.1798  0.2069  0.0233
25794W        W41411   5.200   3.493   2.456  0.2666  0.0268 -0.2673
25795W        W41412   0.201   0.322   1.303  0.0935  0.1171 -0.1399
25796W        W41413  13.178   5.260  14.663 -0.0505 -0.1521  0.1128
25797W        W41414  14.206   7.714   2.002 -0.0861  0.0859  0.0083
25798W        W41415   5.774   0.121   1.069  0.1218  0.0000 -0.0295
25799W        W41416   1.093   5.315   4.331  0.0617 -0.0699 -0.0252
25800W        W41417   7.483  17.274   4.087 -0.2579 -0.0029  0.0491
25801W        W41418  14.062  16.360  11.955  0.2939  0.3698  0.2858
25802W        W41419   3.005  14.049   2.890  0.3464 -0.0338  0.0585
25803W        W41420   8.034   7.610  13.220 -0.1777  0.0150 -0.1350
25804W        W41421   3.014   4.153   4.044  0.2439  0.1817  0.1961
25805W        W41422   7.091  13.569  16.724  0.1304  0.0416 -0.1243
25806W        W41423   1.686  12.487   2.855 -0.0499 -0.4375  0.0646
25807W        W41424  10.647   9.241  12.206 -0.0194  0.2170 -0.0316
25808W        W41425   4.084   1.420   0.014 -0.1274 -0.0121  0.2370
25809W        W41426   0.327   5.025   1.158 -0.1096  0.2761  0.1574
25810W        W41427   8.697   1.233  14.496 -0.4444 -0.1775  0.1561
25811W        W41428  12.992   8.839   6.087 -0.1935 -0.0091 -0.0332
25812W        W41429   3.365   0.111  14.575  0.0170  0.2558  0.0346
25813W        W41430   4.992  13.904  14.701  0.1621 -0.1599  0.4297
25814W        W41431   9.998   5.328   0.505  0.0115  0.1881 -0.0932
25815W        W41432  15.654  17.437   3.760  0.1797 -0.0658  0.2071
25816W        W41433  13.176   2.123   1.458 -0.1631 -0.0494  0.1596
25817W        W41434   0.655  17.416   5.283 -0.1345  0.2325 -0.2791
25818W        W41435   1.219   4.908   4.590 -0.1337 -0.2270  0.4375
25819W        W41436  13.196   5.501  14.143 -0.0907  0.0381  0.0067
25820W        W41437  17.462   9.557   3.107 -0.3827 -0.2339 -0.1582
25821W        W41438  10.629   1.019   1.471  0.0368 -0.1101  0.0361
25822W        W41439   9.912  16.758   2.882 -0.2176 -0.1502  0.1316
25823W        W41440   0.515  13.021   2.238 -0.0567  0.0599 -0.1214
25824W        W41441   1.306   1.393  13.592  0.1785  0.0005 -0.0052
25825W        W41442   8.598   8.805   4.186  0.2104 -0.1930 -0.0432
25826W        W41443  13.217   9.055  14.832 -0.2441 -0.0823  0.0919
25827W        W41444   2.880   8.140  16.717  0.4827 -0.2215 -0.1239
25828W        W41445  12.434   3.007   3.630 -0.0652  0.1565 -0.3983
25829W        W41446   4.078  14.093   4.619 -0.0578  0.3290  0.2703
25830W        W41447  12.498   3.870   5.908 -0.0263 -0.2034 -0.2160
25831W        W41448   9.809   1.676  13.294  0.0564 -0.1287  0.3932
25832W        W41449  11.146  12.902   2.747 -0.0228 -0.4367  0.1523
25833W        W41450  17.490   9.237   4.734 -0.1162  0.0601 -0.0722
25834W        W41451   9.221  10.969   2.656 -0.1540 -0.0481 -0.0498
25835W        W41452  13.539   0.227  11.016  0.2386  0.0452 -0.1457
25836W        W41453   8.208  17.413   5.466 -0.1356  0.1223  0.1131
25837W        W41454  15.698   9.770   5.311 -0.1973 -0.0931  0.1014
25838W        W41455  14.048  13.925   5.296  0.0885  0.0281  0.1555
25839W        W41456  16.888   9.079   4.226 -0.2482  0.0502 -0.0136
25840W        W41457   4.359   8.614   0.415  0.2906 -0.0653 -0.0724
25841W        W41458  16.437   2.217   3.380  0.1164  0.0233  0.2208
25842W        W41459  15.928   7.746   3.170 -0.1809 -0.1169 -0.0904
25843W        W41460   0.628  17.526  14.909 -0.1077  0.1757  0.0351
25844W        W41461  16.645   1.462   1.418  0.0453 -0.0843 -0.0496
25845W        W41462   8.942   0.593   3.878  0.2347  0.2451 -0.0724
25846W        W41463  10.421  10.087  14.926  0.3188 -0.4364 -0.0719
25847W        W41464   9.803  13.914   4.742 -0.0920  0.3486 -0.0259
25848W        W41465  10.919   9.671  15.639  0.1920 -0.0944  0.4520
25849W        W41466   4.990   6.578   1.887  0.0305  0.0241  0.2124
25850W        W41467   4.857   1.135  12.400  0.4464 -0.0681  0.0444
25851W        W41468   0.215   4.648  14.197  0.1441 -0.4321 -0.3275
25852W        W41469  13.517   2.967   2.603 -0.1924  0.1026 -0.1384
25853W        W41470   6.904   9.080   1.910  0.0972  0.2043 -0.2416
25854W        W41471  16.194   5.133  13.650 -0.0470  0.1254 -0.0112
25855W        W41472   0.349   8.604   2.034 -0.0233  0.1390 -0.2949
25856W        W41473   6.526   0.369  14.026 -0.0871 -0.2683  0.0590
25857W        W41474  10.623  10.486   2.423  0.0076 -0.1259  0.0139
25858W        W41475  14.694   8.377  15.759  0.2802 -0.1526 -0.1259
25859W        W41476   9.272  12.760   4.142  0.0297 -0.0949 -0.0387
25860W        W41477   6.769  13.986  15.031  0.0214  0.0189 -0.0398
25861W        W41478  10.556  12.593   2.168  0.4966 -0.0976  0.0656
25862W        W41479  17.023  15.692  12.921 -0.0837  0.2961  0.1638
25863W        W41480   7.499  13.839   1.333  0.0293  0.0312 -0.1732
25864W        W41481  15.119  11.128  14.829  0.1372 -0.1383 -0.1560
25865W        W41482  13.900  16.162   4.522 -0.1465  0.0417  0.1004
25866W        W41483   6.391   5.366   2.742 -0.1057  0.1216 -0.1399
25867W        W41484  12.713  17.474   2.089 -0.0048 -0.0658 -0.0965
25868W        W41485  12.914   6.400   1.088  0.0037 -0.1110 -0.1747
25869W        W41486  10.810   2.977  16.143 -0.1439  0.0613  0.4357
25870W        W41487  15.451  15.378  15.005  0.1947 -0.0327  0.1903
25871W        W41488   4.906   1.220   5.019 -0.0356 -0.0838 -0.0295
25872W        W41489   9.842   5.768   0.264 -0.0539 -0.2528 -0.0766
25873W        W41490  16.558  16.446   1.261  0.3968  0.0355 -0.0945
25874W        W41491   0.677   7.188   4.219  0.0589 -0.1190 -0.0403
25875W        W41492  13.100   7.204   4.314 -0.0044 -0.0324 -0.1775
25876W        W41493   3.834  14.779  15.170 -0.0990  0.0100  0.4116
25877W        W41494  12.633  15.397  16.341 -0.1729 -0.2546  0.0485
25878W        W41495   3.608  13.589  13.964  0.1789 -0.2696 -0.0909
25879W        W41496   8.346   3.350   1.259  0.0517  0.0605 -0.0566
25880W        W41497  10.808   3.279  11.738 -0.1509  0.1245 -0.0865
25881W        W41498  13.626  11.170  15.700 -0.1041  0.0343 -0.1683
25882W        W41499  12.469  17.738  12.987 -0.4050  0.1912 -0.2106
25883W        W41500  11.617  14.336  12.132 -0.2206  0.0123 -0.0870
25884W        W41501  11.964   7.477  14.394  0.1034 -0.0414 -0.0802
25885W        W41502  14.467   7.128   1.497 -0.3937 -0.1608 -0.0429
25886W        W41503   2.805  11.658  12.069 -0.0103  0.0055  0.2157
25887W        W41504   1.326  16.704  14.465  0.0974 -0.0694 -0.0496
25888W        W41505   3.298   6.766  12.737 -0.0088 -0.3098 -0.0691
25889W        W41506   9.625  15.972  15.308  0.0879 -0.1887 -0.1604
25890W        W41507   2.598  12.549  13.801  0.0065  0.0595 -0.0648
25891W        W41508   3.613  14.982   4.360  0.4547  0.2512 -0.1329
25892W        W41509   3.368   7.396  12.067  0.3031 -0.3512 -0.0605
25893W        W41510  17.432   2.767  15.766 -0.1045 -0.3623 -0.0495
25894W        W41511   0.746   9.161   3.606  0.0691  0.0928  0.0327
25895W        W41512  13.983   8.772  16.696 -0.0556 -0.0037  0.1572
25896W        W41513  15.338  16.443   0.406 -0.0232  0.3072  0.4835
25897W        W41514   1.645  12.433  15.323  0.3068 -0.0415 -0.0607
25898W        W41515   8.106  10.732   0.034  0.2831  0.2644  0.1025
25899W        W41516  12.677  12.398   4.368  0.2228  0.0676 -0.1053
25900W        W41517   0.689  15.445   6.655  0.0951  0.1797 -0.2522
25901W        W41518   4.157   3.968   4.811 -0.0575  0.0060  0.0032
25902W        W41519  12.311  15.551   3.917  0.2589 -0.2314 -0.2885
25903W        W41520   1.841   6.002   3.374  0.0268 -0.1283  0.1153
25904W        W41521   0.140   0.171  11.207  0.0785  0.0695 -0.2669
25905W        W41522  12.798   0.943  11.788 -0.1704  0.4388  0.1307
25906W        W41523   9.900   6.253  15.046  0.2211 -0.0177 -0.3191
25907W        W41524   4.842   3.048   1.474  0.0345 -0.0494  0.0694
25908W        W41525  16.959  10.855  15.326  0.1313  0.0400 -0.2250
25909W        W41526  17.708  15.186   1.938  0.3740 -0.2439 -0.1996
25910W        W41527   6.700   5.682   1.512  0.1000  0.0222  0.1997
25911W        W41528  11.742   6.131  13.287 -0.2262  0.0422  0.0160
25912W        W41529   8.861  14.316  12.171 -0.0157  0.1369 -0.0326
25913W        W41530  11.512   7.795  14.101 -0.2695 -0.3540  0.0134
25914W        W41531  16.065   9.015   0.408 -0.1115  0.2156  0.1273
25915W        W41532   3.536   1.410   4.550  0.0702  0.0668 -0.3523
25916W        W41533   5.695  13.565   0.336  0.2094 -0.2642 -0.1831
25917W        W41534  15.659  14.802   1.636 -0.0094  0.0023  0.1550
25918W        W41535   6.078   9.632  16.514 -0.0128  0.1221 -0.0060
25919W        W41536  11.212   3.071   4.945 -0.1011 -0.0752 -0.1284
25920W        W41537   3.583  12.677  15.969 -0.0255 -0.1535  0.1068
25921W        W41538   1.022  13.908  16.728 -0.0168 -0.0683  0.1158
25922W        W41539  17.068   7.440  11.887 -0.1797  0.0217 -0.2563
25923W        W41540   4.654   3.982   3.000 -0.1089 -0.3380 -0.0630
25924W        W41541   3.667   3.375  14.231 -0.0312 -0.1311  0.1329
25925W        W41542  10.834  12.833   5.015  0.1075 -0.2488  0.1803
25926W        W41543  16.132  16.882  16.717 -0.0099 -0.1351  0.1140
25927W        W41544  10.436   8.642  12.237  0.1702 -0.1678 -0.0653
25928W        W41545   0.518  13.128  12.462 -0.0284  0.2756  0.1494
25929W        W41546  10.501   3.123  14.822 -0.0984  0.1869 -0.1422
25930W        W41547  16.855   9.698  13.366 -0.3435  0.0341  0.1364
25931W        W41548   9.186   6.663   5.864  0.0598 -0.0525 -0.1115
25932W        W41549  12.103   3.199   6.120 -0.3048 -0.0096  0.0577
25933W        W41550   3.977  15.279   4.294 -0.0353  0.0912  0.1412
25934W        W41551  10.824  12.388   4.377 -0.0251 -0.1415 -0.0997
25935W        W41552  17.209   8.049  11.104 -0.0558 -0.0075 -0.1024
25936W        W41553   5.883   1.272   0.756  0.1200  0.1477  0.2219
25937W        W41554  10.742  11.382   5.096  0.3159 -0.2064 -0.3465
25938W        W41555  15.835   9.260   4.942  0.3086 -0.0111  0.1854
25939W        W41556   9.537  16.689  13.837  0.0613  0.1709 -0.2719
25940W        W41557   8.217  13.484   2.703 -0.1291 -0.1248 -0.0465
25941W        W41558  11.000   1.125  16.107  0.0157 -0.1849  0.2001
25942W        W41559   1.556   1.702   5.024 -0.1589 -0.1220  0.1046
25943W        W41560   4.139  14.092  15.308 -0.1551 -0.1739 -0.1130
25944W        W41561   9.439   0.670   2.486  0.3933  0.1643 -0.3264
25945W        W41562  10.203  10.838  16.654 -0.1022  0.3492 -0.0115
25946W        W41563  11.070   6.832  13.285 -0.3108  0.1010  0.1540
25947W        W41564   9.819   2.457  16.111  0.1357  0.1180  0.1449
25948W        W41565   3.620  14.457   1.144 -0.1511 -0.0657 -0.0198
25949W        W41566  14.402  14.124  14.064 -0.1850 -0.2085  0.0642
25950W        W41567   7.140  12.630   1.704 -0.2408  0.0342  0.0358
25951W        W41568   9.737  13.338  14.258 -0.0450 -0.1693  0.0322
25952W        W41569   7.190   9.712  16.164  0.1099 -0.1905 -0.0185
25953W        W41570  13.252  10.647   3.275 -0.0147  0.2318 -0.1175
25954W        W41571   8.110   0.062  15.267 -0.1076 -0.1635  0.3026
25955W        W41572   0.160   2.757  15.422 -0.5319 -0.3146 -0.1452
25956W        W41573   5.001   3.043   3.168  0.2722  0.2721 -0.2828
25957W        W41574   4.446  17.502   1.849  0.0388 -0.0861 -0.1586
25958W        W41575   6.846  12.394   3.125  0.2669 -0.1439 -0.3195
25959W        W41576   0.326   5.510  13.131 -0.0454 -0.1150  0.0117
25960W        W41577  14.772  14.809   2.543 -0.1130 -0.0044 -0.0365
25961W        W41578   8.075   6.865  14.206 -0.1619 -0.0305  0.2000
25962W        W41579   2.769   2.493  11.662  0.0338  0.1970 -0.1044
25963W        W41580   6.836   2.420  13.832 -0.0889 -0.1500 -0.2130
25964W        W41581   4.499  12.517  13.809 -0.0706  0.0740  0.3528
25965W        W41582  11.415   5.452   5.658  0.0476  0.0021  0.1677
25966W        W41583  11.690  12.499  16.605 -0.0720 -0.0934  0.0756
25967W        W41584   9.489  11.969  16.473 -0.2428  0.0206  0.1005
25968W        W41585   5.117   9.622   2.678  0.1566  0.1168  0.0390
25969W        W41586  12.935   6.466   2.446 -0.0275 -0.1190  0.0497
25970W        W41587  10.181   1.680   3.059  0.0331 -0.3482  0.0480
25971W        W41588  17.615   4.111  15.880  0.0815 -0.4075 -0.1081
25972W        W41589  12.600  13.910  13.902 -0.2226 -0.2600  0.0296
25973W        W41590   0.231   7.916   4.663  0.0280  0.4231  0.1906
25974W        W41591   7.488   0.534  13.116 -0.0387 -0.1453  0.0271
25975W        W41592  10.636  11.116   5.586 -0.3804  0.1026  0.1587
25976W        W41593  13.462  14.031   4.132 -0.0182  0.3469 -0.3086
25977W        W41594  16.398   7.922  11.868  0.1806  0.1923 -0.4158
25978W        W41595  15.216  14.425  12.609 -0.3883  0.2099  0.2234
25979W        W41596  11.092  16.989  14.442  0.1735 -0.0165  0.2692
25980W        W41597  11.171   0.208   1.212 -0.1840  0.3384  0.0218
25981W        W41598  15.256   7.223  14.418 -0.2022  0.0407 -0.3308
25982W        W41599  10.144   0.767   4.266 -0.0746 -0.0602  0.0629
25983W        W41600  14.445   3.291   4.643 -0.0033  0.4396  0.0309
25984W        W41601  10.969  15.020   5.461 -0.0427  0.4913 -0.0184
25985W        W41602   4.356  17.465   5.047 -0.1984  0.0177  0.0816
25986W        W41603  16.044  15.122  11.380  0.3047  0.0037 -0.0961
25987W        W41604   1.124   2.348  15.806 -0.0731 -0.1526  0.2568
25988W        W41605   7.501   5.229   4.297  0.0900  0.0793 -0.2706
25989W        W41606  15.237   1.796   4.132 -0.1245  0.1612 -0.1983
25990W        W41607  11.559   4.973   2.693 -0.1713 -0.1917 -0.2286
25991W        W41608   1.806  14.950   0.004 -0.1063 -0.1869  0.1737
25992W        W41609  17.212   6.218  16.304 -0.1514 -0.2294 -0.0029
25993W        W41610  13.865  11.053   6.556  0.0621 -0.0216  0.1056
25994W        W41611  15.770   4.870   1.008  0.0271 -0.1218 -0.1687
25995W        W41612   5.995   9.225  12.393  0.3000 -0.1811  0.5271
25996W        W41613  16.213   1.833   0.709  0.0196 -0.1287  0.1151
25997W        W41614   3.189  17.190  12.933 -0.3286 -0.3560  0.1618
25998W        W41615  15.782   8.093  10.999  0.5039 -0.0140 -0.0595
25999W        W41616  13.440   8.626  16.827  0.2387 -0.3696 -0.0492
26000W        W41617   9.027   6.829   0.289 -0.0847 -0.1042 -0.2908
26001W        W41618  12.607   9.455   4.838  0.2448  0.2024  0.2720
26002W        W41619   0.142  11.980  11.947  0.1804 -0.4203  0.1439
26003W        W41620   5.784  12.137   2.320  0.1753 -0.0684 -0.0310
26004W        W41621  15.383   8.380   4.870 -0.0666 -0.0524 -0.1508
26005W        W41622  12.434   7.577  14.541  0.0465  0.0370 -0.2121
26006W        W41623  16.669  14.883  12.787  0.0661 -0.2593 -0.1126
26007W        W41624   5.517   7.364   3.367 -0.0560 -0.3437 -0.0787
26008W        W41625   3.319   5.319   1.478  0.1959  0.0801  0.0297
26009W        W41626   7.747   9.471   2.965 -0.1081  0.2981  0.0783
26010W        W41627   0.198   8.210   3.356  0.0928  0.1600  0.0924
26011W        W41628   2.083   7.553   6.406 -0.1339  0.0147 -0.0141
26012W        W41629  15.175  12.512  15.424 -0.1593  0.0371 -0.0794
26013W        W41630   9.742   3.613   1.783 -0.3722  0.1973  0.0309
26014W        W41631   3.006  13.844   1.582  0.1786  0.0095  0.0626
26015W        W41632  15.745   1.477   6.290  0.1002  0.0769 -0.0737
26016W        W41633  14.651  10.210   6.053 -0.0644  0.2049  0.1435
26017W        W41634   0.977  17.688  14.101 -0.0108  0.3106 -0.0798
26018W        W41635   3.653   0.527   1.817  0.0194 -0.2430 -0.1152
26019W        W41636   7.241  14.098   2.993  0.4841  0.3977 -0.3281
26020W        W41637  15.542  10.115   2.557 -0.0611  0.0853 -0.0839
26021W        W41638   1.248  14.277   0.141 -0.1245  0.0895  0.4065
26022W        W41639  17.579  16.396   3.219  0.1419  0.3001 -0.2683
26023W        W41640  17.535  12.472  14.882 -0.3026 -0.0303  0.0460
26024W        W41641  14.228  17.098  14.065 -0.1244 -0.1158  0.0989
26025W        W41642   0.238   9.171  14.454 -0.2653 -0.1687  0.0884
26026W        W41643  17.299   9.711  15.111 -0.2389  0.2325  0.1520
26027W        W41644   2.841  17.606  14.314  0.1418 -0.1800 -0.2435
26028W        W41645   0.674   5.230   4.725  0.0762  0.2243  0.0186
26029W        W41646  10.217   3.643  12.331  0.3395 -0.0603  0.0511
26030W        W41647   4.675  11.743  11.092 -0.2516  0.1655 -0.3768
26031W        W41648   9.030   7.530   0.244  0.0453 -0.0149  0.2043
26032W        W41649  12.830   3.478  16.033 -0.2757  0.1516  0.0760
26033W        W41650  14.291  10.967   4.131 -0.2351  0.0381 -0.0114
26034W        W41651   4.689   1.665  13.363  0.0361  0.0548  0.1251
26035W        W41652  10.069  16.634  13.718 -0.0197 -0.0564 -0.0241
26036W        W41653   9.151  10.365  16.035 -0.0124  0.0105 -0.1567
26037W        W41654   2.130   4.771  15.539 -0.2631  0.2706  0.0727
26038W        W41655   0.673   3.261  13.021  0.0801  0.2512  0.1300
26039W        W41656   6.791  16.011  10.973  0.3030  0.2895  0.0425
26040W        W41657  16.414   2.975   5.640 -0.2225 -0.1648  0.2276
26041W        W41658   7.651   3.756   3.149  0.0131  0.0947  0.1128
26042W        W41659   0.103  11.008   4.212  0.0048  0.1905  0.0197
26043W        W41660  14.599  16.926  16.056 -0.1182 -0.1061  0.1453
26044W        W41661  12.237   3.265  11.793 -0.0861  0.3378 -0.0723
26045W        W41662  10.689  13.354   1.086 -0.0856 -0.0954 -0.1886
26046W        W41663   4.633   2.110   4.256  0.0800  0.1858  0.0963
26047W        W41664   2.100   8.568  14.465 -0.2178 -0.0521 -0.0343
26048W        W41665   1.198  10.538   2.678 -0.0448 -0.0817  0.0795
26049W        W41666   6.531  11.848  12.717  0.0094  0.2330  0.2835
26050W        W41667  14.753   8.759   0.344  0.0396  0.3397  0.2766
26051W        W41668  13.958  15.558  13.003  0.0770  0.1362  0.2224
26052W        W41669  11.950   1.965   2.033  0.0681  0.1051  0.0949
26053W        W41670   5.023   1.704   4.736 -0.0509 -0.0871 -0.2473
26054W        W41671  11.309  13.536   1.568 -0.0887 -0.0863 -0.2078
26055W        W41672  13.386   6.933   6.734  0.4002 -0.0427 -0.4001
26056W        W41673  10.981   2.199   0.146  0.3275  0.2822 -0.0360
26057W        W41674   7.271   4.576   3.139  0.0872  0.0672  0.0914
26058W        W41675  13.693   7.656   5.141 -0.3606  0.1506 -0.0226
26059W        W41676   1.430   5.248   2.762  0.0379  0.0831 -0.0126
26060W        W41677   2.080   8.095   0.490 -0.0308  0.3008  0.2188
26061W        W41678  16.598  12.172   3.684 -0.1198 -0.2665  0.0436
26062W        W41679  12.162  15.094   3.632 -0.4980  0.0493 -0.0944
26063W        W41680  12.666  14.411  15.356  0.0189 -0.1293 -0.0118
26064W        W41681  12.351   7.371   4.946 -0.1082  0.1155 -0.2301
26065W        W41682   0.621  11.172  12.669 -0.1063  0.0148  0.0950
26066W        W41683   2.127  12.504  14.030 -0.1601 -0.1794 -0.2402
26067W        W41684   3.789   6.458   3.537  0.0425  0.2488 -0.1827
26068W        W41685  12.196   6.940   1.904 -0.1810 -0.1024 -0.1413
26069W        W41686   7.427  11.751   4.086 -0.0711  0.3210  0.0766
26070W        W41687   1.276  12.177  14.458  0.2424  0.3634  0.0950
26071W        W41688  15.306   8.139   2.920 -0.1856 -0.0215  0.0006
26072W        W41689  16.638  13.547  13.066 -0.0971 -0.0608  0.1253
26073W        W41690   6.137  13.244   4.459 -0.2255 -0.2321 -0.2179
26074W        W41691   7.976   0.930   4.915  0.0118 -0.0429  0.2252
26075W        W41692   5.929  16.775   0.581 -0.1689  0.2631 -0.1081
26076W        W41693  11.032  14.781   0.744 -0.4353  0.2004  0.2533
26077W        W41694   5.661   0.831  11.910  0.0221  0.0411 -0.1562
26078W        W41695   4.554   8.492   0.926  0.1437 -0.0117  0.2229
26079W        W41696  17.789   8.245  13.174  0.1846 -0.2135  0.0171
26080W        W41697  11.717   7.870   5.395 -0.0289 -0.1443 -0.1195
26081W        W41698   6.974   4.300  15.360 -0.1794 -0.1515 -0.1084
26082W        W41699   5.225  10.580  14.246  0.2499  0.0248 -0.1856
26083W        W41700   0.035   4.847   5.389 -0.0392 -0.1590 -0.1060
26084W        W41701  15.475   8.231   0.355  0.2342  0.3226 -0.1110
26085W        W41702   7.758  10.767   4.516 -0.0370 -0.2116 -0.2476
26086W        W41703  14.383   5.244   5.343 -0.0313  0.0562 -0.1772
26087W        W41704   2.285  15.094  13.376 -0.2580  0.1491  0.3374
26088W        W41705  17.282  13.855  14.818 -0.0320  0.1901 -0.2305
26089W        W41706  12.296   4.161  12.854  0.1075  0.1166  0.0082
26090W        W41707  12.258  13.030  16.182 -0.1821 -0.0026 -0.0925
26091W        W41708   1.116  16.588  16.778  0.0165  0.1410 -0.1354
26092W        W41709   3.771   0.352   0.010  0.0843 -0.0212  0.1341
26093W        W41710   5.279   8.717   5.632  0.0407  0.2215  0.0282
26094W        W41711  13.056   9.068  15.429  0.3788  0.0012 -0.0104
26095W        W41712   9.065  11.705   0.029  0.0888  0.0726 -0.0806
26096W        W41713  10.930   4.270   0.818 -0.2477  0.0283 -0.0108
26097W        W41714  13.600   8.956  12.963  0.1528  0.0192  0.1230
26098W        W41715   7.203  13.390  14.432  0.0578 -0.3772 -0.1043
26099W        W41716  17.124   3.037  13.456  0.1048 -0.1965 -0.0891
26100W        W41717  14.150  10.553   0.854 -0.1475  0.0176  0.0025
26101W        W41718   7.147   3.649   3.143 -0.0126  0.1066 -0.1192
26102W        W41719   4.921  14.415  13.898  0.1992 -0.0196 -0.0064
26103W        W41720   8.394   0.171   5.974 -0.0063 -0.0910 -0.0530
26104W        W41721  10.689   2.864  14.104 -0.0944 -0.0872 -0.1246
26105W        W41722  14.524   0.130   0.199  0.2991 -0.2200  0.1852
26106W        W41723   0.614   2.192   1.117 -0.1140  0.1504 -0.1411
26107W        W41724   2.567   0.371   4.777  0.1494  0.2815  0.2686
26108W        W41725   0.972  13.943  14.655  0.0102 -0.4312  0.2096
26109W        W41726   9.779  17.270  12.476 -0.2436 -0.0919 -0.0368
26110W        W41727  10.048   6.683  13.003 -0.0735 -0.0000  0.3416
26111W        W41728  13.720   2.843   0.561 -0.1336  0.1585  0.1006
26112W        W41729  17.310  10.380  11.202 -0.2520 -0.0846 -0.0436
26113W        W41730   7.574   0.330  16.648  0.1820  0.0845  0.2565
26114W        W41731   5.783   9.138   2.878  0.0152  0.1582 -0.0027
26115W        W41732   9.512   3.107  12.778 -0.4505  0.0551 -0.0745
26116W        W41733   0.721  11.527   4.928  0.2344  0.3485 -0.0750
26117W        W41734   5.619   8.163  13.897 -0.1637 -0.0556 -0.2211
26118W        W41735   7.390   5.088  14.678 -0.1058  0.0510  0.0637
26119W        W41736  10.051  11.508  14.046 -0.1841 -0.1550  0.1773
26120W        W41737   0.951  12.694   2.487 -0.0941 -0.1281 -0.2340
26121W        W41738   5.272  15.149   4.996  0.1540 -0.0603  0.1198
26122W        W41739  10.664   4.974   3.290 -0.0334  0.1104 -0.1050
26123W        W41740  14.786   7.695  15.732  0.1064  0.1533  0.0622
26124W        W41741   7.027  16.412   6.208  0.2225  0.2268  0.2345
26125W        W41742   3.634  16.752   2.236  0.0449  0.0736 -0.0070
26126W        W41743   9.106   6.315  11.962  0.0827  0.1174  0.3577
26127W        W41744   4.670   9.528   2.477 -0.1691 -0.1127 -0.0418
26128W        W41745  13.606  12.196  12.511 -0.0641 -0.0191 -0.4898
26129W        W41746   4.944  12.173  15.139  0.1112  0.1816  0.1032
26130W        W41747  15.698  12.507   4.647  0.0867  0.0532  0.0244
26131W        W41748   2.562  16.142   2.188  0.1820  0.2768  0.1393
26132W        W41749   3.550  14.897   0.131 -0.0747  0.0810  0.4767
26133W        W41750   6.385  16.582   5.568  0.0181 -0.2413 -0.0585
26134W        W41751   2.073   4.181  11.989 -0.0687  0.3433  0.0480
26135W        W41752  14.940   9.316  15.208 -0.1387 -0.1010  0.0928
26136W        W41753   7.511  16.740  13.000  0.0221 -0.4016  0.3190
26137W        W41754   8.458   9.935   0.992  0.0220  0.3024  0.1299
26138W        W41755   8.429  13.904   2.312  0.0913  0.1250 -0.2107
26139W        W41756   3.365  12.735  13.609 -0.0522  0.1487  0.0069
26140W        W41757  17.313   4.840   3.434 -0.0247  0.1287  0.1054
26141W        W41758  12.939  13.508   2.828 -0.2044  0.0408  0.0555
26142W        W41759  17.199  15.632   2.946 -0.0970 -0.3115  0.0192
26143W        W41760   6.575   5.688   2.350  0.1819 -0.2174  0.1621
26144W        W41761  12.551   3.434  12.228 -0.0740 -0.1105  0.2430
26145W        W41762  16.760  16.593  13.289  0.0441 -0.1284  0.3269
26146W        W41763   6.542  10.268   4.193  0.1818 -0.0979 -0.1634
26147W        W41764  11.882  12.972  15.906  0.0872 -0.0743  0.0986
26148W        W41765  12.274   0.775   5.818 -0.0548  0.2159  0.4929
26149W        W41766  15.881  13.227   3.403  0.1389  0.2263  0.0280
26150W        W41767   4.317  10.828   0.285 -0.2331  0.2000 -0.2326
26151W        W41768   0.870  10.434  16.661  0.1202  0.1239 -0.0523
26152W        W41769   8.052   0.450  13.857  0.0299  0.2122 -0.0736
26153W        W41770   6.795  15.334  15.630  0.0799 -0.0104 -0.1191
26154W        W41771   8.685   8.471   4.553 -0.0926  0.0738 -0.0198
26155W        W41772   8.402   6.642   2.828 -0.1517  0.2640  0.0703
26156W        W41773   5.165   8.616  15.858 -0.3569 -0.2843 -0.0009
26157W        W41774   7.445   8.961  13.564  0.0495 -0.0012  0.0200
26158W        W41775   1.489  15.746   5.135 -0.2927  0.0744  0.0511
26159W        W41776  12.026   8.051   3.399 -0.0134 -0.0887 -0.0283
26160W        W41777  12.685   8.569   5.498  0.1442  0.2293  0.1728
26161W        W41778  16.450  11.141   1.508 -0.0919  0.2324 -0.0672
26162W        W41779  16.519   0.875  12.191  0.1611 -0.2185  0.0064
26163W        W41780   2.310   2.007  13.450  0.1454 -0.4888  0.1652
26164W        W41781   5.738  14.951  11.425  0.1531 -0.0340  0.0307
26165W        W41782  10.440   3.660  14.079 -0.1190 -0.1347  0.3053
26166W        W41783   2.442   1.210   1.080 -0.0517  0.3494 -0.0602
26167W        W41784   8.093  17.025  16.390  0.0123 -0.1196  0.1925
26168W        W41785  11.183  12.307  16.507  0.2698 -0.1268 -0.0445
26169W        W41786  17.025   6.130   3.167 -0.1044 -0.1071 -0.4125
26170W        W41787   3.742  10.236  11.826  0.1745  0.1192 -0.1295
26171W        W41788   6.052   2.852   6.113  0.1187 -0.0625  0.0610
26172W        W41789   1.448   7.431   1.289  0.0812 -0.0447 -0.0321
26173W        W41790  10.232  12.566   0.289  0.1568  0.0320 -0.1881
26174W        W41791  10.613  16.037  16.136  0.2343 -0.1769 -0.1031
26175W        W41792   9.249   1.604   2.707  0.0068  0.0000 -0.0604
26176W        W41793  16.052   9.774   1.846  0.3819 -0.1999 -0.2325
26177W        W41794   3.319  15.142  16.271 -0.2038  0.1554 -0.0045
26178W        W41795  11.837   1.910  11.619  0.2664 -0.1334  0.0593
26179W        W41796  12.332   2.127   2.681 -0.2674  0.1027  0.2710
26180W        W41797   7.516  17.846  13.119 -0.0135 -0.0315  0.4642
26181W        W41798   4.292  12.717  12.660  0.0706  0.0085  0.2303
26182W        W41799   1.803  13.192   0.297 -0.1729 -0.4373  0.3606
26183W        W41800   3.385  17.548   2.809  0.0486  0.0404 -0.2722
26184W        W41801  14.127   1.538  16.262 -0.2150  0.1960 -0.0420
26185W        W41802  15.356   2.158  16.175 -0.1464 -0.0317  0.0820
26186W        W41803   6.897  15.344  14.497 -0.3640 -0.0841  0.2855
26187W        W41804  12.033   7.229  11.843 -0.0166 -0.0078 -0.0814
26188W        W41805  16.056   6.985  12.085 -0.0067  0.1043  0.0721
26189W        W41806  13.163   0.970   3.777 -0.1002  0.1987 -0.1574
26190W        W41807  16.518  17.448  13.270  0.3787  0.0674  0.0092
26191W        W41808   4.562   4.227   0.333 -0.2937  0.0342  0.1348
26192W        W41809  17.443   4.987   5.663 -0.3157 -0.0111 -0.1460
26193W        W41810   7.576   2.654   3.252  0.1255 -0.2128  0.3371
26194W        W41811   1.623  10.642  13.319 -0.0166 -0.2183 -0.1837
26195W        W41812  15.223   5.507   0.284  0.1953  0.2126 -0.1301
26196W        W41813  12.105   9.260   2.667  0.0386  0.0959  0.1326
26197W        W41814  14.998   9.701   0.497 -0.0148 -0.5258  0.0019
26198W        W41815  17.277   3.649  12.459  0.0650 -0.2052 -0.0210
26199W        W41816  10.428  10.717   0.837 -0.0441 -0.2449 -0.4043
26200W        W41817   6.867  16.629  16.048 -0.0697 -0.0439 -0.1281
26201W        W41818  15.445  10.758   3.364  0.2094 -0.0315  0.0680
26202W        W41819  16.875   8.535   2.382 -0.0535  0.2511 -0.0274
26203W        W41820   9.285  14.365   6.260 -0.1497 -0.2992 -0.1247
26204W        W41821  14.583  10.548  13.479 -0.0202  0.0490 -0.0121
26205W        W41822  13.990   5.859   5.793  0.0723 -0.2627  0.1352
26206W        W41823  10.454   7.631   1.366  0.2500  0.0704  0.1643
26207W        W41824  17.291  17.250  12.558 -0.2658  0.1996  0.0349
26208W        W41825  10.647   2.999   5.806 -0.2238  0.1975 -0.2857
26209W        W41826  12.481  15.529  12.587  0.0394  0.0401  0.0575
26210W        W41827  15.997  16.222  15.496  0.1348 -0.3654 -0.0844
26211W        W41828  16.484  13.332   0.347  0.0754 -0.0308 -0.2382
26212W        W41829  10.747   0.942  11.872 -0.0476  0.1564  0.2093
26213W        W41830   0.104   6.802   5.983 -0.1585  0.1777  0.2021
26214W        W41831   2.328  15.260   2.506  0.1095  0.2130  0.0719
26215W        W41832  10.666  10.483   1.617 -0.2361  0.0353  0.0536
26216W        W41833  10.089  17.474   0.704  0.1310 -0.0543 -0.1937
26217W        W41834  10.119  14.733  12.413 -0.1094  0.2653  0.3208
26218W        W41835  11.955  13.527   0.372  0.0294 -0.0032 -0.2678
26219W        W41836  16.148   7.433   5.514 -0.1876  0.0828 -0.0804
26220W        W41837  14.364  13.916   5.676 -0.1017 -0.2000 -0.2045
26221W        W41838   8.290   4.185  12.071  0.1781 -0.1265  0.0713
26222W        W41839  10.463  11.937   1.569 -0.0997  0.1887 -0.0204
26223W        W41840  11.487  15.629   2.955 -0.0684 -0.3445 -0.0020
26224W        W41841   1.427   5.400  16.590 -0.0850 -0.0304  0.1163
26225W        W41842   1.987  15.185   5.969 -0.0408 -0.0237  0.2099
26226W        W41843   9.889  12.262   3.005 -0.2503 -0.0646  0.0194
26227W        W41844   0.278   2.855  10.903 -0.0289 -0.0012  0.1040
26228W        W41845  15.640  11.860  14.668  0.0814  0.1381 -0.2545
26229W        W41846   3.948   8.177  13.338 -0.1805 -0.3535  0.1207
26230W        W41847   2.372   5.479   0.232  0.5147  0.1676 -0.3315
26231W        W41848  16.387   2.664  12.302  0.0215 -0.1279  0.2011
26232W        W41849   3.375   8.877  11.567  0.3881  0.0413 -0.0026
26233W        W41850   8.267  12.593  12.422 -0.0711 -0.0653 -0.0032
26234W        W41851   5.769  16.441   4.878  0.1631 -0.0719  0.3010
26235W        W41852   7.652   0.823  16.726 -0.0284 -0.1322 -0.0987
26236W        W41853   0.577  13.901   4.857 -0.0472  0.0669  0.0894
26237W        W41854   3.929   5.884   1.033  0.0603 -0.0729  0.0519
26238W        W41855  16.391   7.860   3.067 -0.0452  0.2218  0.0442
26239W        W41856  16.872  10.602   3.065  0.0403 -0.0731  0.0307
26240W        W41857  12.863   0.275  12.779 -0.1197 -0.2297 -0.1727
26241W        W41858   4.880  13.048   0.456 -0.2260  0.0332 -0.1281
26242W        W41859   6.561   3.621  13.225  0.0647  0.0328 -0.0126
26243W        W41860  14.963   3.904   1.397 -0.1362 -0.0522  0.0525
26244W        W41861   7.317  15.531   1.576 -0.1431 -0.0285  0.0321
26245W        W41862   8.569  14.769   3.226  0.1526 -0.1353  0.3293
26246W        W41863  11.780   0.776   3.744 -0.2082  0.0537 -0.0181
26247W        W41864   1.205   7.243   4.025 -0.0017 -0.0551  0.1989
26248W        W41865  11.500  10.791   2.814 -0.1273 -0.0730  0.0129
26249W        W41866  17.072  16.590  13.971  0.1173 -0.0107  0.0197
26250W        W41867   8.358  12.577   2.815  0.2520 -0.2299  0.1654
26251W        W41868  11.419  16.588   2.570  0.0768  0.4315  0.1437
26252W        W41869  12.570  17.071   3.450  0.1026  0.0312 -0.1752
26253W        W41870   8.230   6.134  13.415  0.0658  0.1901 -0.0135
26254W        W41871   3.707  13.113  13.584 -0.0990 -0.2188  0.2212
26255W        W41872  11.586  15.134   3.655 -0.1783 -0.0814 -0.0270
26256W        W41873  11.868   6.211  15.941 -0.3686  0.2281  0.0592
26257W        W41874   8.984   3.409   4.118 -0.2798 -0.2426  0.1119
26258W        W41875   2.218  15.963  15.087  0.2792 -0.0573 -0.0538
26259W        W41876   4.784  14.194  13.481 -0.0590 -0.3383 -0.2577
26260W        W41877  16.465  15.230   3.857 -0.0894  0.0782  0.1158
26261W        W41878   7.264  14.087  14.143 -0.0539  0.4462  0.2018
26262W        W41879  13.292   6.714   5.422 -0.1580 -0.1965  0.0231
26263W        W41880  13.528   7.509  12.715 -0.0605 -0.0388  0.1408
26264W        W41881   0.164  14.249   5.414 -0.1424 -0.0028  0.0335
26265W        W41882   4.357   3.432   3.683  0.0580 -0.0479  0.3851
26266W        W41883  17.312   2.219  14.843 -0.0723 -0.0011 -0.0372
26267W        W41884  16.916   8.315  11.988 -0.0103 -0.1571 -0.0339
26268W        W41885  13.673  16.288  15.129 -0.2589 -0.1816 -0.1970
26269W        W41886  13.279   5.163   5.054 -0.2739  0.2532  0.0432
26270W        W41887   2.887   7.170  11.912 -0.2029 -0.0379 -0.2223
26271W        W41888   8.101   1.118  12.707 -0.0442  0.1626 -0.1011
26272W        W41889   9.125   5.129   5.175 -0.0283 -0.1892 -0.3094
26273W        W41890   3.991   1.787  15.319  0.1169  0.0431 -0.1307
26274W        W41891   8.635   2.776   6.236 -0.4954  0.1042 -0.1561
26275W        W41892  14.103  10.135   2.800 -0.1335  0.0163  0.0594
26276W        W41893   9.269  16.313   1.143 -0.0968  0.1832  0.0831
26277W        W41894  17.366   9.980  13.690 -0.0587 -0.0993  0.1978
26278W        W41895  13.071  15.230  16.115 -0.0239 -0.1928 -0.0052
26279W        W41896   6.516  12.878  15.075  0.1380 -0.0459 -0.0154
26280W        W41897  14.705  14.151  14.485 -0.0473 -0.0622 -0.2301
26281W        W41898   1.744  16.131  15.224  0.0469  0.3945  0.4234
26282W        W41899  12.667   6.417   4.805 -0.1769 -0.0866 -0.0896
26283W        W41900   0.938  15.651   2.320 -0.0428  0.0173  0.1934
26284W        W41901   2.749  11.431   3.453  0.2745 -0.0463  0.2680
26285W        W41902   6.556   5.446  15.556 -0.2199  0.0162 -0.2577
26286W        W41903  15.118   0.449  16.811 -0.3243  0.3757 -0.0919
26287W        W41904   5.176  16.093  12.925  0.0317 -0.1768 -0.0332
26288W        W41905   4.590   3.426   1.194  0.0548 -0.0537  0.0822
26289W        W41906   0.911  16.448   0.754  0.1224 -0.1703 -0.1099
26290W        W41907   1.850   8.400   0.194 -0.0867  0.1245  0.1183
26291W        W41908   4.790  11.264  15.083  0.0241  0.0893  0.1171
26292W        W41909   0.807   1.815   0.253  0.1991 -0.1031 -0.0675
26293W        W41910  12.253  16.940  10.609  0.3876  0.1176  0.1192
26294W        W41911   8.917   1.175   4.955  0.1426  0.1909 -0.0794
26295W        W41912   7.559  13.569  14.082  0.2712 -0.4564 -0.2133
26296W        W41913   3.775   0.354  11.609  0.0065  0.0120  0.4253
26297W        W41914  14.045   0.307   4.332 -0.1416  0.0469  0.1664
26298W        W41915  16.864  13.602   5.270  0.1269  0.0816  0.1176
26299W        W41916  15.757   2.668   4.031 -0.4007 -0.0653 -0.3011
26300W        W41917   5.376  12.435  15.811  0.0163 -0.1896  0.0755
26301W        W41918  16.685   6.404  13.204  0.2846 -0.0739  0.0471
26302W        W41919  16.673  10.214   2.157 -0.0531  0.0387  0.0812
26303W        W41920  16.114  12.676   4.793 -0.3888  0.0215  0.1031
26304W        W41921   7.892   0.439   5.181  0.0048 -0.0098  0.0554
26305W        W41922   0.216  13.975   2.516 -0.2083  0.3413  0.1485
26306W        W41923  16.280   4.479  12.276 -0.0557 -0.0866  0.1434
26307W        W41924   9.976  10.620  16.164  0.1451 -0.0023  0.1722
26308W        W41925  12.224   3.750  11.875  0.1942  0.0038 -0.1223
26309W        W41926   6.509  15.258   2.968  0.1778 -0.0134 -0.3049
26310W        W41927   5.116  16.518  14.318 -0.0481 -0.0750 -0.1491
26311W        W41928   5.553   4.548  15.751  0.1028 -0.2755 -0.0629
26312W        W41929   5.695   5.244   0.507 -0.0683 -0.0288 -0.0292
26313W        W41930   0.974   3.192  15.954  0.1899 -0.2111 -0.0000
26314W        W41931  14.099  10.166  13.352 -0.2482 -0.0115 -0.0163
26315W        W41932  10.648   8.922  15.846 -0.3949  0.4230  0.0068
26316W        W41933   7.524   8.624   5.444  0.1286  0.4150  0.5012
26317W        W41934   6.022   1.695   3.071 -0.2331  0.0865  0.0579
26318W        W41935  12.912  13.023  16.101  0.1244 -0.1266 -0.1176
26319W        W41936   8.520  17.664   2.599  0.1725 -0.0117 -0.1154
26320W        W41937  13.050  16.755   5.581 -0.0592 -0.1938  0.0056
26321W        W41938  14.126  12.806  16.615  0.0784  0.1139 -0.0568
26322W        W41939   7.097  16.338   1.951  0.0232  0.0670 -0.1224
26323W        W41940   5.466   1.443  13.946 -0.1411 -0.2398 -0.0746
26324W        W41941  15.251   1.989   3.661  0.0367 -0.2129  0.1814
26325W        W41942   6.372   8.404  12.280 -0.0317  0.1162 -0.0321
26326W        W41943   6.193   4.738   0.851 -0.1472  0.0720  0.0332
26327W        W41944  15.632   1.411  13.809  0.1836  0.1935 -0.0178
26328W        W41945   1.969   2.997   0.934 -0.1646  0.1881  0.1120
26329W        W41946   9.186  11.048   3.637  0.1441 -0.1317  0.2314
26330W        W41947   2.998   0.043  16.060 -0.0455  0.1925  0.2302
26331W        W41948   2.819  16.646   5.790  0.1733  0.3826 -0.0539
26332W        W41949  13.457  17.218   0.446 -0.1241  0.0146  0.0314
26333W        W41950   6.942   2.569   0.403 -0.2953  0.1892  0.1921
26334W        W41951   3.124   8.773   6.062 -0.0963  0.2750  0.0964
26335W        W41952   4.809  14.210  15.859 -0.1457  0.1158 -0.0913
26336W        W41953  15.854   7.143   2.448 -0.2926  0.1818 -0.3599
26337W        W41954  12.897   6.664   4.495 -0.2255 -0.2339 -0.0445
26338W        W41955  11.026   0.541  11.675  0.0812 -0.1014  0.0426
26339W        W41956  15.866  11.250   0.242  0.0990  0.1392  0.0785
26340W        W41957  15.693  12.019  11.453 -0.2016  0.0865  0.0946
26341W        W41958  10.598  10.591  14.464  0.1253 -0.3120  0.2476
26342W        W41959  16.386   8.595  13.179  0.1259 -0.0342 -0.2009
26343W        W41960  17.630   6.400  14.796 -0.0280  0.0080  0.1410
26344W        W41961  15.266   9.484   0.090 -0.0079  0.0513  0.0754
26345W        W41962   2.980  14.891  11.728  0.0439  0.0729 -0.1666
26346W        W41963  14.662   6.761   0.668  0.0329 -0.1829  0.0543
26347W        W41964  12.701   5.508  15.624  0.0385 -0.0140 -0.0562
26348W        W41965  14.224  12.767   5.146  0.0249  0.2861 -0.0460
26349W        W41966   3.147   4.226  14.684  0.0514  0.0015 -0.0178
26350W        W41967   4.006  13.789   3.891  0.0291  0.0389 -0.0021
26351W        W41968  14.026  15.159  16.410 -0.2637  0.0901 -0.0536
26352W        W41969  12.432   5.601   4.112  0.0522 -0.0272  0.2638
26353W        W41970   6.229   0.921   4.340  0.0044  0.0064 -0.1031
26354W        W41971   5.126   5.825  11.904 -0.1941  0.1608  0.0337
26355W        W41972   1.744  11.024  15.281 -0.0509  0.2124  0.1414
26356W        W41973   5.168  10.274  15.924  0.0876 -0.2215 -0.1639
26357W        W41974  14.327   5.420   4.845 -0.3123 -0.0506 -0.2387
26358W        W41975   7.576   9.964   3.739 -0.1824 -0.0138  0.1951
26359W        W41976   4.619   3.970  11.794  0.2356 -0.3021  0.1425
26360W        W41977   3.763   1.830   2.787  0.1742 -0.0658 -0.0832
26361W        W41978   7.299  11.221   3.082 -0.4506  0.1717  0.0348
26362W        W41979   2.040  14.409   1.685 -0.1286 -0.0916  0.2376
26363W        W41980   2.531  12.329   1.583  0.0523 -0.0704  0.0556
26364W        W41981   9.796   8.587   4.453  0.0729  0.3502  0.0438
26365W        W41982   9.212  14.471  13.603  0.0188 -0.0400 -0.1865
26366W        W41983  14.695  11.156   1.295  0.2034 -0.1433  0.3233
26367W        W41984   5.588  15.971   4.667  0.1945  0.0269 -0.1559
26368W        W41985   1.906  17.586   0.469  0.1837 -0.3677 -0.4154
26369W        W41986   0.917  12.097  14.908 -0.4035 -0.4610  0.1982
26370W        W41987   6.505   1.874   5.899 -0.0267 -0.1899 -0.1254
26371W        W41988   3.667  12.845   3.616 -0.0315  0.1692 -0.0731
26372W        W41989   8.416   0.100   4.347  0.1744  0.2275  0.1808
26373W        W41990  14.434  17.865   1.283 -0.2218  0.4002 -0.0475
26374W        W41991   0.280  10.042   2.689  0.0697 -0.2682 -0.0631
26375W        W41992  14.613  12.824   3.521  0.1810 -0.1188 -0.1093
26376W        W41993  12.568  12.314   2.775  0.1744  0.1192  0.1206
26377W        W41994  12.679   1.143  15.182  0.0098 -0.0161  0.1875
26378W        W41995   3.049   2.288   4.652 -0.0167 -0.1284 -0.1301
26379W        W41996   1.465  12.832   3.253 -0.1267  0.0322 -0.1504
26380W        W41997   4.045  15.710  14.912 -0.0449  0.1244 -0.3038
26381W        W41998  17.141  10.827   2.528 -0.2052  0.1824 -0.1516
26382W        W41999   2.569   5.735  14.553 -0.0232  0.2891 -0.0458
26383W        W42000   8.606   3.506   3.818 -0.0236 -0.0271  0.0284
26384W        W42001  13.273   8.999   0.311  0.2095 -0.0754  0.3158
26385W        W42002   4.625  14.370   3.467  0.2779  0.2233  0.2294
26386W        W42003   6.301  13.694  16.061  0.1421  0.1146 -0.2076
26387W        W42004   6.700   8.000  12.445  0.0588  0.0836 -0.0693
26388W        W42005   9.764  14.378   5.634 -0.0528 -0.1646 -0.1357
26389W        W42006   9.854   2.325   1.782  0.0989 -0.2527 -0.1870
26390W        W42007   3.879   0.789   3.874 -0.0083  0.0279 -0.0307
26391W        W42008   2.134  10.320   2.191  0.0611  0.2914  0.2381
26392W        W42009   4.578   9.119   0.389 -0.3752 -0.0832  0.2161
26393W        W42010   5.263  13.385   0.370 -0.3343  0.4719 -0.1390
26394W        W42011  13.769  14.903  14.410  0.1136 -0.0120 -0.2704
26395W        W42012   7.925  11.450   0.878 -0.3622 -0.1128  0.2007
26396W        W42013  15.055   7.125  12.599 -0.1540  0.2780 -0.2767
26397W        W42014   8.020   9.186  14.226  0.0999 -0.0590  0.1329
26398W        W42015  17.227   0.043   3.183  0.0831 -0.1532  0.0327
26399W        W42016   7.451   1.598  16.099  0.3164  0.0823 -0.2546
26400W        W42017  15.426   6.158   4.551 -0.2069 -0.1462 -0.2219
26401W        W42018  11.888   7.548   5.053  0.0076 -0.0938 -0.0133
26402W        W42019   3.999  15.284   2.054  0.2524  0.0257 -0.1175
26403W        W42020  15.853   1.599  16.496 -0.2199  0.1516 -0.1962
26404W        W42021  14.558   9.787   2.170  0.1349  0.0734 -0.1368
26405W        W42022   5.491   3.333  16.368 -0.2213  0.1676  0.2558
26406W        W42023  14.048   3.292   5.247 -0.1231 -0.1290 -0.2785
26407W        W42024   8.439   1.820   0.981  0.0208  0.1538 -0.2457
26408W        W42025   0.607   2.171  13.458 -0.4252 -0.0840  0.1442
26409W        W42026   7.962  13.808   2.352  0.0083 -0.1251 -0.0771
26410W        W42027  12.013   2.525  14.293 -0.1190  0.0079  0.4331
26411W        W42028   7.180   8.948   5.606  0.1030 -0.2404  0.1737
26412W        W42029   5.586  10.876  14.424  0.0474  0.1195  0.0107
26413W        W42030  15.888  10.759  14.644 -0.1941 -0.3363 -0.1121
26414W        W42031  14.201   2.178  14.605  0.3122  0.2889  0.2024
26415W        W42032   0.927   6.475   0.206  0.0768 -0.0386  0.3377
26416W        W42033   3.921  12.314  12.796  0.3485 -0.0361  0.1646
26417W        W42034   6.519  14.664  11.939  0.2499  0.0843 -0.0338
26418W        W42035  10.657   1.715   3.719 -0.2746 -0.3278  0.0257
26419W        W42036  16.798   9.562   4.990 -0.0987  0.0291 -0.0720
26420W        W42037   6.514   7.869   5.052  0.1815  0.0838  0.1478
26421W        W42038  17.736   4.304  14.293  0.1718 -0.1453 -0.0214
26422W        W42039   9.712  12.122  12.098  0.0428 -0.1933  0.1173
26423W        W42040  14.786   4.416  16.109 -0.1168  0.0307  0.3390
26424W        W42041   6.594  15.072   0.026 -0.0177 -0.1996  0.1086
26425W        W42042   6.755   8.269   5.087  0.2319 -0.0339  0.0378
26426W        W42043   4.744  15.672  13.859  0.2512  0.1167 -0.2136
26427W        W42044  15.063   3.757  12.539 -0.2280  0.1623 -0.3184
26428W        W42045  11.704  11.740   1.952  0.2222 -0.1131 -0.0562
26429W        W42046  15.610   3.336   3.164 -0.0051 -0.0700 -0.4626
26430W        W42047   0.511  11.799  16.632 -0.0062 -0.0767  0.3151
26431W        W42048   9.957   9.566   6.070  0.1917  0.1976  0.0596
26432W        W42049   3.057   8.640  13.240  0.0136  0.1653  0.1009
26433W        W42050  17.066   6.063   4.165  0.0525  0.0485 -0.0953
26434W        W42051   4.037   4.389  11.363  0.1721 -0.1197  0.2860
26435W        W42052  12.764  14.643  16.395 -0.2632 -0.0053  0.0972
26436W        W42053  12.534  15.320   2.404  0.1957  0.1426 -0.1211
26437W        W42054   8.091   6.942   2.413  0.4619 -0.0692 -0.2067
26438W        W42055   1.348   0.099  14.302  0.2353  0.0309  0.2462
26439W        W42056   1.438   7.856  16.427 -0.1641 -0.1491  0.1746
26440W        W42057   8.488   2.734   1.590  0.0644  0.0007 -0.3061
26441W        W42058  16.798  17.485   1.225  0.0748  0.0975  0.1201
26442W        W42059  13.968  13.995  16.160  0.2261 -0.1052  0.0612
26443W        W42060   1.965   4.297  15.587 -0.2879 -0.3169 -0.3449
26444W        W42061   5.924   0.663  15.980  0.4742  0.0162 -0.1404
26445W        W42062   7.038  17.842  15.425 -0.2937  0.0277  0.1529
26446W        W42063  10.216  13.789   6.473  0.1703  0.0395 -0.2450
26447W        W42064  10.356   3.085   1.913  0.1236  0.1312  0.0629
26448W        W42065  12.366   2.939  13.501  0.1194  0.0911  0.0827
26449W        W42066   5.573  11.949   4.383  0.0016 -0.0308 -0.0617
26450W        W42067  15.255  13.814  15.300  0.1713  0.2658  0.0168
26451W        W42068  14.195   0.791  15.827 -0.1757  0.1327  0.0111
26452W        W42069  14.690   7.440   0.644  0.0341 -0.0476  0.0984
26453W        W42070  10.690   9.768   2.921 -0.0218 -0.1151  0.0696
26454W        W42071  12.214  16.860   4.695  0.2024  0.0281  0.2146
26455W        W42072  16.777   0.570   1.832 -0.2649  0.0091 -0.0170
26456W        W42073   0.965  10.739  12.578  0.1042  0.2473  0.0522
26457W        W42074   8.739   5.367   4.789  0.1503 -0.0285 -0.2905
26458W        W42075  14.936   9.541  12.615 -0.0527 -0.0022 -0.1769
26459W        W42076   9.618   1.402  13.695  0.1435 -0.1426  0.0625
26460W        W42077   4.308   9.399  16.795  0.1227 -0.0918  0.0709
26461W        W42078   5.197   0.743   1.238  0.0892 -0.0774  0.0998
26462W        W42079   0.554   1.417   5.074  0.0283  0.2348  0.2887
26463W        W42080   4.351   0.720   3.866  0.0135  0.0133  0.0524
26464W        W42081   7.347   1.864   0.820  0.1545  0.2785 -0.0530
26465W        W42082   6.144   5.148  14.923  0.1697  0.0228 -0.0174
26466W        W42083  11.603  16.473  14.397 -0.2365  0.0934 -0.1448
26467W        W42084  17.758  11.400   2.519 -0.0930 -0.0947  0.2329
26468W        W42085  15.722   5.229   5.180 -0.1206  0.1671 -0.2573
26469W        W42086   0.896   8.243   6.171  0.1126 -0.1533  0.1365
26470W        W42087  13.146  10.239  13.760  0.0321  0.1110  0.1611
26471W        W42088   9.662   0.280  13.239  0.0012  0.0913  0.0091
26472W        W42089  16.277  10.647   2.780 -0.0382 -0.0230 -0.0037
26473W        W42090   3.304   0.089  15.077 -0.0573 -0.0346  0.0867
26474W        W42091   8.918   7.928   4.595 -0.1915  0.0588 -0.1791
26475W        W42092  10.922   4.534   3.585  0.0434 -0.2173 -0.0271
26476W        W42093  14.072   9.703  14.660 -0.1321 -0.0599 -0.3485
26477W        W42094   8.103   4.622  16.101 -0.2184 -0.3323 -0.0009
26478W        W42095  13.394  12.272   0.012 -0.3551  0.0882  0.0073
26479W        W42096   8.454   3.282   4.276  0.1695  0.2859 -0.0590
26480W        W42097  13.719   2.922   1.424  0.1271 -0.1740  0.1478
26481W        W42098  16.199   1.401   0.929  0.3404 -0.0444  0.1424
26482W        W42099   7.483  12.921   2.304  0.0964  0.1839 -0.2577
26483W        W42100   0.273   4.249  15.019 -0.1006 -0.1846  0.2418
26484W        W42101   4.828  11.842   3.173 -0.0100 -0.0132  0.0968
26485W        W42102   9.200   2.342   0.009  0.3674 -0.0202 -0.0259
26486W        W42103  11.328  12.015  14.493 -0.1482 -0.4046 -0.1973
26487W        W42104  17.578  10.900   3.327  0.0497 -0.0257  0.1695
26488W        W42105  10.848   9.126  13.629  0.1421  0.1525 -0.1786
26489W        W42106   0.690  13.254   3.892 -0.1981  0.2215  0.3248
26490W        W42107   6.144   4.439  13.747 -0.1061 -0.0807 -0.0646
26491W        W42108   7.716  13.826  15.522  0.1844  0.0241  0.0225
26492W        W42109   5.833   8.458   3.211 -0.1231  0.0140  0.2347
26493W        W42110   5.813   1.319  11.778  0.0855  0.1278 -0.0990
26494W        W42111   4.223  13.570   4.718  0.3735  0.1086  0.0065
26495W        W42112  12.102  13.014   0.522 -0.3114 -0.2457 -0.3573
26496W        W42113   8.174  12.183  13.811  0.1262  0.2853 -0.0412
26497W        W42114  10.306   0.159  13.961  0.0355  0.0449  0.0631
26498W        W42115  15.966  14.977  12.447 -0.1520  0.2544  0.0805
26499W        W42116  11.984  16.982   0.114  0.0493  0.0654 -0.0920
26500W        W42117  17.857  16.106  14.551 -0.1810 -0.3163 -0.2540
26501W        W42118   4.193   2.939  12.122  0.4809  0.1912 -0.1794
26502W        W42119  11.689  12.198  14.856  0.0379 -0.0106 -0.0922
26503W        W42120  15.951   5.667   3.938  0.0483 -0.1716 -0.0083
26504W        W42121  12.427  12.320   5.461  0.0811 -0.0303  0.2070
26505W        W42122   6.626   8.331   1.827 -0.3094 -0.1323  0.1112
26506W        W42123   2.022   0.819   4.167 -0.0339 -0.2308  0.0762
26507W        W42124   3.317   5.248  15.817 -0.1276 -0.0282  0.1710
26508W        W42125   1.949  16.954   0.346  0.4502 -0.1943 -0.0498
26509W        W42126  17.787  11.134  13.269  0.1814 -0.4167 -0.3077
26510W        W42127  11.679  16.931   2.732  0.1409  0.1616 -0.0191
26511W        W42128   4.895   9.426  13.471  0.1307 -0.1619  0.0572
26512W        W42129  11.096  17.418   3.814  0.0119 -0.0716 -0.0953
26513W        W42130   5.513   0.930   5.604 -0.4978 -0.2418 -0.0222
26514W        W42131  16.049   9.196  15.899 -0.5799  0.0735  0.0122
26515W        W42132   9.245  15.840  15.606 -0.0762 -0.0322 -0.3196
26516W        W42133  10.379  12.374   2.977 -0.0923  0.2797  0.1475
26517W        W42134   7.654  11.595  16.159  0.1399  0.0643 -0.1430
26518W        W42135  17.084   0.774   0.938  0.2076  0.3777 -0.0909
26519W        W42136  14.927   3.392  15.290  0.0452 -0.0148  0.3286
26520W        W42137   7.393   9.901   3.214  0.2472 -0.0200 -0.1288
26521W        W42138   4.191   9.433   5.137 -0.0533  0.4074  0.1000
26522W        W42139  15.924   7.222   5.119  0.0335 -0.1656 -0.0349
26523W        W42140   8.374  14.070  14.191  0.1190 -0.1278 -0.1381
26524W        W42141  11.266  10.633   0.006  0.2298  0.0785 -0.0762
26525W        W42142   8.623   3.435  15.985  0.0339  0.0465  0.0693
26526W        W42143  12.433  13.822   4.932  0.5808 -0.3295  0.1377
26527W        W42144  11.920   8.161  15.747 -0.0535 -0.3777 -0.0629
26528W        W42145   0.273   6.590  14.858  0.2399 -0.0670  0.0677
26529W        W42146   2.124   9.925  16.708 -0.1718 -0.0768 -0.1340
26530W        W42147   6.954   3.967   6.438 -0.0890  0.1033  0.0750
26531W        W42148  15.617   9.803   4.425 -0.1440  0.1316 -0.1208
26532W        W42149  16.334  17.827   6.172 -0.4710  0.1516 -0.0419
26533W        W42150   8.312   4.181   0.234  0.1914 -0.1964 -0.0045
26534W        W42151  16.806   3.484   0.734  0.1704  0.2049  0.6493
26535W        W42152  12.708  11.419  13.680 -0.2120 -0.2122 -0.0819
26536W        W42153  11.434  16.997   2.314 -0.2407  0.0710  0.1905
26537W        W42154  17.363   2.246   3.262  0.1255 -0.0491 -0.0850
26538W        W42155   6.688   4.529   0.865 -0.1711 -0.0393  0.2081
26539W        W42156   1.083  10.491  12.085  0.1381  0.0929  0.3853
26540W        W42157   4.993  10.757   4.630 -0.0841 -0.0800 -0.1264
26541W        W42158   7.768  16.754  11.994  0.1338  0.1596 -0.1576
26542W        W42159  10.404  15.730   1.152  0.0315  0.1046  0.1287
26543W        W42160   5.517  13.165  15.993  0.0587  0.1913  0.2517
26544W        W42161  12.229  10.283  15.858  0.0995 -0.0774  0.1801
26545W        W42162   4.451   7.714  15.345 -0.4393  0.1090  0.2590
26546W        W42163   5.864   4.725   1.264  0.0489 -0.2210 -0.3306
26547W        W42164   5.690   1.979   3.868 -0.3358  0.1258 -0.0346
26548W        W42165  17.248   6.476   2.730 -0.1019 -0.2057  0.3783
26549W        W42166  11.618   1.847   3.406  0.1508  0.0091 -0.0554
26550W        W42167  13.192  14.521  15.346 -0.0819 -0.0605  0.5748
26551W        W42168  17.004  17.789  14.580  0.0178  0.2211 -0.0775
26552W        W42169  13.539   1.681  11.140 -0.2359 -0.0115 -0.0737
26553W        W42170   9.632   6.810   1.712  0.0915 -0.0675 -0.0088
26554W        W42171   8.069   4.828  14.882 -0.0528 -0.2078  0.0864
26555W        W42172   7.096   6.934   5.560 -0.0911 -0.1425 -0.0635
26556W        W42173  11.717  13.242  15.126  0.4452 -0.0286  0.1837
26557W        W42174  16.842   9.619   3.476 -0.3979  0.0573 -0.1126
26558W        W42175  11.870   6.750  15.574  0.2164 -0.0973 -0.0056
26559W        W42176   9.919  11.572  13.461 -0.1116 -0.0104 -0.2971
26560W        W42177  13.196  16.017   5.761  0.1805 -0.0280 -0.3123
26561W        W42178   2.776   7.589   4.663  0.1038 -0.2674 -0.1291
26562W        W42179   4.953  14.335  14.502  0.3385 -0.0245 -0.1188
26563W        W42180  15.385   9.494   0.676 -0.1275 -0.2215  0.0094
26564W        W42181   4.372  13.257   4.264  0.3211  0.1363  0.1568
26565W        W42182   5.214  12.064  11.663 -0.0230 -0.1182 -0.2580
26566W        W42183  16.407  11.282  12.336 -0.1058  0.0316  0.1416
26567W        W42184   3.383   6.269  13.012  0.1016  0.1702  0.3361
26568W        W42185   9.810   7.781   3.515  0.1965  0.0302 -0.2018
26569W        W42186  13.383   4.713   3.332 -0.1747  0.0627 -0.0249
26570W        W42187  15.358   9.157  11.846 -0.1529  0.1243  0.0827
26571W        W42188   9.069  15.261   0.415 -0.1986  0.1227 -0.0260
26572W        W42189   6.753  13.096   1.253 -0.2749 -0.0325 -0.1115
26573W        W42190  10.273   4.411   0.080 -0.0869  0.0184  0.2805
26574W        W42191  13.577  14.057  12.478  0.0806 -0.0817 -0.1943
26575W        W42192  10.657   1.458  14.317  0.2413  0.1175  0.2822
26576W        W42193  15.617   3.824  14.002  0.0001 -0.0999  0.2028
26577W        W42194  12.287  14.698   3.917  0.2992  0.1488  0.1962
26578W        W42195   7.662   3.857   5.272 -0.1267  0.5493  0.2620
26579W        W42196  15.473   2.766   6.450  0.1948 -0.1080 -0.3607
26580W        W42197  13.881   6.315   2.611 -0.1655 -0.2368 -0.1450
26581W        W42198   4.426   7.657   2.503  0.2069 -0.0335  0.0863
26582W        W42199   6.820  12.419  14.365  0.0878  0.3121  0.1390
26583W        W42200   0.267  16.494  10.137  0.2425 -0.1267 -0.0977
26584W        W42201   4.061  16.065  15.426 -0.0227 -0.0125  0.1452
26585W        W42202   4.460  13.046   4.736 -0.3112  0.2202 -0.0341
26586W        W42203   8.869  13.045   1.782 -0.2270  0.0313 -0.0369
26587W        W42204  13.768  10.974   3.374 -0.1627  0.1387 -0.2683
26588W        W42205   8.210   7.569   1.797 -0.0020 -0.0316  0.2000
26589W        W42206   1.815   6.279  14.346 -0.1306 -0.1600  0.1552
26590W        W42207  12.138  10.773  13.413 -0.2783  0.0484 -0.0406
26591W        W42208  11.585   9.153   4.880 -0.1599 -0.1610 -0.1258
26592W        W42209  10.373  12.872   5.251  0.1915  0.0060 -0.1730
26593W        W42210  12.974  15.624   1.517  0.0678 -0.1418  0.0025
26594W        W42211   2.950  16.244  11.740  0.0486 -0.1211 -0.2194
26595W        W42212   6.515  14.220  13.556 -0.5916  0.5195  0.3009
26596W        W42213   7.553  11.746   1.226 -0.0199  0.2652  0.2292
26597W        W42214  10.449   5.234   1.264  0.1433  0.0339  0.0584
26598W        W42215  14.460   5.735   5.605  0.5385 -0.0423  0.0478
26599W        W42216  13.368   8.145  14.449  0.0371 -0.0071  0.0833
26600W        W42217   2.788  13.058  13.804 -0.0662 -0.1899  0.2731
26601W        W42218   4.233  10.995   3.388  0.0330  0.0139  0.0641
26602W        W42219   8.222  12.864  15.215  0.1969 -0.1467  0.2377
26603W        W42220   9.829  16.514  16.103  0.2014 -0.3018  0.0687
26604W        W42221   0.674   1.976  14.984 -0.2262 -0.2155  0.3521
26605W        W42222   1.081  12.997   4.843 -0.0794  0.0263  0.0752
26606W        W42223  15.047  12.270  14.380 -0.0636 -0.2668  0.1010
26607W        W42224  11.943   7.875   3.838 -0.1793 -0.0828  0.3399
26608W        W42225  15.344   3.141   4.654 -0.1855 -0.0896  0.3154
26609W        W42226  16.783   8.220  16.753  0.0109 -0.0186 -0.2431
26610W        W42227   4.707   9.612   5.103 -0.1068 -0.1744 -0.0894
26611W        W42228  16.939  11.849  15.243 -0.0975 -0.0205 -0.1732
26612W        W42229   7.186   3.584  12.068 -0.0370 -0.0043 -0.1431
26613W        W42230   0.971   0.372  10.934  0.0527  0.0492 -0.1957
26614W        W42231   0.693  14.558   2.222 -0.0536 -0.2062 -0.1018
26615W        W42232  10.247  16.243   0.117  0.1056 -0.1834 -0.4186
26616W        W42233  16.565  15.837  12.767  0.0218 -0.3449 -0.3681
26617W        W42234   5.250   7.793   3.202  0.2557  0.2438 -0.1200
26618W        W42235   9.176  15.024  12.638  0.3625 -0.0825 -0.1256
26619W        W42236   5.790  17.153  12.196 -0.0701  0.0454 -0.1723
26620W        W42237   4.866  10.941  16.471 -0.1613 -0.0261 -0.0815
26621W        W42238   9.675   6.240   1.626  0.0475 -0.2364 -0.2119
26622W        W42239   6.905   6.520   5.220  0.1818  0.5236  0.2152
26623W        W42240   2.202   4.273  13.009 -0.0193 -0.1630  0.0725
26624W        W42241   7.223   3.031  15.087 -0.0727 -0.2072  0.3043
26625W        W42242  11.683  16.130  10.645 -0.2167 -0.2152 -0.0108
26626W        W42243   8.541  12.312   4.273  0.0292  0.2771 -0.0256
26627W        W42244  11.402   4.783  12.841  0.0689  0.4937 -0.2480
26628W        W42245   5.123   7.258  13.508  0.3870 -0.0399  0.1150
26629W        W42246   3.204   5.074   4.474 -0.0727  0.0988 -0.0915
26630W        W42247   5.425   5.547  14.570 -0.0132 -0.0378 -0.2437
26631W        W42248  16.099   2.446   2.830  0.1047 -0.0888 -0.0905
26632W        W42249  13.336  11.465   4.331  0.4009 -0.2473  0.1886
26633W        W42250   6.172  10.410  14.807  0.1805  0.1931  0.0839
26634W        W42251   6.400   9.464  12.085 -0.1517  0.2504 -0.1419
26635W        W42252   6.094  16.885   5.775  0.0479 -0.0608  0.3094
26636W        W42253   6.831   1.369   0.673  0.1167 -0.1744 -0.0454
26637W        W42254   0.044   3.648  12.344 -0.0907 -0.0220 -0.2286
26638W        W42255   2.430  13.559   5.164  0.0916  0.1806  0.2383
26639W        W42256   8.479  17.378  16.185 -0.1290  0.1182 -0.1491
26640W        W42257  15.301   2.646  11.696 -0.0582 -0.4306 -0.1961
26641W        W42258   0.207   3.810   1.210  0.2188  0.1935  0.0432
26642W        W42259   7.971   5.021  13.436 -0.0668  0.1409  0.1996
26643W        W42260  12.987  16.495   1.040  0.0240 -0.1428 -0.1461
26644W        W42261  17.665  14.849  12.646  0.0696  0.0048  0.2626
26645W        W42262  17.844  13.619   0.368 -0.2152  0.0992  0.0244
26646W        W42263   2.120   4.202  13.494 -0.3258 -0.1506  0.2875
26647W        W42264   7.310  13.306   6.576 -0.0437 -0.2298  0.1909
26648W        W42265   8.365   4.684   4.496 -0.0477 -0.1823  0.1585
26649W        W42266   5.418   8.988  12.810  0.3197 -0.3151  0.2529
26650W        W42267   3.449   5.602   6.441  0.0106  0.0501  0.2403
26651W        W42268   3.500   5.799   4.816  0.3785 -0.2134 -0.3120
26652W        W42269   9.856   2.195  15.643  0.1768 -0.3434 -0.0410
26653W        W42270  15.832   8.454   1.938 -0.0198  0.1075  0.0776
26654W        W42271  12.023   3.798   0.399  0.1117 -0.2361  0.1709
26655W        W42272  10.174   1.720   3.594  0.2286 -0.1344  0.1315
26656W        W42273   3.719   3.148  13.309  0.0392  0.0559 -0.0383
26657W        W42274   3.344  13.698  12.445 -0.3056 -0.0834  0.0199
26658W        W42275   6.796   6.548  13.220  0.0510  0.4309 -0.5137
26659W        W42276   2.026   7.538  11.580  0.1422  0.0393 -0.4989
26660W        W42277   5.979   3.476  16.234 -0.1809  0.0279 -0.1432
26661W        W42278  16.269   0.929   2.923  0.1938  0.1771  0.0044
26662W        W42279   8.296   6.575   4.360  0.0405  0.2842  0.0078
26663W        W42280  14.851   3.094   4.330 -0.1412 -0.1839  0.3910
26664W        W42281   8.151   5.660  15.269  0.0425  0.0844  0.1384
26665W        W42282  16.437  15.096  12.383 -0.1127  0.1065 -0.2908
26666W        W42283  15.420   0.310   5.986 -0.0661 -0.3453 -0.0654
26667W        W42284   2.016  13.754   0.028  0.3880 -0.0449  0.2317
26668W        W42285  10.772  14.690   1.177 -0.1386  0.2144  0.2198
26669W        W42286  17.630   4.882   3.063  0.0079 -0.1253 -0.1607
26670W        W42287   3.843  12.216   1.048 -0.1710  0.0273 -0.2890
26671W        W42288  16.159   0.114   2.346 -0.1333 -0.0368  0.0042
26672W        W42289   2.337   1.958   5.735  0.0575 -0.1274 -0.2127
26673W        W42290   4.661  12.556  14.308 -0.1123  0.1604  0.1334
26674W        W42291  16.136  17.759   1.606 -0.1229 -0.0994 -0.1338
26675W        W42292   5.068   3.638   0.872 -0.1892  0.0466 -0.3340
26676W        W42293  13.113   1.375  15.822 -0.2747  0.1126 -0.2464
26677W        W42294   4.201   4.473   4.020  0.0706 -0.0631  0.0765
26678W        W42295   5.496   5.628   2.741 -0.0751  0.2516 -0.3007
26679W        W42296   1.499  15.310   3.680 -0.1951  0.0473 -0.0431
26680W        W42297  10.450   0.718  13.121 -0.2096  0.0973 -0.0802
26681W        W42298   5.121   7.517   0.738  0.2901 -0.0952 -0.0575
26682W        W42299   2.939   5.391   5.639  0.3240  0.2612  0.1226
26683W        W42300   1.496   4.495  13.416 -0.1879 -0.0108 -0.2527
26684W        W42301   7.560   5.950  13.432 -0.3556  0.0296 -0.0549
26685W        W42302   4.089   0.508   0.813 -0.1401  0.0563  0.3025
26686W        W42303  17.849   7.565   2.209  0.1758  0.0349 -0.0982
26687W        W42304   5.669   8.842  14.617  0.3593  0.2101  0.1233
26688W        W42305  10.666  13.266  15.289 -0.0611  0.1365  0.0366
26689W        W42306   4.006   9.803   4.663  0.0020  0.1640 -0.0443
26690W        W42307  11.191   0.478  12.844  0.3316  0.2256  0.1481
26691W        W42308   0.230   7.668  16.667  0.0783  0.2861  0.1606
26692W        W42309  15.584   7.084   4.745 -0.0504 -0.1925  0.1107
26693W        W42310   4.596  11.399   3.065  0.0861  0.1848 -0.2174
26694W        W42311   3.653  14.940   1.882 -0.0740  0.1781  0.1232
26695W        W42312  14.686  14.777  13.490 -0.1315  0.1381  0.0585
26696W        W42313   3.291  10.711  11.669  0.0391 -0.1372  0.3137
26697W        W42314   1.144   3.625   1.774  0.1603 -0.1039 -0.2012
26698W        W42315  13.943  13.052  15.368  0.2688  0.1759 -0.1637
26699W        W42316  11.006  13.548  16.732 -0.0133 -0.0630  0.1398
26700W        W42317  15.478  11.635   0.348  0.1570  0.0280  0.1775
26701W        W42318   7.726   1.298  13.788 -0.0911 -0.1857 -0.4899
26702W        W42319   0.632   0.414  11.721 -0.0372  0.0499  0.1890
26703W        W42320   4.791   7.360  11.651  0.1982  0.0127 -0.0980
26704W        W42321  15.884  14.003   1.416 -0.2056 -0.3481  0.2571
26705W        W42322  16.712   9.951   2.597  0.1195 -0.1127  0.0368
26706W        W42323  17.229  11.366   0.151  0.0230 -0.0828 -0.2106
26707W        W42324  15.438   5.754  12.569 -0.0133  0.1172 -0.0625
26708W        W42325   7.371   9.656   5.043  0.0696  0.1431  0.0369
26709W        W42326  16.300   6.514  14.793 -0.1598  0.0661  0.1961
26710W        W42327  14.769  12.388  16.077 -0.0472  0.0581 -0.2256
26711W        W42328  15.038  13.732  16.739 -0.3645 -0.2479  0.1532
26712W        W42329  10.325   0.579   1.318  0.0815 -0.0087  0.2073
26713W        W42330   2.180   6.007  14.722 -0.2450 -0.1347  0.2877
26714W        W42331   7.295   0.399  11.500 -0.0082  0.0659  0.0716
26715W        W42332  12.238   7.968   5.023 -0.3654 -0.1132  0.1888
26716W        W42333  14.200   2.450   1.544  0.2272 -0.3067 -0.2210
26717W        W42334   8.188  16.957  12.349 -0.3459  0.1638 -0.1252
26718W        W42335   2.246  16.032   2.699 -0.1769 -0.1165  0.0646
26719W        W42336   2.505   5.780   3.989  0.1724  0.0204  0.0748
26720W        W42337  14.709  12.700   0.739 -0.0196  0.0730  0.1696
26721W        W42338   4.239  14.253   0.634  0.1195  0.2614  0.1348
26722W        W42339   2.366   6.257  14.318  0.3486  0.0929  0.0517
26723W        W42340  15.539  17.733   4.191 -0.1020 -0.0296 -0.0401
26724W        W42341   6.035  11.967  12.966 -0.2242 -0.4016 -0.0279
26725W        W42342  13.289  14.488   1.104  0.2240 -0.1317  0.1623
26726W        W42343  13.971   7.658   2.473 -0.2551 -0.1496  0.1247
26727W        W42344  17.614  12.424   3.325 -0.0675  0.1503  0.1869
26728W        W42345   8.982   1.950  15.148 -0.1059  0.0300 -0.1476
26729W        W42346  10.957   0.966   0.705  0.0376  0.0461  0.0967
26730W        W42347   7.568   2.174   1.147  0.1343  0.1045 -0.0593
26731W        W42348   9.317   4.590   4.489  0.0341  0.0591  0.2688
26732W        W42349  16.115  10.137   5.237 -0.0472 -0.0437 -0.1536
26733W        W42350   4.516  15.289  14.176  0.3311  0.0657  0.4434
26734W        W42351   0.531   4.342   3.009  0.0761 -0.0340 -0.0335
26735W        W42352   7.919   4.452   0.452  0.0461  0.1948  0.1942
26736W        W42353  13.400   7.940  13.089  0.1413  0.1366  0.0204
26737W        W42354  13.934  10.593   5.610 -0.0400  0.1784 -0.1007
26738W        W42355   2.316  14.898   2.094 -0.1872  0.0634  0.2585
26739W        W42356  14.962  10.233   0.560 -0.1900  0.1725  0.0220
26740W        W42357  12.057   2.862  14.670 -0.1330  0.0652  0.1931
26741W        W42358  13.061  12.627  16.434  0.2096  0.1572 -0.1400
26742W        W42359   4.396  11.231  12.527  0.0058  0.0355  0.1042
26743W        W42360   4.120  13.829  16.621  0.0533  0.2078  0.1128
26744W        W42361  10.796   2.226  12.583  0.1808 -0.3032  0.1396
26745W        W42362  11.626  11.593   0.947  0.3376  0.0778 -0.2315
26746W        W42363   7.985  15.033  16.209  0.1991  0.0805 -0.1910
26747W        W42364   7.655   4.298  14.354  0.2816 -0.0034  0.2635
26748W        W42365  10.099  14.757   5.290 -0.4298 -0.0823 -0.1019
26749W        W42366   0.421   5.840  15.736 -0.1728  0.1946  0.4211
26750W        W42367   6.461   6.432  11.549 -0.1262  0.2125  0.0453
26751W        W42368  15.899   0.484  13.069 -0.0804  0.0907 -0.0682
26752W        W42369   7.551   1.931   2.021  0.1463 -0.0295 -0.0758
26753W        W42370   4.230  14.608   3.672  0.0996 -0.1390 -0.1438
26754W        W42371   4.763   4.823  11.633  0.0745  0.4339  0.0018
26755W        W42372   5.729   5.445  14.966 -0.1349  0.1052  0.2942
26756W        W42373  15.226  11.096   5.309  0.1900 -0.0665 -0.1229
26757W        W42374   6.897  11.449  15.658 -0.1198 -0.1813  0.2430
26758W        W42375  11.326   1.568   5.168  0.1531  0.2598  0.1819
26759W        W42376   0.088  15.347  15.474  0.2053  0.1395  0.1241
26760W        W42377   8.580   9.238  11.895  0.3921 -0.0607  0.0750
26761W        W42378   5.492  17.627   5.763 -0.0280  0.0051  0.0261
26762W        W42379   5.060  12.066   0.322 -0.2310  0.1013  0.2245
26763W        W42380   9.487  14.320   2.295  0.0847  0.2322  0.2646
26764W        W42381   4.630  17.652   5.517 -0.2041  0.1624  0.1950
26765W        W42382  13.428  13.820   2.350 -0.1504 -0.1960  0.0746
26766W        W42383   5.395   1.542   5.076  0.3046  0.0831 -0.2839
26767W        W42384   8.257  17.468  11.348  0.1605 -0.0311  0.2598
26768W        W42385  16.449   4.722  11.725 -0.0845 -0.0106  0.1065
26769W        W42386  16.704  14.027   4.047 -0.0304 -0.2123  0.1934
26770W        W42387   7.174  17.853   0.703 -0.0069  0.1015  0.1191
26771W        W42388  13.036   1.932   4.679 -0.4263  0.3382  0.2373
26772W        W42389   1.198   2.426  12.775 -0.3114 -0.1082 -0.3094
26773W        W42390   6.114   3.064   3.228 -0.1366  0.0865 -0.0261
26774W        W42391   1.370   1.247   1.576  0.1581 -0.1257 -0.1389
26775W        W42392   9.580  11.669   4.666  0.1730  0.0316 -0.1031
26776W        W42393   7.457  12.165   3.852  0.0795  0.1799  0.1488
26777W        W42394  12.821  10.335   4.489  0.1160  0.1443  0.1515
26778W        W42395  14.757  10.344  15.941  0.1179 -0.0809  0.0145
26779W        W42396   7.182  12.380   5.197 -0.2005 -0.1291  0.1527
26780W        W42397   0.546   6.668   4.299  0.0744 -0.0420 -0.1247
26781W        W42398   1.092   9.670  13.591  0.3575  0.0647  0.0282
26782W        W42399  13.227  12.111  12.192  0.4833  0.1602  0.1840
26783W        W42400   5.618  10.173   4.589  0.3234  0.0003 -0.2492
26784W        W42401  17.515  12.560   3.808 -0.1024  0.0408 -0.0575
26785W        W42402  15.507  12.003   5.427 -0.0618 -0.0298 -0.0142
26786W        W42403   7.303   9.931  12.411  0.0512 -0.0658 -0.2442
26787W        W42404  13.515   1.511  13.156  0.2419 -0.1759  0.0855
26788W        W42405   4.055  11.242  15.544 -0.1365 -0.0231 -0.3232
26789W        W42406  12.473   1.522  14.447  0.1885  0.1057  0.2796
26790W        W42407   3.789  12.082  16.598 -0.0212  0.1892 -0.2083
26791W        W42408  11.521   7.688  13.082  0.0935 -0.1013  0.2403
26792W        W42409  14.741   3.332   3.712 -0.0601 -0.1438 -0.4293
26793W        W42410   9.803  13.678  16.048  0.1389 -0.1596 -0.3926
26794W        W42411   4.420  12.098   5.085  0.0139 -0.0502  0.2049
26795W        W42412   1.271  16.761   1.409  0.1114 -0.4635 -0.1187
26796W        W42413   8.881   7.738  13.211 -0.0562  0.2195 -0.2420
26797W        W42414   5.177   1.355  12.744 -0.0689  0.3445 -0.1264
26798W        W42415   4.702  16.104  11.645 -0.2074  0.0059 -0.1530
26799W        W42416  10.070   2.011  14.357  0.2248  0.0505  0.0475
26800W        W42417  11.938   9.645  13.597 -0.0608  0.1667  0.0752
26801W        W42418   2.909   4.330   2.061 -0.2102  0.2510  0.0107
26802W        W42419   6.845  11.075  16.130 -0.1171 -0.2677 -0.1564
26803W        W42420  10.590  13.519  16.377  0.1453  0.1188  0.0161
26804W        W42421  17.042  10.152  15.867 -0.1793 -0.1030  0.0531
26805W        W42422  13.595   7.108  14.154  0.3301 -0.0871  0.0579
26806W        W42423   2.150   4.483   0.413  0.2249  0.2840  0.2831
26807W        W42424  15.121   7.717  13.695 -0.3909  0.0610 -0.0102
26808W        W42425  13.330   7.031   0.278  0.2117 -0.0138 -0.3918
26809W        W42426   3.565   9.098   0.270 -0.0008 -0.2986 -0.0268
26810W        W42427  17.000  15.218   5.711 -0.1562  0.1613  0.0451
26811W        W42428  13.478  13.271   4.849  0.1588  0.2933  0.1994
26812W        W42429   4.954  17.544  11.274  0.0211 -0.0460  0.1905
26813W        W42430   5.136  10.691  11.777  0.1453  0.0295  0.0590
26814W        W42431  13.706  11.595   3.941  0.1580  0.0090 -0.2077
26815W        W42432  12.631   6.296   2.053  0.3575 -0.0734  0.1810
26816W        W42433   9.069   5.987  13.199  0.0366 -0.1248  0.3122
26817W        W42434  12.740   5.026  16.065 -0.2158  0.1107 -0.0249
26818W        W42435  14.952  12.368   1.000  0.2514  0.1333 -0.2111
26819W        W42436   7.498   8.473   3.265  0.0078 -0.0661 -0.3364
26820W        W42437   3.661  12.107   5.066 -0.1997  0.0069 -0.0307
26821W        W42438   8.253   8.171   1.683  0.0521 -0.2065  0.0721
26822W        W42439  14.716   7.085   1.936  0.2560  0.2415 -0.1563
26823W        W42440  12.821  11.394   3.157  0.0291 -0.1003  0.1765
26824W        W42441  10.305   1.522  13.229  0.0816  0.0554  0.4352
26825W        W42442  10.958  12.326  12.584 -0.1662 -0.1216 -0.2212
26826W        W42443  10.355  14.594  16.261 -0.0210  0.0974  0.0327
26827W        W42444  15.438  16.211  14.576  0.2427  0.2228  0.0486
26828W        W42445  16.881   8.031  13.594 -0.2094 -0.1861  0.6377
26829W        W42446  16.834  10.376  12.692 -0.0076 -0.1082  0.2923
26830W        W42447   1.791  10.033   1.208 -0.1266 -0.2132 -0.1696
26831W        W42448   2.593  15.060  13.982  0.0695  0.1920  0.1747
26832W        W42449   1.558  16.658   2.398 -0.1499 -0.1352  0.2452
26833W        W42450   0.247  12.295   0.646  0.2778 -0.1833 -0.1045
26834W        W42451   2.685   5.664  15.047  0.2148  0.1583  0.0790
26835W        W42452   7.324   9.830   4.129 -0.0030  0.1248 -0.0535
26836W        W42453   6.655   7.916   0.482 -0.4050  0.0423  0.0396
26837W        W42454  11.877  15.192   1.285  0.0600 -0.4164 -0.1989
26838W        W42455   6.044   4.201   2.399 -0.0711 -0.0704  0.0318
26839W        W42456  17.116   1.848   3.271 -0.0599 -0.1383 -0.1179
26840W        W42457   1.832   0.983   2.890 -0.3858 -0.1846 -0.0828
26841W        W42458  16.490   6.033   3.172  0.2264  0.1224 -0.1482
26842W        W42459   2.465   5.960   5.764 -0.1317  0.1420  0.2107
26843W        W42460  17.077  14.600   2.797 -0.2914 -0.4095 -0.1354
26844W        W42461   6.715   1.529  13.531  0.0143 -0.1098  0.1244
26845W        W42462  15.167   5.474  12.196  0.0605 -0.2312 -0.0680
26846W        W42463  13.605  13.820   4.745  0.1779 -0.0454  0.3564
26847W        W42464   0.742   5.588   3.474 -0.1864  0.2079  0.1319
26848W        W42465   9.670  11.481  14.814 -0.0128 -0.0885  0.2838
26849W        W42466  13.825   6.575   2.159 -0.0625  0.1047 -0.2031
26850W        W42467   2.094  10.394  14.332  0.1046 -0.0528  0.0408
26851W        W42468  12.293   4.363  15.461  0.0807 -0.1962  0.1449
26852W        W42469   4.734  10.722  13.999  0.0446  0.0484  0.0668
26853W        W42470   2.298  10.613  12.934  0.0391  0.0006  0.1580
26854W        W42471   5.668   2.049   3.013  0.2721  0.0026 -0.1307
26855W        W42472   5.817  11.660  14.015 -0.1280  0.1839 -0.0255
26856W        W42473  15.600  15.565  12.984 -0.0439  0.0431 -0.2981
26857W        W42474  14.940   1.556  11.792  0.0972 -0.0470 -0.2270
26858W        W42475   4.822  16.209   1.605  0.0121 -0.0979  0.0021
26859W        W42476  11.374   3.980  14.653 -0.1340 -0.3412 -0.0082
26860W        W42477   8.151  13.925   3.599 -0.1813  0.0355  0.3005
26861W        W42478   4.837  14.770   4.522 -0.3136 -0.0676  0.1373
26862W        W42479  15.616  17.102   1.451  0.1136 -0.1197 -0.1877
26863W        W42480  12.106   7.030   4.285  0.0093  0.1591  0.2371
26864W        W42481  12.495   8.374  12.521 -0.3432 -0.1456 -0.1389
26865W        W42482  14.044   7.069   1.710 -0.1720 -0.1466 -0.1526
26866W        W42483  10.203   0.877  15.620 -0.1448 -0.0671 -0.1726
26867W        W42484  13.736   3.887  16.274  0.0457 -0.0823  0.0139
26868W        W42485   5.041   0.122  15.675  0.4558  0.1505 -0.1434
26869W        W42486  17.463  11.683   4.354  0.0061  0.0781  0.0404
26870W        W42487   0.545  14.881   2.740 -0.1500  0.1209 -0.2401
26871W        W42488  13.863  10.444  12.087  0.0054  0.2887 -0.1402
26872W        W42489  10.929   7.525   4.974  0.0743  0.2986 -0.1198
26873W        W42490  10.559   7.482   0.945 -0.0674 -0.1224  0.1762
26874W        W42491   1.776   8.274   1.442  0.0409  0.0909 -0.1536
26875W        W42492   0.675  11.246   1.351  0.1738  0.0329  0.0867
26876W        W42493   7.930   5.105   1.363 -0.0904  0.1865  0.0753
26877W        W42494   2.607   9.398  13.245  0.3117 -0.0760 -0.1438
26878W        W42495   2.681  17.669   1.417 -0.1233  0.0463  0.0682
26879W        W42496   6.807   8.462  15.358 -0.0370 -0.0211  0.1306
26880W        W42497   2.759  13.529  15.711  0.0774  0.1830 -0.0476
26881W        W42498   9.885   1.625   0.015 -0.1189 -0.1781 -0.1226
26882W        W42499  13.544   3.356   1.255  0.5592 -0.0142  0.1436
26883W        W42500   6.646  15.106  12.895 -0.0266  0.0189 -0.2726
26884W        W42501  15.350   6.598  11.974 -0.1883 -0.0386  0.0709
26885W        W42502  10.675   7.927  14.573  0.1629 -0.0470 -0.1054
26886W        W42503   5.014   2.598   1.036 -0.0330  0.2615 -0.1237
26887W        W42504   9.263  17.603   4.313  0.2146  0.1495  0.0293
26888W        W42505  15.596   9.942   1.697 -0.1112 -0.0744  0.0529
26889W        W42506   9.727   4.696   0.874  0.3704 -0.1813  0.1582
26890W        W42507   6.439   8.945   4.462 -0.0935 -0.1259 -0.0309
26891W        W42508   0.830  15.233   6.173  0.2600 -0.0568  0.2757
26892W        W42509  17.731   4.029   0.059 -0.0903  0.1524 -0.0227
26893W        W42510   6.063   0.583   4.646  0.1739 -0.2593  0.0065
26894W        W42511  15.997  17.282   0.186 -0.2729  0.2098 -0.0301
26895W        W42512   9.529  13.548   0.951  0.1014  0.1723  0.0736
26896W        W42513   0.571   2.750  11.274 -0.2715 -0.0491  0.0819
26897W        W42514   1.648  17.004   4.107  0.2206 -0.1688  0.0770
26898W        W42515  10.566  13.645  10.300  0.0642  0.1387  0.1183
26899W        W42516  15.706   3.893  15.173  0.0081  0.0795 -0.0434
26900W        W42517  17.069   3.917  13.317 -0.3436 -0.3320  0.0682
26901W        W42518   9.183  12.923   0.332 -0.0399 -0.1473  0.1330
26902W        W42519  13.577   1.911   3.836  0.0710 -0.1779  0.1066
26903W        W42520  16.693   8.833  15.936  0.1921  0.0990 -0.0559
26904W        W42521  16.128  10.349   6.077  0.0982  0.1222  0.1193
26905W        W42522  16.484  10.680   3.647 -0.0178 -0.0821 -0.1908
26906W        W42523   9.377  14.166  14.635  0.3943 -0.1477 -0.0095
26907W        W42524   8.127  16.118  16.224 -0.0499  0.0441 -0.0471
26908W        W42525  13.645  10.408   3.128  0.0630  0.2302  0.3730
26909W        W42526   7.187  12.488   3.517  0.0588  0.1830 -0.0504
26910W        W42527  11.507   7.113  13.018 -0.1115  0.1828 -0.0039
26911W        W42528   5.733  10.379  14.071 -0.1265  0.0908  0.0993
26912W        W42529   9.245   0.956   1.076 -0.0601 -0.0809 -0.0241
26913W        W42530  17.249   8.070  12.535  0.1142  0.2006  0.0539
26914W        W42531   3.910  11.366  13.190  0.1135 -0.1082 -0.3057
26915W        W42532  16.692  14.660  16.648 -0.0741 -0.0740  0.0365
26916W        W42533   4.281  10.535   2.183  0.0088  0.0459  0.1364
26917W        W42534   4.503  11.803  14.686  0.1178  0.2776  0.1024
26918W        W42535   0.076   3.239  15.623 -0.0992  0.1784 -0.1434
26919W        W42536  14.954   1.193  16.787  0.0900  0.0692 -0.2373
26920W        W42537   1.051   1.934   1.028  0.0320 -0.3567  0.0046
26921W        W42538  12.212  16.386   0.777 -0.0099  0.1549 -0.0419
26922W        W42539   7.052   0.351   2.343  0.0179  0.2369  0.2662
26923W        W42540  12.182   0.830  16.674 -0.1769 -0.2616  0.0491
26924W        W42541   4.292  14.842   5.186 -0.0714  0.0949  0.3275
26925W        W42542   1.699   7.885   4.845 -0.0756 -0.1131  0.3006
26926W        W42543  10.446   3.427  15.280 -0.2490  0.0201 -0.0722
26927W        W42544  15.348   0.667   3.355 -0.2825 -0.3683  0.0709
26928W        W42545  13.927   8.698   1.295  0.0212 -0.0746  0.2467
26929W        W42546  16.852   5.832  14.486 -0.1065 -0.1639 -0.0563
26930W        W42547   8.679   0.907   1.789 -0.2153  0.2826  0.2121
26931W        W42548   7.295  13.705  15.875 -0.2502 -0.1268 -0.1913
26932W        W42549   7.907  12.632   5.602 -0.1530  0.0219  0.0272
26933W        W42550   1.687  14.201   1.254 -0.0104  0.2711 -0.0861
26934W        W42551  15.416  14.957   4.174 -0.1467  0.0415  0.2763
26935W        W42552   9.021   6.190   1.083  0.0614 -0.0815  0.1331
26936W        W42553   7.418   1.597   2.824 -0.0165  0.2143  0.0134
26937W        W42554   4.861  17.755   1.677  0.1462  0.1833 -0.0270
26938W        W42555  11.594  10.765   5.768  0.1029  0.1928 -0.0215
26939W        W42556   7.749  12.931  16.227 -0.2346  0.1901 -0.1055
26940W        W42557  14.682   5.918   1.099  0.0018 -0.0792  0.0661
26941W        W42558   7.431  14.244  13.244  0.0182 -0.0328  0.2460
26942W        W42559   4.350   4.442   2.982  0.0474 -0.0688 -0.1519
26943W        W42560   3.771   7.528  11.805 -0.1659  0.1438 -0.0094
26944W        W42561  14.316   9.647  15.553  0.1100 -0.0809 -0.1625
26945W        W42562  12.726   6.195   0.173  0.2023  0.0231  0.1728
26946W        W42563   8.467  15.643   3.846 -0.0838 -0.1129  0.2638
26947W        W42564   7.734   3.063  12.414  0.0952  0.1754  0.4057
26948W        W42565   4.859  14.456   4.947 -0.0791 -0.2163  0.0282
26949W        W42566   8.744  13.781  11.995 -0.1684 -0.3457  0.2002
26950W        W42567   4.947  11.097  15.570 -0.1268 -0.0950  0.0380
26951W        W42568  12.089   5.575   1.927 -0.1168  0.0670  0.0821
26952W        W42569   4.203   8.149  15.138  0.2443 -0.3569 -0.2810
26953W        W42570  17.169  10.711  15.837 -0.3593 -0.0129  0.0306
26954W        W42571   0.162   8.465   3.896 -0.0878  0.1000 -0.0123
26955W        W42572   1.095   1.342  14.122 -0.0084 -0.2250  0.2138
26956W        W42573  10.757   7.798   0.666 -0.0159 -0.0978 -0.0950
26957W        W42574   2.581  11.398   6.198  0.2963 -0.0321  0.2197
26958W        W42575   1.307  11.605  16.303  0.3207 -0.0507 -0.0141
26959W        W42576  12.698   2.649   3.211  0.1429 -0.2219  0.0006
26960W        W42577  11.101   4.145   4.493 -0.2882  0.0350  0.0223
26961W        W42578   3.511   0.644   0.765 -0.0947 -0.0000  0.0618
26962W        W42579   8.938   5.159  11.992  0.0226  0.0043 -0.1058
26963W        W42580  17.536  12.745  13.898  0.1938  0.0728  0.0579
26964W        W42581  15.568  13.031   0.950 -0.0398  0.1356 -0.3237
26965W        W42582   0.517   0.311   4.955  0.3079  0.3119  0.1825
26966W        W42583   6.570   3.215   4.106  0.1583  0.0683 -0.0476
26967W        W42584   0.454   8.178  12.954  0.1189  0.0627 -0.0699
26968W        W42585   1.375  12.885  13.287 -0.1414 -0.1724 -0.0162
26969W        W42586  11.350  12.517  12.321  0.0480  0.0720  0.1634
26970W        W42587  17.275  14.350   5.749 -0.0292  0.0060 -0.1141
26971W        W42588  11.818  11.181  14.542  0.0182  0.2051 -0.0609
26972W        W42589   7.975  16.281  13.276  0.2462 -0.1487  0.0363
26973W        W42590   2.936  14.763   5.982 -0.1574 -0.0492  0.1464
26974W        W42591  17.005   8.464  13.230  0.0061 -0.2932 -0.4394
26975W        W42592  12.945  13.421  11.290  0.1227  0.1632  0.3263
26976W        W42593   4.508  12.609   2.701 -0.3654  0.0352  0.3285
26977W        W42594   2.518  14.601  14.253  0.0782 -0.1204  0.0638
26978W        W42595   4.989   3.971  13.223  0.0414 -0.2355 -0.0180
26979W        W42596  17.835  14.440  15.908  0.1181  0.0838 -0.1340
26980W        W42597   7.694   6.740  15.247  0.0451 -0.1909  0.2418
26981W        W42598   7.414  12.001   4.858  0.5662 -0.5202 -0.1301
26982W        W42599  14.222  15.772  15.798  0.1743  0.1913 -0.0328
26983W        W42600   3.792   8.203   0.275 -0.2403 -0.1330  0.0018
26984W        W42601  11.898  16.993  13.713 -0.2049  0.0414 -0.2345
26985W        W42602   5.978  15.914   0.623 -0.0937 -0.1817 -0.2012
26986W        W42603  10.179  12.229   4.587 -0.0200  0.0264 -0.1311
26987W        W42604  17.501   2.619   6.357  0.0918 -0.1764 -0.4190
26988W        W42605   9.294   7.788   0.619  0.0604  0.0445 -0.1737
26989W        W42606  13.598   9.116   5.358 -0.2313  0.0129  0.3704
26990W        W42607   4.440   1.081   4.891  0.0151  0.2982  0.3660
26991W        W42608   8.658   7.803   1.676  0.0143  0.2121 -0.0755
26992W        W42609  12.100  15.500  14.349 -0.1590 -0.0119  0.0339
26993W        W42610   0.161   2.512   4.357 -0.0386 -0.1065 -0.1377
26994W        W42611   0.393  10.206  13.067 -0.0710  0.2001 -0.0951
26995W        W42612  17.720   3.117  16.015  0.1234 -0.2328  0.0785
26996W        W42613  14.898   4.177   0.444  0.3005 -0.1399  0.1334
26997W        W42614   7.876   6.246  15.278  0.0196  0.0740 -0.2068
26998W        W42615   0.675  14.154   3.921  0.0215 -0.0453 -0.2691
26999W        W42616  15.362   7.850   3.380 -0.3260  0.0578  0.1603
27000W        W42617   2.350  17.583   1.947 -0.1962 -0.0068 -0.2456
27001W        W42618   8.258   6.421  12.940 -0.1277  0.2028 -0.1498
27002W        W42619  15.099  16.519   1.354  0.0174  0.0056  0.2051
27003W        W42620  17.585  17.118   0.916 -0.0819 -0.1089 -0.2303
27004W        W42621  10.259   3.131   6.192  0.2337  0.2368 -0.0568
27005W        W42622   7.244   4.203   1.539 -0.0439  0.3935 -0.1022
27006W        W42623   8.318  15.049  12.644  0.1444 -0.1347  0.2043
27007W        W42624   3.921  11.975   3.255  0.1919 -0.3899  0.0111
27008W        W42625   9.528  10.619   2.751  0.1733  0.2706 -0.1272
27009W        W42626   7.905   7.265   5.523  0.1847  0.0334  0.0550
27010W        W42627   2.502   6.863  15.447  0.0136  0.1161  0.0854
27011W        W42628  12.449   2.668   4.432  0.3302 -0.0514 -0.1487
27012W        W42629   2.465   5.184  15.168 -0.1073  0.1624  0.1626
27013W        W42630   7.764  15.203  15.680 -0.1415 -0.1687  0.0089
27014W        W42631   3.617  11.219   2.935  0.2821 -0.0310 -0.3545
27015W        W42632   7.187   0.517  13.544  0.0556 -0.1676  0.1563
27016W        W42633   7.295   8.931  14.047  0.0592 -0.1309 -0.0299
27017W        W42634  12.052  13.012  15.444 -0.1206 -0.1986 -0.1844
27018W        W42635   1.641  11.262   1.150 -0.0840  0.1193  0.0994
27019W        W42636   4.690  16.477   2.086  0.1360  0.0274  0.0047
27020W        W42637  16.056   9.925  15.999 -0.2437  0.2290 -0.0185
27021W        W42638  17.171   0.894  13.143  0.0433 -0.1405 -0.3329
27022W        W42639   1.645   0.847   5.102  0.0213 -0.1052 -0.2842
27023W        W42640   8.892  13.730  16.063 -0.3611 -0.1216  0.0148
27024W        W42641   8.668  12.872   3.094  0.1087  0.3363 -0.1123
27025W        W42642   4.021   0.034   4.226  0.2335  0.2292  0.3468
27026W        W42643  14.027   3.410   5.720 -0.2828 -0.1399  0.0270
27027W        W42644   9.889   7.255   5.333  0.0662  0.0349  0.1014
27028W        W42645   6.598   9.953   4.560 -0.0322 -0.0754 -0.1326
27029W        W42646   7.136   4.357   0.577 -0.2824 -0.2090 -0.1522
27030W        W42647  14.539   6.027   4.280 -0.1911 -0.0232 -0.1539
27031W        W42648   4.391   2.929   0.331  0.0879  0.0329 -0.0454
27032W        W42649  14.017   5.921  15.842 -0.1968  0.0097 -0.0811
27033W        W42650   7.022  16.103   1.079  0.1587  0.0678  0.0323
27034W        W42651   2.593   4.328   1.657 -0.1574  0.2095  0.0094
27035W        W42652  10.634   0.794   5.163 -0.1881  0.0570  0.0075
27036W        W42653   9.836  13.437  15.057  0.0517 -0.0988 -0.0808
27037W        W42654   2.510   5.316   1.282 -0.0086  0.2354  0.0012
27038W        W42655   9.912   6.106   0.629  0.1798 -0.0316 -0.0887
27039W        W42656   1.877  15.336  16.501  0.2460 -0.0943  0.0521
27040W        W42657  15.047  15.145  11.711  0.1756  0.0538 -0.2655
27041W        W42658   7.293  10.342  13.828 -0.3073 -0.0829  0.2233
27042W        W42659  11.139  17.154   1.703 -0.2790 -0.0669 -0.0365
27043W        W42660   6.655   5.001  15.970 -0.4099  0.2822  0.1027
27044W        W42661   0.684   4.675   1.896 -0.0598  0.0387  0.0689
27045W        W42662   7.697  15.142  13.221 -0.1915 -0.2208  0.1509
27046W        W42663   5.600   6.234  12.616 -0.1559  0.0308 -0.1039
27047W        W42664  16.486   2.620   3.093 -0.0009 -0.1643  0.2757
27048W        W42665   0.189  15.895  15.355 -0.0996  0.0095  0.0840
27049W        W42666   3.715   3.037  13.816  0.1444 -0.0518 -0.1684
27050W        W42667   6.151  11.536   4.793 -0.0923  0.2995 -0.0791
27051W        W42668   5.617  11.650  16.573 -0.0027  0.2918  0.1630
27052W        W42669  11.581   5.786  15.866 -0.2521 -0.0088 -0.2908
27053W        W42670  11.936   0.506  15.482  0.0001 -0.0658 -0.2182
27054W        W42671   5.171   6.862  13.075 -0.0810  0.0903 -0.2304
27055W        W42672   6.510  17.040   4.645  0.1717 -0.0389  0.0424
27056W        W42673   3.194   6.378  14.622 -0.0596  0.0049  0.0902
27057W        W42674   0.630   9.651  11.177 -0.2396 -0.3085  0.0530
27058W        W42675   4.872  11.997  12.719 -0.1099  0.1825  0.0671
27059W        W42676  12.966  14.203   4.183  0.0449  0.0533 -0.0213
27060W        W42677   5.905  14.366  12.096 -0.1897 -0.2408  0.1335
27061W        W42678   1.935  10.866   1.458  0.0141  0.2045  0.1703
27062W        W42679   9.950   2.204  12.591 -0.0317  0.0921  0.0387
27063W        W42680   3.462  17.135  16.610 -0.3866  0.0348 -0.1723
27064W        W42681  12.678   5.103   3.438 -0.0828  0.0762 -0.0452
27065W        W42682   0.860  17.355  13.331 -0.1835  0.0619  0.2011
27066W        W42683   3.039   7.916  14.996 -0.0526  0.2383 -0.2104
27067W        W42684  13.202  17.305   1.834 -0.0975  0.0590 -0.2351
27068W        W42685  10.931   1.104   2.710  0.1279 -0.1883  0.0034
27069W        W42686  10.694  17.357   4.209 -0.2124  0.1687  0.1281
27070W        W42687  12.206  14.217  13.816 -0.0349 -0.2821  0.2227
27071W        W42688   0.403  12.152  12.581 -0.0257  0.0081  0.0390
27072W        W42689   6.023   5.505  11.727  0.0268 -0.1271  0.3011
27073W        W42690  17.714  14.964   4.685 -0.0741 -0.1092 -0.1790
27074W        W42691  11.477  15.444  14.250 -0.0159  0.0080 -0.0685
27075W        W42692   6.912   1.498  11.245  0.0093  0.0091 -0.1840
27076W        W42693   3.410  12.323  14.002 -0.0432  0.1833 -0.1297
27077W        W42694  16.382  11.994   2.392  0.0920 -0.0890 -0.0996
27078W        W42695   2.246   2.776   0.554 -0.2899  0.0464 -0.2367
27079W        W42696  11.977   8.788   2.523 -0.0036  0.1155 -0.2647
27080W        W42697  12.169  11.754   1.700 -0.0120  0.1163  0.3224
27081W        W42698  13.551   4.470   4.675  0.1328 -0.2056  0.0418
27082W        W42699  10.710   6.672   1.326 -0.1969 -0.1433  0.0386
27083W        W42700   8.338  15.308  15.897 -0.2589 -0.1433  0.1058
27084W        W42701   7.825   7.755   3.977  0.0516  0.1824 -0.2786
27085W        W42702   6.387   5.656   5.120 -0.2076 -0.1688  0.1107
27086W        W42703   8.129  13.288  11.598  0.2266  0.2134 -0.1139
27087W        W42704  14.779   7.437  14.025 -0.0370 -0.2061 -0.1309
27088W        W42705   6.580  15.584   0.278  0.0471  0.0209  0.0743
27089W        W42706   1.013   9.249  11.902  0.0810  0.4305  0.0695
27090W        W42707  10.119   8.631   1.813 -0.0511 -0.0495 -0.1849
27091W        W42708  14.535   4.858   2.137 -0.1999  0.1880  0.0007
27092W        W42709   3.698  11.288   5.663 -0.0821  0.2811  0.0567
27093W        W42710  15.927  11.820   0.551 -0.1515 -0.2160 -0.1683
27094W        W42711  15.868   8.386  13.455 -0.4057 -0.2041  0.0135
27095W        W42712  17.053  13.431   3.945  0.0911 -0.0266  0.2017
27096W        W42713  17.494   7.920   1.535  0.3002  0.1465 -0.1364
27097W        W42714   2.071  14.695  12.967 -0.1933  0.0894  0.2928
27098W        W42715  14.617   0.363   4.332 -0.1764 -0.1147  0.2460
27099W        W42716   6.000  12.373   0.165 -0.2736  0.2851  0.0514
27100W        W42717   9.456  10.189   4.857 -0.0557  0.0935 -0.0689
27101W        W42718   5.411  11.966   0.690  0.1015  0.0758 -0.1208
27102W        W42719  13.494  11.260   2.031  0.2033  0.0132  0.0246
27103W        W42720   6.268  15.065  13.961 -0.1078 -0.0211  0.2246
27104W        W42721   1.149   5.258   1.276  0.0206 -0.2049  0.1109
27105W        W42722  11.682   9.150  12.539  0.0550  0.0563 -0.0123
27106W        W42723  16.761   5.171  15.766  0.1371 -0.2318  0.1909
27107W        W42724  13.744   2.690   5.595  0.0447 -0.4052  0.2416
27108W        W42725  16.315  11.621   3.358 -0.1642  0.0888 -0.0796
27109W        W42726  15.338   3.191   6.090  0.0733  0.1116 -0.0510
27110W        W42727   4.714   8.716  13.717  0.3493  0.0615  0.0474
27111W        W42728  15.551  13.613   5.733 -0.0648  0.1930 -0.2229
27112W        W42729   3.472   6.927  12.046 -0.3920  0.0192 -0.1798
27113W        W42730  16.707  16.290  15.261 -0.0747 -0.2061 -0.1840
27114W        W42731   4.496   8.015   5.140 -0.2546  0.2458 -0.0486
27115W        W42732   3.902   1.211  11.481  0.1748 -0.0631 -0.0260
27116W        W42733   0.747   0.251   4.350 -0.3387 -0.0875  0.1508
27117W        W42734   8.375   1.183   6.242  0.2468  0.1096 -0.1078
27118W        W42735  11.405   4.633  16.264 -0.0789 -0.2714 -0.1368
27119W        W42736  15.410   4.954   4.140  0.1754  0.0824 -0.0808
27120W        W42737  15.419  16.102  11.493  0.1271 -0.4960 -0.1127
27121W        W42738   0.846  11.265  15.445 -0.0906 -0.0576  0.1728
27122W        W42739  10.332   8.528   0.179 -0.1078  0.1292 -0.3196
27123W        W42740  11.345  17.855  13.954 -0.2613  0.0296 -0.0523
27124W        W42741   2.626  13.286   0.657  0.2116  0.0255  0.3251
27125W        W42742  13.744   7.324   0.204  0.2484 -0.1745 -0.2429
27126W        W42743   4.771  12.381  13.412 -0.1579 -0.2002  0.0667
27127W        W42744   2.419  14.347   2.085  0.1934  0.0047 -0.3936
27128W        W42745   7.691   2.714  16.538  0.0212  0.1579  0.1455
27129W        W42746   8.608  15.533   4.493  0.2349 -0.0107  0.1232
27130W        W42747   1.232  13.107  12.263  0.1132 -0.1146  0.3275
27131W        W42748  17.325   4.956   1.683  0.0462 -0.1767  0.0029
27132W        W42749  11.472  15.731   4.460  0.1240 -0.0041  0.2852
27133W        W42750   7.525  10.383   2.929 -0.3160 -0.3965 -0.0478
27134W        W42751   4.693   4.791   2.815  0.1723 -0.2854 -0.0094
27135W        W42752   3.118   2.341   0.479  0.2060 -0.1457 -0.2006
27136W        W42753   8.972  17.740  16.192 -0.0058  0.3010  0.2305
27137W        W42754  15.818   1.394   1.509 -0.1405 -0.0790 -0.1910
27138W        W42755   1.755  10.792  16.288 -0.1830 -0.1786  0.1113
27139W        W42756  17.788  10.221   1.887  0.1151 -0.0125  0.0740
27140W        W42757   0.934   9.311  13.979  0.0241  0.0394 -0.0448
27141W        W42758   7.621  14.570  12.581  0.0704  0.3246 -0.0607
27142W        W42759   9.013   0.754  16.025 -0.1625  0.1187 -0.1071
27143W        W42760   8.113   7.340   1.384 -0.0863 -0.0059  0.1712
27144W        W42761  15.749   8.606  13.959 -0.4284 -0.1936  0.0220
27145W        W42762   9.706   6.716   1.169 -0.2999 -0.2468 -0.2554
27146W        W42763   0.092  17.841  13.652 -0.1409 -0.0800 -0.0155
27147W        W42764  12.192   6.765  16.184 -0.0786 -0.2247 -0.0099
27148W        W42765  14.368  13.336  14.010 -0.1646  0.0876  0.1889
27149W        W42766  15.882  14.516   1.178 -0.0626  0.2841 -0.5409
27150W        W42767  10.960   7.689   1.154  0.0159  0.0131 -0.0922
27151W        W42768   6.483   6.270  13.574  0.2458 -0.0669 -0.0484
27152W        W42769  14.000  17.132   6.409  0.0620  0.0896  0.2275
27153W        W42770  14.536   2.204  12.871 -0.1463 -0.0237 -0.2377
27154W        W42771   1.086   4.007   5.286 -0.0077  0.2577  0.0546
27155W        W42772  10.931  16.187   2.500 -0.0404 -0.0386  0.1384
27156W        W42773   7.126   2.776  14.588 -0.0559 -0.1882  0.1176
27157W        W42774  12.401  16.030   3.201 -0.2369 -0.4603  0.0019
27158W        W42775   2.489   0.131  14.431 -0.1815 -0.1703 -0.0164
27159W        W42776  12.635  10.178  14.560  0.2101  0.1456 -0.1264
27160W        W42777   7.427  11.232  11.241  0.0961  0.3305 -0.2325
27161W        W42778  11.840   3.920  14.878 -0.0455 -0.0890 -0.0586
27162W        W42779  13.702  15.537   5.130 -0.0128  0.0493 -0.0825
27163W        W42780   0.109  13.840   3.284 -0.1840 -0.1007 -0.3119
27164W        W42781  10.887  10.687   3.322 -0.0386  0.0903 -0.2607
27165W        W42782   4.137   0.757  11.477  0.1737 -0.5208  0.2792
27166W        W42783  12.742  11.551  14.195 -0.3077 -0.1503 -0.0771
27167W        W42784   9.293   2.860  11.213 -0.0993  0.0448 -0.0754
27168W        W42785  11.098  16.764  12.444  0.2894  0.1547  0.0751
27169W        W42786   9.767  16.322  13.425  0.0939  0.1876  0.1552
27170W        W42787   4.897   0.904  11.956  0.5340 -0.0090 -0.0541
27171W        W42788   5.229  15.082   1.243 -0.4174  0.3341  0.0406
27172W        W42789  14.655   0.216  12.206 -0.1087 -0.0889  0.0761
27173W        W42790  16.372   0.746   2.202  0.3986 -0.1988  0.0948
27174W        W42791   2.105   9.617   0.318 -0.2017 -0.1924  0.2407
27175W        W42792  10.416  17.238  12.972  0.1835 -0.1489 -0.0224
27176W        W42793   0.436  16.811   1.427  0.0592 -0.1968  0.0203
27177W        W42794  15.029   0.704  11.853  0.0282 -0.2073  0.1043
27178W        W42795   9.331  13.030   5.152 -0.1334 -0.2545  0.0265
27179W        W42796  13.154  17.307  13.477 -0.3137  0.2974  0.2680
27180W        W42797   1.136  11.755  12.860  0.3878  0.0107  0.0117
27181W        W42798  11.610  14.661   0.707  0.1495  0.0765  0.0965
27182W        W42799  12.649  11.432   1.733 -0.1364 -0.0866  0.3893
27183W        W42800   4.716   0.224  15.259 -0.4499  0.1046  0.1469
27184W        W42801   4.582   4.203  16.606 -0.0837 -0.2404 -0.1133
27185W        W42802   7.892   4.537   5.889  0.1394 -0.0497 -0.5055
27186W        W42803   8.747  16.176  14.393  0.3817  0.1104  0.0880
27187W        W42804  11.717   0.544   5.097 -0.0703 -0.0413 -0.2219
27188W        W42805  14.294   0.288  13.396 -0.0722  0.1206  0.0854
27189W        W42806  16.348   4.948  13.222  0.1631  0.1280 -0.2702
27190W        W42807  13.807   3.492  16.004 -0.0070  0.2343  0.0128
27191W        W42808  16.475   5.177   1.798  0.0716 -0.0620 -0.1369
27192W        W42809   8.477   9.759   0.277  0.1887  0.0476 -0.0808
27193W        W42810   9.180   4.848  15.505 -0.1557 -0.1085 -0.1477
27194W        W42811  12.842  10.270   1.635 -0.1791  0.0706  0.0203
27195W        W42812  15.938  16.307   2.823  0.0187 -0.4306 -0.0276
27196W        W42813   0.568   9.089  15.323  0.0011 -0.1908  0.3773
27197W        W42814  14.751  11.359   0.844 -0.0902  0.1649  0.0398
27198W        W42815   0.163  10.712  13.268  0.2090  0.0396  0.1057
27199W        W42816  10.279   0.740   2.304 -0.0850 -0.3799  0.1372
27200W        W42817  11.208  12.477  14.697  0.1170  0.2054  0.2122
27201W        W42818  15.584   3.753  13.082 -0.2527  0.0408  0.2585
27202W        W42819   8.967  17.716  16.781  0.0980  0.1217 -0.0700
27203W        W42820  17.851   3.565  12.845  0.1027 -0.1467  0.1424
27204W        W42821  13.575   6.223  13.317  0.0382 -0.1296  0.0879
27205W        W42822   6.669   2.855   1.928  0.1579 -0.5190  0.0242
27206W        W42823  15.042  14.297  15.444  0.0267  0.1793 -0.1067
27207W        W42824   2.268  14.872   0.744 -0.1446  0.1005  0.1184
27208W        W42825  11.353   4.487   5.331  0.2274  0.1244  0.0098
27209W        W42826   5.365   9.337   3.495  0.0295  0.0052  0.2015
27210W        W42827  10.716   5.378  15.564 -0.0960  0.0150  0.4010
27211W        W42828   9.714  17.550  14.142  0.0141  0.1504  0.1481
27212W        W42829  12.611   7.886   2.764  0.0725 -0.0665  0.0795
27213W        W42830   1.159   3.584   4.521 -0.1663  0.0738 -0.1692
27214W        W42831  14.231  17.126   3.001  0.1869 -0.0592  0.4101
27215W        W42832  14.100  17.399  13.672 -0.3305  0.1470 -0.1135
27216W        W42833   3.474  13.684   4.055 -0.4042  0.0089  0.1302
27217W        W42834  15.363  11.954  13.443  0.2806  0.3733  0.1886
27218W        W42835   4.673   0.198   5.947  0.1176  0.1391  0.3265
27219W        W42836  15.849  10.375   5.625 -0.0007 -0.0975  0.1295
27220W        W42837   5.239  15.087   3.339  0.0826  0.1382  0.1268
27221W        W42838  14.985  12.399   0.457 -0.1105  0.0341  0.1899
27222W        W42839  14.881   5.045   3.112 -0.1762  0.0604  0.1446
27223W        W42840  17.286   1.680   5.344 -0.1973  0.4229  0.0407
27224W        W42841  16.981   8.007   2.378 -0.2060 -0.1154  0.1495
27225W        W42842  12.079  12.798   5.557 -0.0373  0.2019  0.3179
27226W        W42843   6.722  16.106  13.213  0.1421  0.0910  0.0122
27227W        W42844  16.657   6.313  12.137 -0.0741  0.1116  0.2315
27228W        W42845   6.141   9.739  13.707  0.1858 -0.2012 -0.1257
27229W        W42846   3.800   2.119  14.328 -0.0810 -0.2137  0.1609
27230W        W42847  17.442   6.751   5.418  0.2338  0.3835 -0.2052
27231W        W42848  17.492   7.782   2.542  0.3435  0.2353 -0.2237
27232W        W42849  11.001  15.278   1.613 -0.1891 -0.2657  0.1753
27233W        W42850   9.532  10.970   3.109 -0.1755 -0.0912  0.1965
27234W        W42851   7.621  13.329   4.492  0.2027 -0.0716  0.3279
27235W        W42852   7.801   8.958   1.526  0.0435  0.1779  0.0149
27236W        W42853  15.740   2.949   4.476  0.3322  0.1183  0.0375
27237W        W42854   0.218   4.866   4.047 -0.0764  0.0945  0.2485
27238W        W42855   0.450  12.877   1.724  0.0308  0.3654 -0.2557
27239W        W42856  15.172  13.438  16.273  0.0329 -0.0792  0.0255
27240W        W42857   1.385  12.337  14.914  0.2075 -0.2422 -0.0995
27241W        W42858  13.122   7.057  16.240  0.1298  0.1214  0.0317
27242W        W42859   0.399  10.705   5.266  0.0753  0.0318  0.0738
27243W        W42860  10.637  16.517   0.062 -0.1774  0.1144  0.0603
27244W        W42861   9.324  15.164   0.892 -0.0433  0.0308  0.1704
27245W        W42862   6.707   0.504  13.290  0.2276  0.1682  0.0473
27246W        W42863   9.702   8.646  13.839 -0.0020  0.1291  0.1704
27247W        W42864   3.593   6.933  13.078 -0.3335 -0.0406 -0.0642
27248W        W42865   2.759   3.256  13.628  0.1322 -0.2144 -0.1125
27249W        W42866  14.371   7.521   5.658  0.0380 -0.0942  0.0589
27250W        W42867   1.861   1.302  14.983 -0.1217 -0.1378  0.1608
27251W        W42868   0.329   6.555  15.881  0.1230 -0.4913 -0.2442
27252W        W42869   2.650  14.343  15.133  0.0153  0.2568  0.1037
27253W        W42870   2.378   4.284   2.115 -0.2886 -0.2194 -0.3712
27254W        W42871   5.361  12.255  12.613 -0.0989 -0.0951  0.0550
27255W        W42872   5.433   4.015   5.310 -0.0030  0.0245  0.2365
27256W        W42873   2.180   5.845   1.669 -0.0681  0.1525 -0.0261
27257W        W42874  12.766  13.845   3.687  0.0442 -0.3464 -0.1874
27258W        W42875   4.785   4.690   1.819 -0.1043  0.3414  0.2614
27259W        W42876  16.310   0.452   0.945 -0.4026  0.0122 -0.2779
27260W        W42877  15.931   9.193  11.849 -0.0374  0.0296 -0.0807
27261W        W42878   6.192  10.015   1.902 -0.0074 -0.3139  0.1629
27262W        W42879   3.863  17.672   0.344  0.0912 -0.0009 -0.0306
27263W        W42880   1.725   2.906   2.449  0.3806 -0.2305  0.0297
27264W        W42881  14.359   8.997  16.318 -0.0267  0.1175  0.2313
27265W        W42882   3.649   7.074  11.613  0.2330 -0.0224  0.1029
27266W        W42883   6.912   9.427  14.825 -0.0429  0.2053  0.1869
27267W        W42884   3.896  12.754   0.312 -0.1929  0.0722 -0.0056
27268W        W42885   7.298   2.355   2.056  0.1816 -0.2517  0.4310
27269W        W42886   6.950  11.637  16.241 -0.2293 -0.1223 -0.2082
27270W        W42887  12.845   4.791  16.577  0.1692  0.0272 -0.0339
27271W        W42888  15.391   8.443  16.689 -0.0321 -0.1455 -0.0209
27272W        W42889   6.787  13.051  11.986 -0.2727  0.3026 -0.0956
27273W        W42890  10.105  13.602  13.395  0.0174  0.2309  0.0132
27274W        W42891   1.211   9.502   1.583  0.1772 -0.1682  0.1744
27275W        W42892  13.360  15.007  15.385  0.0641  0.1151 -0.1434
27276W        W42893  12.377   7.449  16.491 -0.0211  0.1186 -0.1733
27277W        W42894   8.414  13.148   5.615 -0.2280 -0.1276 -0.1312
27278W        W42895   5.850  16.687  13.306 -0.1062  0.2630  0.1172
27279W        W42896  17.590  12.564   2.759 -0.1656 -0.0960  0.0235
27280W        W42897   1.199   9.582  14.354 -0.3815  0.0093 -0.1515
27281W        W42898   0.470   1.178   1.230 -0.0203 -0.0545 -0.1278
27282W        W42899  13.369   7.558  15.775 -0.0200 -0.0966  0.0056
27283W        W42900   2.966   6.038   2.614 -0.2558  0.1051 -0.2163
27284W        W42901  17.581   6.247   5.280  0.5450  0.2978 -0.3455
27285W        W42902  17.834   4.922  14.964  0.1305 -0.0191 -0.0867
27286W        W42903   3.444   1.136  14.553  0.2287  0.1422 -0.0793
27287W        W42904  12.590   8.114  11.941  0.0892  0.2976 -0.1997
27288W        W42905   4.610   0.239  12.690  0.1189  0.0594 -0.2996
27289W        W42906   8.467  16.072   2.213  0.2142  0.1520  0.1682
27290W        W42907  10.059  12.688  15.918  0.3596 -0.1188 -0.0268
27291W        W42908   9.123   5.569  15.958 -0.2195 -0.2249 -0.2243
27292W        W42909  10.324  10.221   5.771 -0.3583 -0.2148 -0.1117
27293W        W42910   1.934  13.389   3.901 -0.0960 -0.3875  0.4387
27294W        W42911   8.654   0.189   5.225 -0.3104 -0.2858  0.0157
27295W        W42912  11.466  15.722   0.535  0.0160  0.2829 -0.1382
27296W        W42913  15.213   2.430   3.980  0.2959  0.1089  0.2595
27297W        W42914   3.618  15.260  14.452 -0.1276  0.1329  0.1135
27298W        W42915  16.298  13.352  13.824  0.1680 -0.3670  0.2449
27299W        W42916   0.217   0.510   5.308  0.1325 -0.0402  0.2471
27300W        W42917   7.990   4.501   3.924 -0.1935  0.2284  0.0947
27301W        W42918   8.149   6.196  12.320 -0.0346  0.2603  0.0299
27302W        W42919   6.651  13.633   0.035  0.1513 -0.1637  0.1652
27303W        W42920   9.799  15.448   2.612  0.3320 -0.4022  0.1980
27304W        W42921  13.227  13.252  13.372 -0.2406 -0.0944  0.0748
27305W        W42922   5.475   6.789   1.216 -0.0650 -0.0195  0.1629
27306W        W42923   7.973   7.318  12.257 -0.2528  0.1619  0.0413
27307W        W42924   2.266   7.588  14.641  0.0876 -0.1166 -0.1585
27308W        W42925   4.854  17.332   0.521  0.3803  0.3651  0.0479
27309W        W42926  11.309   2.933   1.283  0.1163 -0.0789 -0.0565
27310W        W42927   2.373   0.070   2.746  0.1643 -0.0047  0.1274
27311W        W42928   8.360   0.816  15.598  0.4466  0.0261 -0.1998
27312W        W42929   5.548   4.223  16.174 -0.1127 -0.2496  0.1096
27313W        W42930   3.912  15.201  14.875 -0.3419 -0.0113 -0.1641
27314W        W42931   7.925   4.159   4.898 -0.0158 -0.0244 -0.1039
27315W        W42932   8.372  11.621  12.629  0.1926  0.0428 -0.1170
27316W        W42933  16.065  14.136  12.145  0.1781 -0.0710 -0.3704
27317W        W42934  13.638   0.999   3.819  0.0646  0.1045  0.0425
27318W        W42935  11.922  12.156   1.705  0.0085  0.1508 -0.2748
27319W        W42936   7.620   9.814  13.912  0.1154 -0.1051 -0.1415
27320W        W42937   0.127   7.854   1.475 -0.2394  0.2838  0.0277
27321W        W42938   1.135  13.740  12.944 -0.0901 -0.0664  0.0425
27322W        W42939  13.867  12.460  14.407  0.2181  0.2027 -0.3009
27323W        W42940  17.399   1.024  12.070 -0.1727 -0.0366  0.1627
27324W        W42941  13.925   4.552   5.077 -0.1092 -0.0321  0.0779
27325W        W42942   7.575   9.880  15.583  0.0418  0.1916 -0.4099
27326W        W42943   0.024   4.163   4.591  0.0207 -0.0671 -0.1553
27327W        W42944   7.071  17.291   3.796 -0.0549 -0.4040  0.1786
27328W        W42945   3.627   2.265  12.483 -0.0466  0.0898  0.1431
27329W        W42946  10.217  15.220   1.620  0.0047  0.1626  0.0690
27330W        W42947  10.430  10.388  13.206  0.1104  0.3060  0.0742
27331W        W42948  17.061   2.094  14.167  0.0971  0.0561 -0.1511
27332W        W42949  10.328  16.316  16.453 -0.0055 -0.2144 -0.2977
27333W        W42950   7.283   2.559   4.422  0.2713  0.3966  0.0955
27334W        W42951   5.807   8.212   0.723 -0.4284  0.1579  0.1918
27335W        W42952  10.625  13.826  13.420  0.0443 -0.1587 -0.3268
27336W        W42953   7.670   1.370   3.710  0.1039  0.1254 -0.2033
27337W        W42954  13.568   1.584  11.720 -0.0993 -0.0370 -0.0608
27338W        W42955  16.872  17.447   2.128 -0.1757 -0.0862  0.3106
27339W        W42956  17.743   0.614  16.105  0.2341 -0.2283 -0.0677
27340W        W42957   3.264  13.962   2.001  0.2502 -0.2588 -0.3092
27341W        W42958   6.218   3.891   3.338 -0.1224 -0.2360  0.0569
27342W        W42959   9.013   1.535   5.601 -0.0605 -0.0543  0.1085
27343W        W42960   3.909   6.479  12.203  0.0853  0.0164 -0.0664
27344W        W42961  16.976  11.172   5.527  0.2238 -0.0168  0.1430
27345W        W42962  14.933  15.207  16.398 -0.3831 -0.1339 -0.1812
27346W        W42963   5.207   6.895   5.412 -0.2121 -0.2156  0.2274
27347W        W42964   8.519   5.200  14.029  0.1263 -0.3247 -0.2355
27348W        W42965   1.437   2.663   1.557 -0.3839  0.1741 -0.0235
27349W        W42966   8.430   2.608  12.608  0.0022  0.2322  0.3042
27350W        W42967  14.395   7.145  15.706 -0.0716 -0.0642 -0.0858
27351W        W42968   6.478  13.589  14.168  0.0836  0.2084 -0.0471
27352W        W42969  16.573  16.799  11.694  0.3109  0.1427  0.0688
27353W        W42970  13.201  11.931   0.787  0.0094  0.0428 -0.0975
27354W        W42971  11.274   2.563   0.416  0.3462 -0.0032  0.0717
27355W        W42972   5.725  17.670   0.071 -0.0046  0.0532  0.2466
27356W        W42973   7.222  14.279  14.756  0.2236  0.0487  0.0319
27357W        W42974   9.595   0.483  14.604  0.2838  0.0931 -0.0416
27358W        W42975  16.512   2.031   5.965  0.1771  0.0384 -0.1145
27359W        W42976  10.288  15.688  15.402  0.2396 -0.1124  0.2467
27360W        W42977  13.698  11.493   3.457  0.0299 -0.0439 -0.3649
27361W        W42978  14.742   0.244   3.872  0.4650  0.0939  0.3990
27362W        W42979  10.618  17.613   3.631  0.1468  0.2531  0.1903
27363W        W42980   9.037  12.350   0.858 -0.0741 -0.1482 -0.1427
27364W        W42981   1.433   4.845  14.938 -0.0066  0.1272 -0.2208
27365W        W42982   1.736  14.719   1.418  0.0695  0.0564 -0.0976
27366W        W42983   7.740   9.653   0.567 -0.2648 -0.1115  0.3508
27367W        W42984   2.797   5.918   0.850  0.0146 -0.1461 -0.2616
27368W        W42985   7.863   3.988  13.325 -0.1636 -0.2087  0.1115
27369W        W42986  13.251   4.006   1.749 -0.1037 -0.0411 -0.1057
27370W        W42987  14.042   3.281   1.174  0.2728 -0.2105  0.0618
27371W        W42988  16.638   0.412  13.778 -0.2818  0.2015 -0.1593
27372W        W42989   9.850  14.566  16.451 -0.2021  0.0756 -0.1775
27373W        W42990  14.751   2.779   2.181 -0.2945  0.3722 -0.1645
27374W        W42991   3.151  17.434   2.375  0.1105  0.0755  0.0105
27375W        W42992   0.836  12.205   2.530  0.0079  0.2543 -0.1302
27376W        W42993  16.185  16.129   2.163 -0.0984  0.0735  0.2498
27377W        W42994   0.564  13.279  13.511  0.2492 -0.2486 -0.1439
27378W        W42995   9.276  12.535   5.382 -0.2283 -0.2924  0.0172
27379W        W42996   9.110  13.030  15.337  0.4203  0.0251  0.0299
27380W        W42997   4.524  17.194  13.850  0.1215  0.1380 -0.2496
27381W        W42998   7.303   9.613  14.331  0.0912 -0.2129  0.0339
27382W        W42999  16.319  14.809  13.658 -0.3375 -0.1380  0.3714
27383W        W43000   1.723   4.354   5.751  0.3740  0.2783 -0.2064
27384W        W43001  16.147  17.811  16.043  0.2321  0.0421 -0.1543
27385W        W43002  16.046   0.666  12.040 -0.0042 -0.0839  0.0163
27386W        W43003  17.014   4.911   5.072 -0.1505  0.0888  0.1606
27387W        W43004  11.105   7.929   4.662 -0.2408  0.3281  0.0348
27388W        W43005   6.494   7.337  15.322  0.0418  0.0355 -0.0429
27389W        W43006   5.597   0.992   2.715 -0.0225  0.0425  0.4534
27390W        W43007   4.666   5.079  15.882 -0.1685  0.4934 -0.0076
27391W        W43008   6.819   0.684   0.320  0.0222  0.1495  0.1262
27392W        W43009  16.142  15.164  15.868 -0.2232 -0.0405 -0.0725
27393W        W43010   6.954   0.017   5.453  0.2043  0.1807  0.0036
27394W        W43011   1.301   7.448  14.205 -0.0292 -0.2254 -0.0565
27395W        W43012   4.083   7.761  16.038 -0.0570  0.2466  0.1922
27396W        W43013  12.081  11.251  15.370 -0.0438 -0.1476  0.1571
27397W        W43014  14.565   4.023  12.902  0.3395  0.0182 -0.1605
27398W        W43015   7.469   9.968   2.712  0.1326 -0.0246  0.0402
27399W        W43016  12.101  16.030   1.148  0.0566  0.0163 -0.2036
27400W        W43017   2.612   2.740   2.429 -0.0346  0.3516  0.2979
27401W        W43018   5.356  15.096  15.983  0.2935 -0.2265 -0.0082
27402W        W43019   8.558   5.869  12.523  0.0379  0.1438 -0.2859
27403W        W43020  11.216   9.506   0.906 -0.0276  0.0791 -0.1721
27404W        W43021  17.825   3.668   4.708 -0.2299  0.0873  0.0139
27405W        W43022  13.613   5.516  14.544  0.0011 -0.1021  0.0697
27406W        W43023   5.337   2.380  16.237  0.1283  0.0884  0.2749
27407W        W43024   7.298   4.719  14.994  0.0336  0.2239 -0.0908
27408W        W43025  11.053   9.242   5.058  0.0863  0.0915 -0.2292
27409W        W43026  13.310   3.598   0.021 -0.0466 -0.1754  0.0281
27410W        W43027   3.037   9.864   0.398 -0.1089  0.0106 -0.0605
27411W        W43028   8.127  10.402  11.192 -0.1415 -0.1275 -0.1126
27412W        W43029   9.916   9.813  16.818 -0.0612  0.0946 -0.3337
27413W        W43030   3.304   3.175  16.777  0.2229  0.0633  0.1861
27414W        W43031  17.527  13.901   4.746  0.1084 -0.1644  0.0540
27415W        W43032   9.566   2.920   5.561 -0.0564  0.0105 -0.0289
27416W        W43033   9.170   3.084   1.813  0.0761 -0.1766 -0.1148
27417W        W43034   2.724   6.462   2.763  0.0221  0.0714 -0.1473
27418W        W43035   0.320   4.187   2.592  0.3314  0.1105 -0.0452
27419W        W43036   8.993  17.436  14.741 -0.1366 -0.0206 -0.0303
27420W        W43037  11.087   2.580   2.816  0.4419  0.1965 -0.1641
27421W        W43038   4.835   8.238  13.409 -0.1818 -0.1187 -0.1910
27422W        W43039  14.879   6.964  11.374  0.2261  0.3437 -0.2848
27423W        W43040  16.990   2.554  15.709 -0.0528 -0.2611  0.0648
27424W        W43041   3.878  16.641   4.711 -0.1542  0.3313 -0.1023
27425W        W43042   3.997  13.246   2.430  0.0652  0.3798  0.0947
27426W        W43043  16.176  15.080   2.921 -0.1358  0.2614 -0.2434
27427W        W43044   7.450   1.898  14.485 -0.0151  0.1995  0.0958
27428W        W43045  10.212  13.709   0.538  0.2014  0.1911  0.2131
27429W        W43046   1.516  15.709   3.957 -0.0894 -0.0923 -0.1761
27430W        W43047  17.553   6.192  13.438 -0.1831 -0.2586 -0.0568
27431W        W43048  15.564  12.769  15.111  0.1973  0.1824 -0.1282
27432W        W43049   7.847  14.671   3.941  0.2031 -0.1274 -0.0954
27433W        W43050   9.917   0.091  15.823 -0.0173 -0.1551 -0.1187
27434W        W43051  10.348   4.858   2.840 -0.0719  0.2050  0.0266
27435W        W43052   3.494  14.254   4.716 -0.1271 -0.1807 -0.1677
27436W        W43053   6.734  12.568   5.057  0.3057  0.2691 -0.1082
27437W        W43054   1.685   2.051  12.060 -0.2012  0.3348 -0.2263
27438W        W43055  16.513   0.092  14.706  0.2717 -0.1885  0.0211
27439W        W43056   0.641   1.625   0.747 -0.2889 -0.1703 -0.2053
27440W        W43057  11.225  11.579   0.084  0.1375 -0.0951 -0.0279
27441W        W43058   1.311  16.907  15.144  0.2052 -0.0296 -0.0430
27442W        W43059   6.961   2.743  12.266 -0.0900 -0.2745  0.1482
27443W        W43060   3.022   0.972  14.845 -0.1467  0.0221 -0.5565
27444W        W43061   5.746  15.144  13.512  0.3521 -0.0734  0.2275
27445W        W43062  11.762  10.835  16.521  0.1639 -0.1227 -0.3596
27446W        W43063   0.882  16.815   1.733  0.0405  0.0605 -0.0608
27447W        W43064  16.616  11.878   1.708  0.0058  0.0971  0.0977
27448W        W43065   1.402   1.705  12.259  0.0678 -0.2701 -0.3276
27449W        W43066   8.598   0.623  14.597  0.0173  0.0184 -0.0472
27450W        W43067   0.690   1.635  14.209  0.0807 -0.0174 -0.1384
27451W        W43068  13.955  15.613   1.288  0.2802  0.2058  0.0032
27452W        W43069  11.748   4.444   0.700  0.2608  0.0011 -0.0867
27453W        W43070   2.139   0.380   2.105 -0.2677  0.2164 -0.0676
27454W        W43071  14.313   9.444  16.639 -0.1581  0.1498  0.2580
27455W        W43072   1.162  12.464  14.068 -0.1810 -0.2855 -0.2483
27456W        W43073   2.895  15.268  15.941  0.2420 -0.0681 -0.3424
27457W        W43074  14.181   9.563  12.650 -0.3708 -0.1666  0.0213
27458W        W43075   3.532   4.955   1.770  0.1265  0.0421 -0.1966
27459W        W43076   0.314  17.166  16.522  0.0393 -0.0956 -0.0318
27460W        W43077  13.022  15.067  13.244  0.1206 -0.1106  0.2780
27461W        W43078  12.826   0.308  15.949  0.3210 -0.0779 -0.1485
27462W        W43079   0.356   8.701   6.108  0.0741  0.1589 -0.1663
27463W        W43080  12.047   1.080  15.871  0.1674  0.1078 -0.1838
27464W        W43081  13.831  11.893   6.194  0.1183  0.0945 -0.0443
27465W        W43082   7.845   5.898  15.627 -0.0782  0.4078  0.2046
27466W        W43083   0.528   1.963  11.549 -0.3315 -0.1264 -0.0454
27467W        W43084  14.567  12.950  13.777  0.0438 -0.0416  0.3628
27468W        W43085   7.139   0.011  14.432 -0.1849 -0.0277 -0.1213
27469W        W43086  13.511  14.020  11.337 -0.0688  0.1032  0.1089
27470W        W43087   6.964   3.259   1.543 -0.0831  0.1879 -0.1729
27471W        W43088   0.856   8.278   3.338 -0.3074 -0.0615  0.0825
27472W        W43089  15.753  12.788  13.940  0.1838 -0.1176  0.2023
27473W        W43090   7.073  13.781   0.724 -0.2488 -0.1551 -0.3401
27474W        W43091   5.330   2.674   2.374 -0.1847 -0.0123  0.0956
27475W        W43092  11.756  13.678  12.786 -0.2341 -0.0876  0.0378
27476W        W43093  15.420   3.025   5.131  0.1133 -0.1631  0.2376
27477W        W43094  15.618  15.322  14.531 -0.0696 -0.0481 -0.0826
27478W        W43095   5.114   5.733   1.910  0.1933 -0.3568 -0.1716
27479W        W43096   5.126   8.700   4.631 -0.1117 -0.0720  0.0208
27480W        W43097   8.604   2.324   2.119  0.0990 -0.2708  0.1343
27481W        W43098   2.206   1.553   1.839 -0.1935 -0.2541 -0.2177
27482W        W43099  12.900  12.613  14.970 -0.3274 -0.3543 -0.0035
27483W        W43100   9.602   8.332  14.910  0.2266  0.0724  0.2089
27484W        W43101  12.185   7.430   2.087  0.3349 -0.0382  0.1052
27485W        W43102   4.357   8.946  11.548  0.2583 -0.0773 -0.1796
27486W        W43103   3.476  10.562   0.810 -0.0106  0.2017  0.1544
27487W        W43104  10.538   1.518   5.718  0.4596  0.1064 -0.1518
27488W        W43105  16.613   5.326  14.017 -0.0649 -0.1314  0.0768
27489W        W43106   5.422  11.926  15.187 -0.2844  0.0689  0.0934
27490W        W43107  15.598  11.836  12.930 -0.1855 -0.2184 -0.0720
27491W        W43108  17.743   4.441   3.537 -0.0007  0.4950 -0.1821
27492W        W43109  16.200  15.965  16.038 -0.0993 -0.1290 -0.3461
27493W        W43110   8.785   5.650   2.895  0.3450 -0.0354  0.0242
27494W        W43111   9.220  12.284  15.094 -0.3920 -0.2693  0.5543
27495W        W43112   6.684   4.460  13.856 -0.0171 -0.3598  0.2421
27496W        W43113   5.005  16.517   3.806  0.2478  0.3245 -0.1767
27497W        W43114   2.165  17.519   3.505 -0.0009 -0.0060  0.0721
27498W        W43115   5.345   6.281   5.483  0.2376  0.0505  0.0258
27499W        W43116  16.332   3.439  11.840  0.0076 -0.1491 -0.0377
27500W        W43117  11.263   1.914   5.474 -0.0147  0.0659  0.1523
27501W        W43118  16.569   4.485   5.630  0.1159 -0.0115 -0.4098
27502W        W43119   8.831   8.495  12.401 -0.1566  0.2063 -0.1099
27503W        W43120   5.862   0.909   0.387  0.1841 -0.0494  0.1243
27504W        W43121   8.736   6.500  14.960  0.0891  0.0506  0.3150
27505W        W43122  10.596   7.835   3.239 -0.0253  0.1933  0.2557
27506W        W43123  17.724   4.266  13.513  0.0242  0.1083 -0.1627
27507W        W43124  11.794  13.875  13.560 -0.2567  0.3389 -0.2990
27508W        W43125   8.964  10.451   5.575  0.0827 -0.1298 -0.1704
27509W        W43126  15.838  15.829   2.857  0.1569 -0.0007 -0.0246
27510W        W43127   2.288  10.328  15.262  0.1385 -0.0826 -0.2413
27511W        W43128  11.933   1.892  15.513 -0.1802 -0.1175  0.1116
27512W        W43129  15.180   9.394   5.539 -0.0885 -0.0831 -0.0329
27513W        W43130   6.389   2.653   4.350 -0.3192 -0.0400 -0.0958
27514W        W43131  16.877   0.851   4.692 -0.2181 -0.1055 -0.1810
27515W        W43132   7.927   3.689  15.790  0.1746  0.2631 -0.1211
27516W        W43133  16.239  10.398   2.383  0.1273  0.1037  0.2882
27517W        W43134  17.689  15.768  16.213  0.2539 -0.2954 -0.2356
27518W        W43135  12.225  11.590  12.375  0.2043  0.1229 -0.2628
27519W        W43136  13.129   5.327  11.779  0.0627  0.0405  0.0508
27520W        W43137   6.045  16.844   4.699 -0.2071  0.0122  0.2233
27521W        W43138   1.883  15.370   5.483  0.0722  0.2530  0.0115
27522W        W43139   3.332  16.091  11.494 -0.0928  0.0394  0.2133
27523W        W43140   5.665   5.318  13.935 -0.1096 -0.2497 -0.1159
27524W        W43141   2.343   0.516   3.860  0.6306  0.1736  0.4023
27525W        W43142  15.604   6.580   5.614 -0.0110  0.0297 -0.2468
27526W        W43143  10.360  12.153   6.056  0.4068  0.0623 -0.0010
27527W        W43144   2.508  15.721   2.393 -0.1659 -0.1058 -0.2270
27528W        W43145   9.494   7.696  15.754 -0.2446 -0.0171  0.4636
27529W        W43146   9.641  14.242  15.152  0.0389 -0.1819 -0.1382
27530W        W43147   7.336  16.035   4.504 -0.1826 -0.1247  0.3782
27531W        W43148   8.309   1.976  11.712  0.0592  0.0937  0.2649
27532W        W43149  12.069   8.596   0.535  0.2575 -0.1938 -0.0975
27533W        W43150  14.411  16.008  11.872  0.4661  0.2428 -0.0859
27534W        W43151  12.904  12.555   1.937 -0.0106 -0.0589 -0.2301
27535W        W43152   7.554  13.934  14.544 -0.1917  0.3256 -0.2336
27536W        W43153   2.873   3.593  11.597 -0.0452  0.0578  0.3462
27537W        W43154  15.416  12.267  11.873 -0.1799  0.0818  0.2448
27538W        W43155   3.404   2.934   3.519  0.0268  0.1204  0.1561
27539W        W43156  15.687   5.339  12.413 -0.0422 -0.2570 -0.0549
27540W        W43157   3.065  15.710  15.703  0.0850 -0.1014  0.0366
27541W        W43158  13.619   8.538  13.669  0.0338  0.0002 -0.1693
27542W        W43159  12.630  14.217   3.352  0.0935  0.1043  0.0471
27543W        W43160   6.396   1.830   5.412  0.0484 -0.1360  0.1002
27544W        W43161  10.934   3.806  16.744  0.3929 -0.1010  0.0151
27545W        W43162   3.714  17.132  13.222 -0.0282  0.5350 -0.0645
27546W        W43163   0.429  11.620   2.434  0.1347  0.3830  0.0753
27547W        W43164   1.730  10.209   4.164 -0.1146 -0.1436 -0.1470
27548W        W43165  15.657  16.557   2.335 -0.0733  0.1136  0.3483
27549W        W43166  13.107   6.890  12.852  0.1721  0.1368 -0.0701
27550W        W43167  10.588  13.057   4.655  0.1657 -0.1139  0.1114
27551W        W43168   9.044   8.653   2.791  0.1766  0.1257 -0.0225
27552W        W43169  17.022  17.063   1.128  0.0064  0.1116 -0.1553
27553W        W43170  11.975   4.192   5.941  0.0941  0.2352 -0.0604
27554W        W43171   7.551  12.957   5.308  0.3741 -0.0370  0.0039
27555W        W43172  16.942   0.991  15.764 -0.0707 -0.2705  0.2473
27556W        W43173  12.088  14.627  11.757 -0.1738  0.0980 -0.0775
27557W        W43174  12.139   7.467   6.154 -0.2358 -0.0170 -0.1762
27558W        W43175  16.144   9.709  15.494  0.0273 -0.3213 -0.1386
27559W        W43176   1.436   4.426   0.861  0.4438  0.2289  0.2363
27560W        W43177   9.425   7.524   5.147  0.1566 -0.2890 -0.0871
27561W        W43178   5.515   3.574   2.034  0.2432 -0.1779  0.2803
27562W        W43179  13.893   8.534   4.930  0.3359  0.2424 -0.0245
27563W        W43180   7.995   4.493  13.000  0.0468  0.0590 -0.0956
27564W        W43181  13.992  15.115   1.317  0.1181  0.2194  0.1728
27565W        W43182   9.427   2.826   2.449 -0.0384  0.0378 -0.0147
27566W        W43183  14.203  11.094  14.560 -0.1433  0.2497  0.2032
27567W        W43184   3.782  15.775  13.601 -0.1931 -0.1342  0.0639
27568W        W43185  10.430   6.958   3.428 -0.1938  0.2061  0.4169
27569W        W43186   3.610   8.830  15.548 -0.5155 -0.0366  0.1296
27570W        W43187  17.172  10.362   4.141  0.0397  0.1764  0.1158
27571W        W43188   2.808   5.141  12.003 -0.1342  0.1404 -0.1408
27572W        W43189   2.126   4.698  14.334 -0.2079 -0.1203 -0.0696
27573W        W43190   6.755   4.224   1.352  0.4466 -0.2285  0.1328
27574W        W43191  17.329  11.075   2.138  0.3220  0.0019  0.0847
27575W        W43192  11.627   7.105   2.797 -0.0620  0.0109  0.0443
27576W        W43193   2.986   0.582  12.959 -0.0855 -0.1535  0.2249
27577W        W43194  17.406   8.460   1.659 -0.1772 -0.0873 -0.0714
27578W        W43195   8.111   7.168  15.351 -0.0233  0.1844  0.0605
27579W        W43196  12.332   4.853  15.260  0.0913 -0.1730 -0.0996
27580W        W43197  15.366  15.252   1.385 -0.1110 -0.1355  0.0985
27581W        W43198  10.059   3.248  15.589  0.0574 -0.0450 -0.3457
27582W        W43199   5.636   7.762   5.359  0.0463  0.0578  0.0221
27583W        W43200  13.364  15.186   0.167  0.0133  0.0237  0.0091
27584W        W43201   4.481   1.682   2.341 -0.0940 -0.0967 -0.2957
27585W        W43202   2.397   2.187   4.347 -0.2926  0.2671  0.3480
27586W        W43203   6.388   6.190  13.090  0.0112 -0.1396  0.0020
27587W        W43204  15.116   1.216  15.259  0.0444 -0.1731 -0.0879
27588W        W43205   8.402   8.381   5.919 -0.0632 -0.1785 -0.0982
27589W        W43206   6.487   5.382  14.639  0.1104 -0.2565 -0.0326
27590W        W43207  13.159   1.294  16.825 -0.0420 -0.2039  0.1124
27591W        W43208   1.318  11.182  15.634  0.1096 -0.0023 -0.0918
27592W        W43209  17.252   1.793  15.297 -0.1019  0.3596  0.0751
27593W        W43210   5.068  12.769  13.442 -0.0384  0.1867  0.1406
27594W        W43211   7.069  10.024   3.639  0.2587 -0.0623 -0.1361
27595W        W43212   4.264   6.972   1.838 -0.1978  0.2719 -0.2033
27596W        W43213   0.444   6.634   4.891 -0.0793 -0.3060  0.1662
27597W        W43214   6.994   9.829   0.907  0.2393 -0.0462 -0.0656
27598W        W43215  13.263   6.892   6.184 -0.2209 -0.2486 -0.0872
27599W        W43216   1.197   1.420  13.077 -0.2860  0.0388 -0.1666
27600W        W43217   6.091  14.534  11.651 -0.1422 -0.1935 -0.4833
27601W        W43218   3.874  10.921   2.170  0.1386 -0.0428 -0.0434
27602W        W43219  10.491   5.212  14.330 -0.0138  0.3083 -0.0338
27603W        W43220  14.591   7.786  13.676  0.1643 -0.0654  0.0042
27604W        W43221   8.330   1.556  11.943 -0.1642  0.1421 -0.0097
27605W        W43222   8.710  14.487  15.134 -0.2500 -0.0667  0.1437
27606W        W43223   0.906   3.190  16.556 -0.0299  0.1986 -0.1821
27607W        W43224   1.440   7.958   1.216 -0.0073 -0.1059  0.0526
27608W        W43225  11.422  16.186   2.244  0.1082 -0.2707  0.0468
27609W        W43226   9.333   8.304  10.993  0.1019 -0.0576 -0.1378
27610W        W43227   2.429   3.760   4.272 -0.2042 -0.1959 -0.0893
27611W        W43228   1.631   6.512  13.368 -0.0286  0.0102 -0.0735
27612W        W43229   0.403  13.785   0.165  0.0656 -0.0613  0.2275
27613W        W43230   6.262   2.882  13.333  0.2348  0.1755 -0.1650
27614W        W43231  14.963  12.592  13.445 -0.0071 -0.0850 -0.3513
27615W        W43232   4.932   6.050  11.357  0.2925 -0.2445  0.0816
27616W        W43233   1.132  14.049   5.452 -0.0997  0.0459  0.0023
27617W        W43234  11.323  13.119  13.029  0.1787  0.0322 -0.1838
27618W        W43235  16.836  17.435  13.744 -0.1645 -0.3036 -0.1184
27619W        W43236   0.721   2.813   5.950 -0.1414  0.0002  0.1735
27620W        W43237  17.448  14.220  11.187  0.3587  0.0831  0.3058
27621W        W43238  12.835   8.169   3.145 -0.0558 -0.2096  0.0567
27622W        W43239  12.542  10.665  16.048 -0.1320 -0.1299  0.1164
27623W        W43240   1.315  16.565  12.941 -0.2168 -0.1108 -0.1508
27624W        W43241  14.856   5.271   4.729  0.0070 -0.0338  0.0835
27625W        W43242  16.155  13.042   3.849 -0.2600 -0.0205  0.2117
27626W        W43243   2.486  12.207  14.168 -0.2546  0.3290 -0.1578
27627W        W43244  16.276   7.794   4.915 -0.1280  0.1122 -0.1484
27628W        W43245  13.533   4.990   1.000 -0.0180 -0.0069 -0.0212
27629W        W43246   8.208  10.572   0.909  0.2613  0.4514 -0.0362
27630W        W43247  16.218  11.484  16.713  0.0828  0.0166 -0.0469
27631W        W43248  12.354  16.570   6.051  0.4378 -0.1920 -0.0472
27632W        W43249   5.853  16.662   5.340  0.2684 -0.0738  0.1941
27633W        W43250  11.776   3.850   4.980  0.3475  0.2087 -0.0410
27634W        W43251  13.550   1.971   2.933 -0.4287 -0.3018 -0.2282
27635W        W43252  17.255   8.940   5.015 -0.1726 -0.0938  0.1343
27636W        W43253   2.235  11.324  16.746 -0.0092  0.0509  0.1648
27637W        W43254   3.205   5.834  14.529 -0.1294  0.2553  0.3781
27638W        W43255   3.817  11.593   0.726  0.2196 -0.2527 -0.0795
27639W        W43256   3.982  15.539  16.734  0.0620 -0.0830  0.2316
27640W        W43257  13.705  10.335   0.723 -0.0473 -0.0641  0.0412
27641W        W43258  11.667  15.508   5.922  0.0845  0.0512 -0.1641
27642W        W43259  14.153  10.222   0.371 -0.0742 -0.0223 -0.0400
27643W        W43260   1.301  17.061   4.587  0.3575 -0.0351  0.1058
27644W        W43261   9.220   6.513   4.287  0.1907  0.0771  0.1587
27645W        W43262   3.073   8.685   2.484  0.0636 -0.0472  0.2102
27646W        W43263  15.179  11.792  12.075 -0.2516  0.0605 -0.2050
27647W        W43264   4.351   3.930   3.836 -0.3301  0.0422  0.0224
27648W        W43265   2.932   2.908   2.774 -0.0899  0.0957  0.1386
27649W        W43266  10.114   7.566   0.153 -0.0424 -0.3655 -0.0204
27650W        W43267   6.921   4.424  14.835 -0.1682  0.1683 -0.1428
27651W        W43268   8.905   9.746   1.148  0.2805  0.1336  0.1240
27652W        W43269  13.990   5.546   3.048 -0.1801 -0.0849  0.2400
27653W        W43270  16.099   0.438  15.867  0.2854  0.0478 -0.0660
27654W        W43271  10.778  12.688  11.631  0.2091 -0.1114 -0.1907
27655W        W43272   4.681   0.825  13.218  0.0735  0.0987 -0.1985
27656W        W43273  17.795   2.364   0.971  0.2346  0.0002 -0.2397
27657W        W43274  12.026  15.068   0.092  0.2984 -0.0661 -0.1044
27658W        W43275  14.437  14.764  11.187  0.0561 -0.3251  0.1724
27659W        W43276   3.805  13.238   3.042  0.3823 -0.2150 -0.0958
27660W        W43277   7.325   1.578   5.447 -0.2050  0.0605  0.0661
27661W        W43278  12.779   8.520  16.054  0.0630  0.0265 -0.1217
27662W        W43279  15.908  17.476  12.465 -0.2598 -0.1723 -0.0108
27663W        W43280  15.016  10.760  14.410  0.0193  0.3345 -0.0399
27664W        W43281   5.243   0.379  16.303  0.0869 -0.0978 -0.0728
27665W        W43282  16.916   7.030   5.709  0.0738  0.0230  0.0021
27666W        W43283  16.926   4.068   0.034 -0.1067 -0.1240 -0.2504
27667W        W43284   4.741   4.259   0.859  0.1452 -0.2039 -0.0324
27668W        W43285   3.775   0.594  13.596  0.0768 -0.1397  0.1545
27669W        W43286  15.524   3.088  14.447  0.0556 -0.3455  0.0189
27670W        W43287   3.852   3.427   1.690  0.3084  0.1053  0.0394
27671W        W43288  17.602  14.091   2.564  0.1863  0.0546  0.1567
27672W        W43289   9.862  13.142   5.286  0.0770  0.0176  0.1483
27673W        W43290   6.330  13.147   2.393 -0.3532  0.2582  0.2647
27674W        W43291  11.234   7.081   5.923  0.2147  0.0786  0.1324
27675W        W43292   7.420   7.405   5.785 -0.1456  0.1274 -0.3241
27676W        W43293   2.799  15.967  14.626  0.1722 -0.1041  0.2836
27677W        W43294  16.342  17.812  11.754  0.0146  0.2780  0.0619
27678W        W43295  15.263  10.068  16.346 -0.1613  0.2546 -0.1134
27679W        W43296   1.842  12.958  13.467  0.1404  0.1600  0.1546
27680W        W43297   9.451  13.168   2.926  0.2136  0.3191 -0.2093
27681W        W43298   0.163  16.944   1.045 -0.2579 -0.0712  0.1276
27682W        W43299  13.235   2.882   5.418 -0.0659  0.0867  0.0593
27683W        W43300  11.815   9.312   0.589 -0.0595  0.1808 -0.2407
27684W        W43301   4.106   6.870   3.730 -0.1027  0.0595  0.0776
27685W        W43302  11.974  11.307   1.888 -0.0074 -0.3484 -0.2627
27686W        W43303  11.772   4.739   1.563  0.1830 -0.1713  0.1244
27687W        W43304  14.663   2.990  13.757  0.1742  0.1085  0.1027
27688W        W43305   2.309   8.702   2.132  0.2137 -0.3741  0.2246
27689W        W43306   1.806  14.868   5.177  0.1424 -0.0094 -0.0063
27690W        W43307   7.789  14.101  11.894  0.0661 -0.0961 -0.0995
27691W        W43308   8.320  17.622  14.073 -0.1041  0.2708  0.0374
27692W        W43309  14.123  12.846   1.588 -0.3065 -0.0670 -0.0059
27693W        W43310  11.489  10.209   2.679  0.0010  0.0402 -0.1585
27694W        W43311  16.887   9.952  14.975 -0.0842  0.1025 -0.1188
27695W        W43312   8.471  14.067  13.139  0.2658  0.2310 -0.2986
27696W        W43313   6.909  13.723   3.226 -0.2668 -0.3290 -0.4064
27697W        W43314   1.622  12.514  16.743 -0.0618  0.1190 -0.0500
27698W        W43315   7.089  16.611   0.216  0.1832 -0.0013  0.1246
27699W        W43316   6.663  17.127  16.125  0.1463 -0.0688 -0.2237
27700W        W43317  13.838   2.291   3.835 -0.1357 -0.2067  0.0062
27701W        W43318   6.440  13.583  13.651  0.2278  0.0172 -0.0291
27702W        W43319   3.063  14.052   0.111 -0.0747  0.1804  0.1898
27703W        W43320   8.745  15.920  15.489 -0.0881  0.1664  0.3782
27704W        W43321   1.849   7.613  14.385  0.0157  0.3411  0.2817
27705W        W43322   3.148   3.643   0.684  0.2518 -0.0914  0.1990
27706W        W43323   0.737  10.849   3.458 -0.0699 -0.0514  0.0939
27707W        W43324  13.844  10.991  16.190 -0.1389  0.0051  0.0031
27708W        W43325   4.505   6.850   5.405  0.2069  0.0588 -0.0233
27709W        W43326  11.668  13.018   1.423  0.0446  0.1610 -0.1194
27710W        W43327   2.394   3.194   5.157  0.1596  0.2303  0.2618
27711W        W43328   7.481  16.599   3.537 -0.1035  0.2307 -0.0705
27712W        W43329   2.489   3.427  11.934  0.0762  0.0413 -0.0207
27713W        W43330  15.326   7.823   1.901 -0.1342  0.3541  0.0196
27714W        W43331   6.843  12.687  16.049 -0.0670  0.0968 -0.1519
27715W        W43332   0.678  14.434  11.966 -0.1325 -0.1701  0.3513
27716W        W43333   5.372  11.557   4.815 -0.0648  0.0982 -0.2498
27717W        W43334  13.432  13.727  15.060  0.1908  0.0661  0.0537
27718W        W43335  17.452   5.812   0.628  0.1489 -0.4817 -0.2686
27719W        W43336   9.814   0.505   2.249 -0.1313  0.1859 -0.0598
27720W        W43337   4.949   3.737   4.437 -0.0145  0.1518  0.1086
27721W        W43338  11.238   8.942   5.984  0.0142 -0.0188  0.0386
27722W        W43339   4.027   6.196  16.274  0.1795 -0.1207  0.2736
27723W        W43340   7.925  16.651  11.424 -0.2948 -0.0517 -0.1298
27724W        W43341  14.918  15.265   2.276 -0.1648 -0.0566  0.2499
27725W        W43342  11.796  12.707  12.527  0.0882 -0.2460  0.1452
27726W        W43343   4.237   3.296   6.112 -0.1808  0.1014  0.1956
27727W        W43344  16.945   5.231   1.471  0.0370  0.0095 -0.1162
27728W        W43345  14.351   6.715  14.327 -0.1556  0.1327  0.0190
27729W        W43346   9.738  17.292  11.740  0.2558  0.2483 -0.4238
27730W        W43347   2.678   3.047  14.077  0.0597  0.0289 -0.2044
27731W        W43348  17.603   7.649  13.125 -0.0041 -0.0399 -0.1825
27732W        W43349   6.525  12.914   0.842 -0.0378  0.3966 -0.2292
27733W        W43350  16.708   4.009   2.352 -0.2166 -0.0695 -0.1088
27734W        W43351   2.724   2.976  15.465  0.0446 -0.1568  0.7376
27735W        W43352   5.086   9.162   1.603 -0.1970 -0.0809  0.3418
27736W        W43353   2.340   5.192   1.754  0.5700 -0.0150 -0.2134
27737W        W43354   6.599   7.929   2.821 -0.1361 -0.1348  0.2255
27738W        W43355  15.225  11.367   4.243 -0.0690 -0.0337  0.1940
27739W        W43356   7.538  16.330   2.287  0.2034 -0.3294  0.4186
27740W        W43357  17.566  12.649   2.274 -0.0748  0.2296 -0.1806
27741W        W43358  17.252  11.400  14.602 -0.2890 -0.0138  0.1787
27742W        W43359   9.274   4.457  13.272  0.0908  0.1828  0.3229
27743W        W43360  15.113   5.875  16.676  0.1635 -0.3089 -0.0909
27744W        W43361   9.163   1.080   2.395 -0.0032 -0.2255 -0.2444
27745W        W43362  10.090   0.008   3.071 -0.0461 -0.2951  0.1655
27746W        W43363   6.486   7.333  11.909  0.2164  0.1616 -0.4160
27747W        W43364  17.573  15.461   4.797  0.1125 -0.0165 -0.1035
27748W        W43365   0.870   9.343  12.381  0.1148  0.0394 -0.1857
27749W        W43366  12.137   1.881   3.259  0.2426 -0.1258 -0.1130
27750W        W43367   2.678   7.840  14.605 -0.1558  0.0642 -0.2820
27751W        W43368  17.741   2.650  16.216  0.0433  0.0763  0.1631
27752W        W43369   4.261   2.101  11.665  0.0776 -0.1757  0.2521
27753W        W43370  15.298   2.944   4.084  0.3519 -0.1111 -0.1630
27754W        W43371   7.415  14.461  11.922 -0.1307  0.1240  0.1226
27755W        W43372   4.473   3.961  12.296 -0.2268  0.1315  0.3257
27756W        W43373   0.807   8.617  12.627 -0.0592 -0.1931 -0.0198
27757W        W43374   5.525   5.807  13.777  0.0394 -0.1348  0.0735
27758W        W43375  14.982   4.490  10.711  0.1873  0.1500 -0.0620
27759W        W43376   0.680   2.823  12.677 -0.3140  0.0422  0.0711
27760W        W43377  13.832  12.197  14.814  0.0661 -0.0961  0.2196
27761W        W43378  10.152   4.939  12.785 -0.0408 -0.2286 -0.0083
27762W        W43379  11.347   5.917  11.935  0.1114  0.0514  0.0046
27763W        W43380   2.030   8.091   4.517 -0.0440 -0.0537  0.2064
27764W        W43381   5.729   4.871  13.118  0.1092  0.0617  0.3652
27765W        W43382   0.292  15.399   1.471  0.0892 -0.2022  0.0892
27766W        W43383   0.158  17.683  14.799  0.3044 -0.0163  0.0682
27767W        W43384  11.175  12.144   4.644 -0.0835 -0.0039 -0.1342
27768W        W43385   5.802   8.022   2.567 -0.0604  0.2028 -0.1701
27769W        W43386  14.480   9.141   0.205 -0.2683 -0.0120  0.1107
27770W        W43387   8.599   8.283  14.543 -0.1043  0.0310  0.1774
27771W        W43388   1.193   5.926   4.246 -0.0417 -0.1976  0.2451
27772W        W43389   3.561   4.120   5.001  0.0372 -0.2067 -0.0401
27773W        W43390   1.467   8.183   5.207  0.2266 -0.1060  0.2360
27774W        W43391  14.393   3.940   4.335  0.2850  0.0159  0.1725
27775W        W43392   2.459   2.796  16.256 -0.2019  0.2774  0.1401
27776W        W43393   1.199  13.669   3.458  0.0018 -0.1727  0.0908
27777W        W43394   3.155  10.141  15.477  0.0486  0.3093  0.1542
27778W        W43395  14.755  12.645  13.011 -0.2978  0.1974 -0.0054
27779W        W43396   1.254   3.741  11.573 -0.0596 -0.2659  0.0025
27780W        W43397   6.476   4.327   3.510  0.1756 -0.1059  0.1757
27781W        W43398  12.137   2.072  14.941  0.1421  0.1223  0.0445
27782W        W43399   4.401   9.010   2.557 -0.0415 -0.0389  0.1885
27783W        W43400  12.479  13.375  15.342  0.0015  0.0102  0.2416
27784W        W43401   6.978   3.062  11.289 -0.1999 -0.1976  0.1112
27785W        W43402   1.386  10.943  11.774  0.3109 -0.1744 -0.1862
27786W        W43403  13.958   4.801   4.590 -0.0442  0.1453  0.5771
27787W        W43404  14.421  10.378  13.016 -0.0904  0.0730 -0.1893
27788W        W43405  14.440   1.538   5.753  0.1743  0.1240  0.2014
27789W        W43406   3.329   6.820  15.006  0.2470  0.0362  0.0251
27790W        W43407  10.933   5.230   5.684  0.1366 -0.0005 -0.2117
27791W        W43408   0.211  11.984   6.247  0.0672 -0.1805  0.0830
27792W        W43409   0.084   8.046   0.184 -0.1516  0.1818  0.3306
27793W        W43410  14.308   6.827   2.405  0.3395 -0.0174 -0.3263
27794W        W43411  14.766   4.856   5.086 -0.2274 -0.0227 -0.0362
27795W        W43412  13.215  10.910  14.789 -0.0060 -0.0455 -0.2957
27796W        W43413  12.039   6.400   1.133 -0.0923  0.0033  0.2380
27797W        W43414  16.152   9.349   3.082 -0.0813  0.1071 -0.3499
27798W        W43415  14.322  14.078   2.734  0.1520 -0.1126 -0.1869
27799W        W43416   2.602   4.045  13.289  0.1764  0.1855 -0.4785
27800W        W43417   3.113  11.008  12.703 -0.2841  0.3197  0.1434
27801W        W43418  13.039   7.893   6.134  0.1915  0.0799 -0.3402
27802W        W43419   8.406  17.556  14.680  0.1060  0.3368  0.1513
27803W        W43420   0.598   9.555  15.473  0.1504 -0.2204 -0.1828
27804W        W43421  17.806   6.624   5.000  0.0205 -0.0551 -0.0339
27805W        W43422   8.366   0.441   1.047 -0.1341 -0.3148 -0.0209
27806W        W43423   0.261  14.670  11.680 -0.2510  0.1961 -0.1625
27807W        W43424  14.453  15.093  12.309 -0.1790 -0.2077 -0.0129
27808W        W43425  11.683   5.025  13.965 -0.0361  0.0219  0.0941
27809W        W43426   4.386  13.796   4.264 -0.0872 -0.0474 -0.0541
27810W        W43427  12.132   3.971   3.303  0.1308 -0.2413  0.0601
27811W        W43428  13.387   0.631  15.223 -0.1024 -0.1328  0.2133
27812W        W43429   3.292  10.615  15.545 -0.0320 -0.0096  0.2327
27813W        W43430   2.305   3.219  12.590 -0.0235 -0.2125 -0.0452
27814W        W43431  11.329   1.436  16.408 -0.0851  0.1122 -0.2303
27815W        W43432   2.142  17.235   0.682  0.0653  0.4647  0.2155
27816W        W43433   5.065  12.544   0.284  0.1107 -0.4197  0.2064
27817W        W43434  11.133   7.575   2.772  0.0023  0.0731 -0.0376
27818W        W43435  15.080  15.536  15.348 -0.1595 -0.2000  0.0083
27819W        W43436  16.979  10.066   0.524 -0.0599  0.0797  0.1843
27820W        W43437  11.661   1.432   3.134 -0.2523  0.2560 -0.3925
27821W        W43438  12.374  17.819  14.099  0.1671  0.0269  0.0446
27822W        W43439   8.606   8.641   1.765 -0.0797 -0.1845 -0.0600
27823W        W43440  15.031   7.550   0.314  0.1109  0.2052  0.1316
27824W        W43441   6.070  10.790   1.370 -0.1462 -0.1401 -0.0354
27825W        W43442  12.414   5.971   1.690 -0.3564 -0.0256 -0.0966
27826W        W43443   8.024   8.090  13.090  0.1592 -0.0964 -0.1126
27827W        W43444   3.922  15.042   4.756  0.1253  0.1635 -0.3063
27828W        W43445  13.753   6.261   0.115  0.5134  0.0699 -0.1977
27829W        W43446   3.022   6.010   4.068 -0.3903 -0.1216 -0.0827
27830W        W43447  14.162  13.577  16.105 -0.0181 -0.1133  0.0661
27831W        W43448  16.592  11.802  14.881 -0.0616  0.3310 -0.2019
27832W        W43449   1.170  11.657  13.463  0.2903 -0.0211  0.2956
27833W        W43450  12.345  11.793   5.066 -0.0413 -0.1613 -0.0029
27834W        W43451  10.688   7.008  14.158 -0.3156  0.1090 -0.0521
27835W        W43452  15.559   9.757  14.674 -0.1652 -0.2123 -0.0482
27836W        W43453   2.076   9.769   3.395  0.1282  0.2006 -0.2770
27837W        W43454   8.098   4.384  14.576  0.0500 -0.2906  0.1535
27838W        W43455  12.837   6.663  13.221  0.0077  0.2018 -0.0868
27839W        W43456   5.167  17.378   0.959 -0.3771 -0.0666  0.0872
27840W        W43457  11.262   2.651   2.275 -0.0766 -0.0466  0.0361
27841W        W43458   8.864   2.430  15.302  0.0227  0.1254 -0.2771
27842W        W43459   3.080  11.050  15.460 -0.0123 -0.0170  0.1045
27843W        W43460   6.529  14.202   0.186 -0.1456 -0.1112 -0.0826
27844W        W43461  10.487   6.524  14.291  0.0027  0.0186  0.2322
27845W        W43462   6.587   1.570  14.131  0.0968 -0.1415 -0.4654
27846W        W43463  17.626   4.755  12.122  0.0304 -0.1160  0.3385
27847W        W43464  13.814   0.127  16.385 -0.1514  0.0573  0.1256
27848W        W43465   6.314  14.982   3.375 -0.1793 -0.1038 -0.2614
27849W        W43466  11.861  11.177  13.289  0.1012 -0.0746 -0.0395
27850W        W43467   8.868  16.039   5.698 -0.1833  0.0576  0.1673
27851W        W43468  16.970  15.428  15.359 -0.2555 -0.0656 -0.0108
27852W        W43469   2.439   9.472  16.464  0.0520 -0.0376 -0.0355
27853W        W43470   1.356  16.850   1.909 -0.2553 -0.1958  0.3683
27854W        W43471  16.434   9.342  16.159 -0.1378  0.2108 -0.4405
27855W        W43472   4.526   2.892  14.389 -0.1967 -0.0312  0.0863
27856W        W43473   3.408   6.586   4.282  0.0152  0.2154  0.1743
27857W        W43474  16.467  13.146  15.067  0.1078 -0.0449 -0.0478
27858W        W43475   3.728  16.482  15.863 -0.0220 -0.1723  0.2122
27859W        W43476  11.451   9.806   1.238  0.0070  0.0180 -0.0038
27860W        W43477   0.837   8.838  13.787 -0.1463  0.0386  0.2124
27861W        W43478  17.208   7.278  16.454 -0.2063 -0.1336  0.0152
27862W        W43479  14.215  13.196   2.586  0.1419 -0.1376 -0.1752
27863W        W43480  16.901   0.759  14.165 -0.0516 -0.1263  0.0832
27864W        W43481  11.140   7.294  13.397 -0.1575  0.0670 -0.1342
27865W        W43482  11.887   5.695   0.320  0.1930  0.1870 -0.1293
27866W        W43483  16.554   1.174   4.835  0.3270  0.0733 -0.1329
27867W        W43484   3.728  11.951  13.392 -0.2085 -0.0170 -0.0968
27868W        W43485   1.266  12.757   0.240 -0.1721  0.0835  0.1433
27869W        W43486   6.403  15.175  14.638 -0.1859 -0.2372  0.0895
27870W        W43487   6.046   4.983  11.969 -0.1820 -0.0377 -0.1365
27871W        W43488   5.090   3.437  16.017  0.0075  0.1938 -0.0513
27872W        W43489  16.242  13.456  14.290  0.1574  0.0339 -0.2959
27873W        W43490  13.097   1.150  12.930 -0.1023 -0.4712  0.4997
27874W        W43491   5.693  13.658  13.540 -0.0485 -0.1445 -0.1898
27875W        W43492   3.254   8.109   1.193 -0.0361  0.2047 -0.1481
27876W        W43493  11.525  16.298   4.237 -0.1730 -0.0873 -0.0580
27877W        W43494   1.145  13.345   3.056  0.2208  0.0226 -0.2962
27878W        W43495  16.337   7.047  16.207  0.0726 -0.2040  0.2541
27879W        W43496   0.082   8.446  14.934  0.1759  0.1530  0.0743
27880W        W43497   8.177  14.625   0.363  0.0123 -0.0131 -0.3379
27881W        W43498  15.217   5.779  16.061  0.0451  0.2406  0.1529
27882W        W43499   9.331  14.279   5.742 -0.0217 -0.1582 -0.2090
27883W        W43500   7.531   0.603  11.895 -0.3511 -0.0411 -0.0173
27884W        W43501   0.285  14.309   0.296  0.0926 -0.1968  0.0306
27885W        W43502   9.703   6.393   2.803 -0.1966 -0.3003  0.1893
27886W        W43503   4.301   1.312  15.346  0.0627 -0.2389 -0.0007
27887W        W43504  10.603   6.418  15.220  0.1431  0.0088 -0.0876
27888W        W43505  15.682   7.630  13.744 -0.0310  0.1378  0.0263
27889W        W43506   9.403   1.483   2.219  0.0084  0.1469 -0.1912
27890W        W43507  12.289   7.537   0.727 -0.0497  0.0990 -0.0383
27891W        W43508   0.463  12.486   3.908  0.0946  0.0860 -0.2798
27892W        W43509  12.179  12.923   4.417  0.0664  0.1134 -0.1071
27893W        W43510   7.861   8.476   1.612 -0.2682  0.2355  0.1079
27894W        W43511  11.058   4.913  16.499 -0.3941  0.0317  0.1391
27895W        W43512   7.821   2.554   1.344 -0.0083  0.0754  0.3312
27896W        W43513   0.021   1.632  11.594  0.0197  0.1145 -0.0194
27897W        W43514  14.700   3.321   1.248  0.0862 -0.4510 -0.1226
27898W        W43515  12.410   0.043   3.058  0.2331  0.0252 -0.0532
27899W        W43516  12.065  11.344   2.878 -0.2399  0.0304  0.1034
27900W        W43517   5.747   9.587  13.390  0.3354  0.1570 -0.0891
27901W        W43518   6.854   5.819  15.724  0.2520  0.1139  0.2260
27902W        W43519   8.593   9.838  15.222 -0.1599 -0.1407  0.0496
27903W        W43520  16.410   5.405   4.040 -0.1703 -0.0467 -0.1458
27904W        W43521  15.316   2.689  15.432  0.3004 -0.1635  0.0488
27905W        W43522  12.111  14.672   4.978  0.0525 -0.1048  0.0550
27906W        W43523   6.953  12.124  12.445  0.0420  0.1809  0.1169
27907W        W43524  10.739  12.577  14.463 -0.1491  0.0386 -0.0034
27908W        W43525   4.005   8.681  15.301  0.0480 -0.1116  0.5800
27909W        W43526   7.911   6.824  13.113  0.3601 -0.1236 -0.0503
27910W        W43527   0.476   3.307  11.997 -0.0920 -0.0422 -0.2149
27911W        W43528   0.982   2.467  14.574 -0.1136  0.1807 -0.1579
27912W        W43529  14.781  16.187  14.957 -0.0607 -0.1019  0.1996
27913W        W43530   8.047   1.781   3.810  0.0986 -0.0915  0.2013
27914W        W43531  17.551  17.157  11.573  0.1065 -0.0923 -0.4346
27915W        W43532  15.328  12.225  13.060  0.1237 -0.1395  0.1439
27916W        W43533   6.852   5.942  13.113  0.1736  0.3449 -0.0808
27917W        W43534  14.067   7.463  12.445  0.0900 -0.0982  0.2940
27918W        W43535   3.899   5.561   4.910  0.1421  0.3356 -0.2251
27919W        W43536   4.737   6.017  13.553  0.0396  0.0551 -0.1343
27920W        W43537  17.324  11.919  13.468 -0.0749  0.2565 -0.0523
27921W        W43538  14.978   7.599  12.731  0.3374 -0.0138  0.1461
27922W        W43539   1.907   5.196   5.833 -0.2818  0.0724  0.3909
27923W        W43540  15.034  15.885   2.714 -0.1368 -0.1186  0.0685
27924W        W43541   7.865  16.455   4.391  0.3124 -0.0740  0.1488
27925W        W43542   0.470   7.152  12.732  0.1705  0.2989 -0.4006
27926W        W43543   6.166   2.098   0.408 -0.0081  0.0550  0.0380
27927W        W43544  17.014   0.030  13.588  0.1632 -0.1224  0.4301
27928W        W43545  14.635  14.839   3.086 -0.2476 -0.3095 -0.3544
27929W        W43546   1.611   4.626   3.917 -0.1572 -0.0890  0.1427
27930W        W43547   8.128   8.225  14.406  0.1348 -0.0850 -0.0803
27931W        W43548   0.849   5.744  13.888  0.2257  0.0846 -0.0206
27932W        W43549   2.373  17.654  14.000 -0.0177  0.1452  0.1849
27933W        W43550  11.188   9.019   0.814  0.2866  0.0824  0.0251
27934W        W43551   0.307  16.555  12.584 -0.3822 -0.1489  0.1494
27935W        W43552   6.035  10.675  16.524  0.0862  0.0953  0.0976
27936W        W43553  13.610  15.548   2.966  0.0488  0.1893 -0.4923
27937W        W43554   6.317   7.044  15.846 -0.0564  0.0519 -0.1708
27938W        W43555   3.931  12.837  13.183  0.2167  0.0745  0.1990
27939W        W43556   2.434  17.044  12.365  0.0551 -0.4322  0.0187
27940W        W43557   8.530   2.384  13.494 -0.0266 -0.0366  0.2045
27941W        W43558  12.102  12.425   5.062 -0.0667 -0.3303 -0.1290
27942W        W43559   7.542  13.175   3.131  0.3409  0.1701 -0.4293
27943W        W43560   6.150  14.693   4.395  0.3050 -0.3639 -0.2167
27944W        W43561   2.688   7.295  14.529 -0.2093  0.1853 -0.0880
27945W        W43562  11.089   8.760   5.106 -0.0846  0.1531  0.1452
27946W        W43563   1.698   2.062   3.705 -0.1250 -0.0131 -0.1972
27947W        W43564   4.716   3.942  11.320  0.1142  0.1157 -0.1162
27948W        W43565  12.203  10.811  11.969 -0.1853  0.1406  0.3026
27949W        W43566   9.582  10.042  11.791 -0.4326  0.1182  0.1069
27950W        W43567   7.830  15.598   0.733  0.0634  0.1318 -0.0071
27951W        W43568  11.953   5.234   4.993 -0.0718  0.1093  0.1633
27952W        W43569   0.243  14.371  14.646 -0.4247 -0.0642 -0.1546
27953W        W43570   3.984   5.817  14.445 -0.0333  0.1298  0.3696
27954W        W43571  14.304  14.621   4.103 -0.0564 -0.3722 -0.0345
27955W        W43572  16.634  12.915  12.034  0.1889  0.0735  0.1649
27956W        W43573  14.541   7.334   2.899 -0.1420 -0.2034 -0.2421
27957W        W43574   4.418  12.848   5.204  0.1414  0.0194  0.0584
27958W        W43575  11.589   2.592  14.486 -0.1565 -0.4406 -0.0193
27959W        W43576   8.256   9.742   5.721  0.1245  0.0984  0.1619
27960W        W43577   8.135   9.423   4.412  0.0989  0.0747 -0.1955
27961W        W43578  14.883  12.572   4.533  0.0969  0.3768  0.1539
27962W        W43579   1.302   7.004  13.496 -0.0885 -0.1199  0.2519
27963W        W43580   1.721  17.485  15.956  0.0530 -0.1103 -0.1014
27964W        W43581  17.213   1.991  12.690  0.0487  0.1144 -0.1791
27965W        W43582  15.162   8.012  13.107  0.0366 -0.3656 -0.2806
27966W        W43583   6.858   4.741  12.497 -0.2055 -0.0368 -0.1651
27967W        W43584   3.699   4.992  12.003 -0.4540  0.2292 -0.0636
27968W        W43585   0.003  13.194  12.883 -0.0286 -0.0565  0.0493
27969W        W43586   4.031   3.003  14.636  0.0528 -0.0461 -0.1221
27970W        W43587  13.617   9.718   2.146  0.1447 -0.0913  0.0127
27971W        W43588   5.809   6.967  15.978  0.1928 -0.2023 -0.0893
27972W        W43589  16.313   0.861   5.399 -0.3112 -0.3437 -0.2647
27973W        W43590  16.044  13.369   5.629 -0.0419 -0.1771 -0.0825
27974W        W43591   2.163  15.079   4.201 -0.1212  0.0605 -0.0642
27975W        W43592   0.152  17.426   0.184 -0.0615  0.2383  0.2208
27976W        W43593  17.525   8.658   3.531 -0.0806 -0.0905  0.0421
27977W        W43594  12.047   8.013   0.953  0.1168  0.0211  0.0335
27978W        W43595  17.599   1.206  14.267  0.1446 -0.2143 -0.0030
27979W        W43596   0.182   8.660   2.939  0.1507  0.1722  0.0999
27980W        W43597  10.247   6.196  15.460  0.1246 -0.0130  0.2614
27981W        W43598   4.518   5.261  11.478 -0.0799 -0.2110  0.0264
27982W        W43599   9.278  11.496   1.267  0.0314 -0.0286  0.2574
27983W        W43600  17.519   5.854  15.079 -0.1347  0.1485 -0.1481
27984W        W43601   6.601  12.365  15.710  0.0007  0.2505 -0.1192
27985W        W43602   2.482  16.636   3.557 -0.0156 -0.3443 -0.2624
27986W        W43603   7.406  14.244  15.455 -0.0989  0.0422  0.2327
27987W        W43604   5.614   3.897  11.420  0.1302 -0.0185  0.2405
27988W        W43605   3.844  15.956  15.880  0.3429 -0.1298 -0.1515
27989W        W43606  13.642  17.861  15.918 -0.0023  0.0827  0.0422
27990W        W43607  16.005   0.055   1.061 -0.5634 -0.0726  0.1726
27991W        W43608   1.110   0.518  11.936  0.0953  0.2335 -0.1520
27992W        W43609  13.071  17.833   2.178  0.1974  0.2107  0.1877
27993W        W43610   0.209   8.471   2.467  0.1740  0.4207 -0.1464
27994W        W43611  10.284   1.531  14.961  0.1995  0.1656  0.1523
27995W        W43612   3.642  12.249   1.580 -0.2023  0.1666 -0.1309
27996W        W43613  16.820  15.245   1.699 -0.3144 -0.2923  0.3189
27997W        W43614   3.465   6.049   3.406  0.1684 -0.1550 -0.3204
27998W        W43615   0.891   7.306   1.319 -0.0355  0.3413 -0.1632
27999W        W43616   7.396   6.990   4.426 -0.0409 -0.1912  0.0421
28000W        W43617   8.809   1.486  11.649  0.3876  0.2296 -0.2266
28001W        W43618   8.065  17.224   2.389  0.1189 -0.0172  0.1511
28002W        W43619   9.828   9.290   2.482  0.1158 -0.0225  0.1928
28003W        W43620  16.879   0.305   2.910  0.0870  0.1374 -0.1660
28004W        W43621   6.358   2.209  15.816 -0.0668 -0.1501 -0.1344
28005W        W43622   8.886   6.411  16.472 -0.0522  0.3568 -0.0756
28006W        W43623  11.047   6.583  12.866 -0.0560 -0.2145  0.2898
28007W        W43624   8.351   2.127   3.552 -0.1345 -0.1640  0.1754
28008W        W43625   5.444   1.659  11.878 -0.1119 -0.3162 -0.0567
28009W        W43626   0.297   2.103   1.667 -0.0388 -0.1743  0.0789
28010W        W43627   2.108   0.978  13.288  0.2173  0.3066 -0.4150
28011W        W43628   3.914  13.627   2.075  0.2362 -0.3016 -0.0867
28012W        W43629   6.139   2.428  15.048 -0.0351  0.1871 -0.2752
28013W        W43630  10.027  16.991   5.109 -0.0023  0.1126  0.0511
28014W        W43631   6.957   7.465   5.404 -0.2035 -0.2424 -0.0233
28015W        W43632   1.324   5.172   5.840  0.1072  0.0627  0.2429
28016W        W43633   2.952  12.630  15.732  0.0223  0.0569 -0.0931
28017W        W43634   3.978   1.400   4.049 -0.3239  0.3283 -0.0067
28018W        W43635  11.860  15.771   4.180 -0.0799  0.1429 -0.0219
28019W        W43636   5.080   0.527  14.934 -0.1508 -0.0911 -0.0716
28020W        W43637   4.021  16.341  14.847 -0.2798  0.2164 -0.0169
28021W        W43638   2.307  10.478  12.400  0.1766  0.1636 -0.0275
28022W        W43639  14.351  15.495  13.952  0.0349 -0.1553 -0.5024
28023W        W43640   1.268  17.102   0.019  0.0468  0.0455 -0.0959
28024W        W43641   3.770   2.614   3.288  0.1356 -0.2168 -0.0258
28025W        W43642  10.324  10.622   1.310  0.0342 -0.0335 -0.0330
28026W        W43643   9.035   3.143  16.259  0.2678  0.2541  0.3054
28027W        W43644   7.911  11.500  16.801  0.0717  0.0466  0.1202
28028W        W43645  13.884  13.405   4.404 -0.0423 -0.0265  0.1567
28029W        W43646  12.418   2.501   1.154 -0.1115  0.1432 -0.1737
28030W        W43647   1.471   0.136  15.238  0.0691  0.2471  0.0254
28031W        W43648  10.409  13.870   5.036 -0.1236 -0.2130  0.1312
28032W        W43649   8.409   2.164  12.184 -0.2366 -0.0601 -0.1405
28033W        W43650   9.674  14.126   5.197  0.1271 -0.0427  0.0212
28034W        W43651   1.594   6.513  13.928  0.2490 -0.2954  0.1498
28035W        W43652   0.681   3.882  13.298 -0.0495  0.0444  0.3190
28036W        W43653   0.957  14.488  13.928 -0.0529  0.2273  0.0668
28037W        W43654  17.476   2.440   4.455 -0.2274 -0.0985 -0.2192
28038W        W43655   2.614  17.142  14.065  0.2780  0.1727  0.2825
28039W        W43656  16.970   2.446   4.563  0.0267 -0.0734  0.1209
28040W        W43657  17.427   4.412  13.879 -0.1619 -0.2587  0.0539
28041W        W43658  16.416   5.250   5.867 -0.0814 -0.0641  0.2463
28042W        W43659   8.781   3.076   2.994 -0.2930 -0.1627  0.2187
28043W        W43660   0.255   5.425  11.702  0.0538  0.1464 -0.1860
28044W        W43661  15.908   3.644  12.200  0.2113  0.4017 -0.1543
28045W        W43662   3.670  17.203   5.582  0.1467 -0.0541  0.0191
28046W        W43663   5.987  12.672   1.497 -0.0398 -0.0006  0.3992
28047W        W43664   0.945   1.785   4.219 -0.0247 -0.0151 -0.0617
28048W        W43665   7.489   4.422   4.938  0.0126 -0.1696  0.0676
28049W        W43666   8.299   0.378  12.129  0.1434  0.3078 -0.1576
28050W        W43667   5.048  15.562  12.896  0.1347 -0.2620 -0.3089
28051W        W43668  17.430   6.830   2.423 -0.0153 -0.1679 -0.1588
28052W        W43669   7.472  17.037  14.881  0.3356  0.1937 -0.2426
28053W        W43670   8.014   8.342   2.502  0.1529  0.1819 -0.1225
28054W        W43671   9.271   5.742   0.771  0.1122  0.2190 -0.0788
28055W        W43672   1.412  13.917   2.050  0.4153  0.3375  0.2654
28056W        W43673   3.356   2.853   0.389  0.0563 -0.1512  0.1150
28057W        W43674  14.917  10.555   3.792  0.1322 -0.0243  0.0708
28058W        W43675   2.115   7.330  10.533 -0.0056 -0.1322 -0.1334
28059W        W43676  17.354   3.303   4.645 -0.0602 -0.2398  0.1044
28060W        W43677   5.257  12.566  16.552  0.3227 -0.0274  0.1385
28061W        W43678  12.587   1.895   4.858  0.2237  0.0813  0.0063
28062W        W43679   6.065  13.690  14.468  0.0458 -0.1793  0.0922
28063W        W43680  15.384   5.038  15.684  0.0388  0.4616 -0.1539
28064W        W43681  15.904   2.164   1.143 -0.2991  0.2546  0.2171
28065W        W43682   6.802   2.355   2.042  0.1310  0.0338 -0.0249
28066W        W43683   7.884   7.706   3.053 -0.0210  0.1595  0.2294
28067W        W43684   6.230  14.847  13.496 -0.4388  0.0840 -0.2377
28068W        W43685   3.171   9.845   4.211  0.2507  0.1521  0.0796
28069W        W43686   6.759   4.069  16.491 -0.1050  0.0140  0.1565
28070W        W43687   0.887   3.266   3.498  0.0182 -0.1364 -0.2439
28071W        W43688   7.347   9.989   5.437  0.0557 -0.1752  0.0258
28072W        W43689  15.364   0.888   1.282 -0.0179  0.2265  0.1098
28073W        W43690  14.327  11.235   0.594 -0.0882  0.1812  0.1815
28074W        W43691   8.075   7.959   5.008 -0.0206 -0.1081 -0.3924
28075W        W43692  14.468   8.450  13.434  0.2147 -0.1632 -0.0079
28076W        W43693   8.576   3.845  16.177  0.1787  0.2983 -0.2574
28077W        W43694   1.433  11.785   5.408 -0.0353 -0.1802 -0.3195
28078W        W43695  12.506  16.366   5.126  0.2590 -0.1319 -0.2401
28079W        W43696   2.166   5.116  13.449 -0.1067  0.1373 -0.0235
28080W        W43697  17.263  12.499  12.193 -0.2313 -0.1313  0.0356
28081W        W43698  16.124   4.591  15.787 -0.0714  0.2034  0.0044
28082W        W43699   8.507  15.152  13.909  0.2219 -0.2023 -0.0503
28083W        W43700   2.330   0.184   1.688 -0.1223  0.2231 -0.3656
28084W        W43701   6.799  11.348   2.078 -0.0581  0.1653 -0.2292
28085W        W43702  10.140   1.161   0.163  0.1916 -0.1623 -0.0091
28086W        W43703   0.323  17.335   4.119  0.1645 -0.1597  0.2654
28087W        W43704   0.954   0.925   3.281 -0.3432  0.2164 -0.0300
28088W        W43705  12.988   5.483  12.516 -0.3874 -0.2939 -0.1323
28089W        W43706  11.447   8.906   5.496  0.0648  0.2422 -0.0000
28090W        W43707  10.928   8.461  13.000  0.0391  0.0374  0.1583
28091W        W43708  10.496  12.963   3.906  0.0524  0.2134  0.0516
28092W        W43709   3.443  10.551   0.201  0.0576 -0.1991 -0.0637
28093W        W43710   1.917   1.023   6.250  0.0800  0.2332  0.0580
28094W        W43711   5.659  16.347  16.557  0.2767 -0.2729 -0.0763
28095W        W43712   7.323  10.090  16.511 -0.0258 -0.0454  0.1046
28096W        W43713  12.161  13.465   4.715  0.0013 -0.2952  0.3186
28097W        W43714   4.949   1.236  11.574 -0.3160 -0.3128  0.0016
28098W        W43715   6.030  13.937   0.227 -0.1689 -0.0536 -0.0451
28099W        W43716   3.205  11.539   3.042  0.1568  0.0459 -0.2963
28100W        W43717   8.451   3.568  11.753 -0.2408 -0.1609  0.0336
28101W        W43718  10.416  16.051  11.912  0.0680 -0.0030 -0.0309
28102W        W43719   1.286  17.247  16.061  0.2978 -0.1966  0.4883
28103W        W43720   4.642   6.884  15.903  0.1495  0.3049  0.0857
28104W        W43721   5.984   7.525   3.531  0.1064 -0.0783 -0.0881
28105W        W43722   4.683   3.964   1.234  0.0135 -0.2603 -0.0705
28106W        W43723   5.964  11.843  16.042 -0.2813 -0.0727  0.0532
28107W        W43724  12.223   0.992   1.150 -0.1207  0.1264 -0.1014
28108W        W43725  16.823   5.998   1.043  0.1187  0.3117 -0.0956
28109W        W43726   4.119   1.128  14.011  0.2147  0.2938  0.0369
28110W        W43727   0.406  11.049   3.740  0.1905 -0.0540 -0.0047
28111W        W43728  16.553  15.668   4.476  0.0224 -0.0727 -0.0438
28112W        W43729  11.893   1.671   5.880  0.0772  0.3730  0.1571
28113W        W43730  10.929  17.281  13.034  0.0044 -0.0408  0.2794
28114W        W43731  13.257  17.083  13.001 -0.0146 -0.0857 -0.0959
28115W        W43732   9.875  14.676  13.759 -0.0194  0.0066  0.0468
28116W        W43733  11.396   9.237   4.146 -0.0209  0.1611  0.2576
28117W        W43734  17.625  15.849   3.166  0.2776  0.2202 -0.0972
28118W        W43735   6.459  11.561  15.985 -0.0466 -0.1287 -0.0118
28119W        W43736   7.137  15.460   2.041  0.0610 -0.0507 -0.1260
28120W        W43737  10.144   5.430   1.802  0.2764  0.1254 -0.1652
28121W        W43738   7.863  11.869  13.501  0.1747  0.2666  0.0587
28122W        W43739   0.822  15.955  14.703 -0.1630 -0.2035 -0.0155
28123W        W43740  10.073   3.454   2.229  0.2009  0.2294 -0.0220
28124W        W43741  12.214  16.887   5.191 -0.0307 -0.0837  0.1372
28125W        W43742   2.092   7.236   1.697  0.3452  0.1212 -0.0393
28126W        W43743   1.558  15.295   5.093 -0.1821  0.1340  0.2596
28127W        W43744   2.305  10.185   0.777 -0.2862 -0.1267  0.0931
28128W        W43745   9.439   1.337   4.208  0.2231 -0.0146 -0.1837
28129W        W43746  13.604   8.118  16.647 -0.1912 -0.2337 -0.0544
28130W        W43747   7.348   9.501   0.876 -0.0026  0.1405 -0.1836
28131W        W43748   4.654   8.774   5.068  0.0325 -0.4951 -0.0928
28132W        W43749  17.607  11.774  14.415 -0.4195 -0.0693  0.0130
28133W        W43750  11.555   7.573  11.188  0.1258 -0.0737 -0.2385
28134W        W43751   1.330  14.514  12.388 -0.0020 -0.0002 -0.0235
28135W        W43752   6.460   2.570   4.815  0.1302  0.1619 -0.0538
28136W        W43753  13.721  17.040  12.879  0.0934  0.2206 -0.1447
28137W        W43754   8.617   9.252  12.963  0.3572 -0.1352 -0.1613
28138W        W43755   9.036  12.146   1.868 -0.1364  0.1807  0.1121
28139W        W43756   3.699   1.161   4.941  0.2464 -0.3470 -0.1314
28140W        W43757   5.771   2.533   3.118  0.2723  0.0703  0.0223
28141W        W43758   8.689  17.082   1.581 -0.2989  0.0415 -0.2665
28142W        W43759   4.972  14.321  12.145  0.0213  0.2492  0.0908
28143W        W43760   9.791  16.781   2.366 -0.3229 -0.3025 -0.4280
28144W        W43761  15.578   4.889   1.488  0.3006  0.0955 -0.0687
28145W        W43762   9.375  16.774   0.862  0.0737  0.1263 -0.0121
28146W        W43763  10.805   0.324  15.168 -0.2383 -0.0503  0.0861
28147W        W43764   0.423   1.677  12.530 -0.2184  0.0689  0.0358
28148W        W43765   5.370   7.578   4.180 -0.0031  0.2185 -0.0698
28149W        W43766   9.889  13.788   4.293  0.4802 -0.0541 -0.1998
28150W        W43767   6.978  13.032  16.425  0.2383  0.0932  0.2636
28151W        W43768  13.420  11.100  16.413 -0.0781  0.1353 -0.0530
28152W        W43769   5.090   7.843  14.788 -0.2524  0.3966  0.2596
28153W        W43770   2.408   5.079   5.630 -0.0774 -0.2572  0.2883
28154W        W43771   3.497   2.241   2.926  0.0450 -0.2698 -0.1099
28155W        W43772   8.525   0.971  10.543 -0.0123 -0.2424  0.1081
28156W        W43773  11.527  11.612  13.017  0.0499  0.0077  0.1394
28157W        W43774   7.974  17.511  16.124  0.2381 -0.1675 -0.2554
28158W        W43775  11.099   6.379   1.341  0.1800 -0.0119 -0.1020
28159W        W43776  16.759  11.624   5.608 -0.1379  0.0613  0.1384
28160W        W43777  16.202  15.668  14.765  0.0266 -0.4308 -0.0739
28161W        W43778  12.563   3.638  12.780  0.1685 -0.1083 -0.0462
28162W        W43779   5.379   6.376  14.526  0.0877  0.1366  0.1644
28163W        W43780   2.805  12.741   2.387 -0.1321  0.1879  0.0416
28164W        W43781   5.022  12.579  13.944  0.1617  0.1430 -0.1220
28165W        W43782   0.910   0.585   4.733  0.2173 -0.0533  0.0302
28166W        W43783   2.710  12.425  11.349 -0.0365 -0.0085  0.2744
28167W        W43784   3.555   3.945  13.222 -0.0455 -0.0030 -0.1120
28168W        W43785   9.966   2.823   1.701  0.1457  0.2174 -0.0132
28169W        W43786   9.634  11.864   1.217 -0.1614  0.0397  0.0050
28170W        W43787   0.169   3.530   0.526  0.1342 -0.0311 -0.0989
28171W        W43788  14.765  15.404   5.894 -0.1749  0.0074  0.2394
28172W        W43789  14.845   9.122  11.781 -0.2939 -0.2288  0.1474
28173W        W43790  17.294  14.885   3.127 -0.0907  0.1445  0.1701
28174W        W43791  10.719   4.297   4.169 -0.1291 -0.0740  0.2478
28175W        W43792   0.420   7.929  15.849  0.2781 -0.2427  0.1227
28176W        W43793  11.687  10.861  15.556 -0.0427  0.1934 -0.0558
28177W        W43794   2.355  10.754   2.215 -0.2568  0.2252 -0.0057
28178W        W43795   9.452  12.100  13.916  0.1880  0.4429 -0.2080
28179W        W43796  14.545  15.506  14.496  0.0740  0.1047  0.2108
28180W        W43797   1.815  12.490   2.018 -0.0238  0.0076 -0.0835
28181W        W43798  11.260   5.266  14.171 -0.0495 -0.1304  0.2182
28182W        W43799  17.280   5.307  13.839  0.3130  0.3709  0.2095
28183W        W43800   7.421   3.355   1.784  0.1955  0.2924 -0.0557
28184W        W43801   7.538   3.211   3.175  0.1030  0.2528  0.1316
28185W        W43802   1.824   5.447  11.696  0.1637 -0.0429  0.1464
28186W        W43803   4.023   6.026  16.726 -0.1037  0.4886  0.0780
28187W        W43804  10.793   8.962   1.164 -0.0239 -0.0008 -0.0683
28188W        W43805  11.238   7.359  13.947 -0.1058  0.1704  0.3722
28189W        W43806   7.196  12.291   5.766 -0.0544 -0.0298 -0.2800
28190W        W43807  11.184  17.644   4.302  0.0905 -0.3461  0.1830
28191W        W43808  13.639  15.981  11.822 -0.0648 -0.3206  0.1880
28192W        W43809   0.187  10.862   3.298  0.0203 -0.1468 -0.1106
28193W        W43810  14.138   2.660   0.384  0.0026  0.1076  0.0147
28194W        W43811  13.494   0.930   0.150  0.2537 -0.0638 -0.0653
28195W        W43812  14.145   4.624   0.101 -0.0474  0.0802 -0.2403
28196W        W43813   1.923  15.421  10.619 -0.2048  0.0024 -0.2293
28197W        W43814  14.878  10.906   2.561  0.2126 -0.0799  0.1783
28198W        W43815   0.343  17.457  13.143  0.0296 -0.1292  0.0104
28199W        W43816  15.876   9.518  13.422 -0.2402  0.0841 -0.0754
28200W        W43817   5.286   2.441  11.817  0.1323 -0.1874  0.0149
28201W        W43818  13.580  14.746  15.731 -0.1027  0.2311  0.1266
28202W        W43819   6.829  14.362   3.277  0.0332  0.0296  0.1036
28203W        W43820  15.184   2.586   5.487 -0.2052  0.4331 -0.1417
28204W        W43821  13.815   9.139   5.776  0.0064  0.0865 -0.3193
28205W        W43822   5.790  10.138  12.239  0.0053 -0.1157  0.0567
28206W        W43823  14.249   6.269  13.431  0.0118 -0.3549 -0.0715
28207W        W43824   9.876  13.857  12.000 -0.0483 -0.1919  0.0976
28208W        W43825  17.233   6.786  16.469  0.0202 -0.1231 -0.0152
28209W        W43826  16.957   8.328  15.750 -0.2719 -0.0446  0.1262
28210W        W43827  14.496   3.239  14.144 -0.1190  0.0825  0.0108
28211W        W43828  17.610  16.326  16.013  0.3596  0.1845 -0.0928
28212W        W43829  13.455   6.303  15.222 -0.4963 -0.1111 -0.2943
28213W        W43830   0.470   6.017   3.616 -0.1592  0.0104  0.1844
28214W        W43831   4.983   0.925  12.817  0.1037  0.3862 -0.0638
28215W        W43832   5.469   2.277  15.692  0.1945  0.2760 -0.1090
28216W        W43833   1.938  14.541  16.377  0.1120 -0.0773  0.1071
28217W        W43834   8.486  15.162   2.843 -0.0179  0.0760  0.1842
28218W        W43835  12.745  11.786   3.472  0.2237 -0.1947  0.0478
28219W        W43836  17.347   3.237   2.272 -0.1244 -0.2041 -0.0836
28220W        W43837   3.725  15.837  11.678  0.1686  0.1210  0.0715
28221W        W43838   4.959   2.089  16.456 -0.1710 -0.2033  0.0475
28222W        W43839  10.955  15.014   4.747  0.0241 -0.2077 -0.1978
28223W        W43840   6.806  14.844  16.484 -0.0892 -0.0319 -0.0145
28224W        W43841   1.674   9.937  13.370 -0.2430  0.0922 -0.0335
28225W        W43842   9.279  11.374  16.424  0.0376  0.1046 -0.3002
28226W        W43843   7.122  15.021  15.319  0.0483  0.0183  0.0656
28227W        W43844  10.258   1.533   1.073  0.1821 -0.1659 -0.2526
28228W        W43845  14.769   5.660   3.824  0.2140 -0.0764 -0.0644
28229W        W43846   5.878  13.355   2.023 -0.3880  0.1641  0.2179
28230W        W43847   9.664  14.875  11.824 -0.0760 -0.0861  0.0071
28231W        W43848   4.205  11.524  15.031  0.0085  0.1091 -0.0803
28232W        W43849   4.442   6.413  15.111  0.1789 -0.1577 -0.4375
28233W        W43850   6.880   8.553   4.556  0.1490  0.1601  0.2680
28234W        W43851   0.389  14.050  13.253  0.2565  0.0576  0.1492
28235W        W43852  11.488   4.989   0.021 -0.1613  0.0860 -0.2640
28236W        W43853  12.784   7.526   0.311  0.1285  0.2406 -0.0094
28237W        W43854   9.374   3.763   4.756  0.1480 -0.1951 -0.0486
28238W        W43855  15.873  14.965   0.088 -0.0162 -0.1307  0.2662
28239W        W43856   5.174  12.503   3.654  0.2307 -0.0155  0.2582
28240W        W43857   7.024  15.073  12.527 -0.0648  0.4214  0.0242
28241W        W43858   9.913  15.981  16.700 -0.2025 -0.3021 -0.0868
28242W        W43859   2.612   5.525   3.047  0.1500 -0.1626 -0.2524
28243W        W43860  13.245  15.524  14.118  0.0727 -0.0482 -0.3413
28244W        W43861   0.472   2.709  13.378 -0.1444 -0.0565  0.0172
28245W        W43862   0.365  13.193  16.282  0.1823  0.1042 -0.0685
28246W        W43863  14.102   1.222  15.161  0.1752 -0.0543 -0.1267
28247W        W43864  12.374  13.893  12.626  0.0030 -0.0622 -0.4466
28248W        W43865  11.545   3.215   5.586 -0.0133  0.0283 -0.2198
28249W        W43866  16.060  14.224  14.315  0.2709 -0.2022 -0.2602
28250W        W43867   8.321   0.709   6.012  0.0804 -0.0361  0.0620
28251W        W43868   3.640   7.530   3.981 -0.1748 -0.0528 -0.1226
28252W        W43869   7.702  15.477   1.227 -0.0040  0.0151  0.0846
28253W        W43870  13.488  10.472   1.625 -0.2900 -0.0825 -0.1398
28254W        W43871  10.234  11.867  15.564  0.1046 -0.2711  0.1038
28255W        W43872   8.511  13.637  16.435 -0.2009 -0.0155 -0.2108
28256W        W43873   5.866   1.730  14.063 -0.0494  0.2348 -0.0115
28257W        W43874  14.217  14.364   5.366 -0.0116  0.0451 -0.3239
28258W        W43875   2.140  13.772  15.700  0.1237  0.0591 -0.1217
28259W        W43876  15.996  14.329   3.465 -0.0124  0.3040  0.1698
28260W        W43877   0.805   3.365   5.933  0.0220  0.2011 -0.1748
28261W        W43878  16.710  14.197   4.737  0.0327  0.0849 -0.0485
28262W        W43879  12.645   1.518  12.641  0.0190  0.0947  0.0333
28263W        W43880  17.405   5.506   1.582  0.4676 -0.1223  0.0328
28264W        W43881  17.473  15.214   6.225  0.0635 -0.0413  0.2245
28265W        W43882   4.723  11.682   0.426  0.0880 -0.0339  0.2343
28266W        W43883  13.605   6.337  14.754  0.0493  0.2448 -0.0765
28267W        W43884   3.998  17.294  16.747  0.1583 -0.2073  0.0945
28268W        W43885  13.361   0.647   4.094  0.1436 -0.3358  0.0485
28269W        W43886   0.048   8.925   5.261  0.1781 -0.0269 -0.2275
28270W        W43887  14.873   2.203   0.846 -0.1027 -0.0300 -0.0653
28271W        W43888  11.944   4.433   3.809  0.1364  0.3614  0.1255
28272W        W43889   1.633   4.187   3.703  0.1897  0.0772  0.1787
28273W        W43890   5.361  12.880   0.624  0.3082 -0.2908 -0.2275
28274W        W43891   2.341   1.724  12.709 -0.0992  0.2275 -0.2613
28275W        W43892   2.793   7.209   0.845 -0.1530  0.0374  0.0444
28276W        W43893  12.677   9.548  16.121 -0.1667 -0.2650 -0.1104
28277W        W43894   9.675  10.257   2.321  0.1013  0.2261 -0.1086
28278W        W43895   3.797  15.271   1.548  0.1136 -0.0294  0.2001
28279W        W43896   0.055   6.804  13.527 -0.1139 -0.0641  0.2397
28280W        W43897   8.504  15.089  11.585  0.3823 -0.1127  0.1628
28281W        W43898  10.534  11.928  12.741  0.1107 -0.0431  0.1176
28282W        W43899   1.587  17.662   2.585  0.0635  0.2145  0.1306
28283W        W43900  15.235   7.244  13.895 -0.0205 -0.0568 -0.0382
28284W        W43901   8.065  13.772  14.490 -0.0738  0.3204 -0.1436
28285W        W43902   5.821  13.036   0.350  0.0233  0.0274 -0.0269
28286W        W43903   8.347  13.731  12.277  0.0012  0.0106 -0.1631
28287W        W43904  15.046   4.572   2.290  0.1063 -0.0484  0.1561
28288W        W43905  17.446   4.454   1.822  0.0168  0.3144 -0.0372
28289W        W43906  16.079   1.508   0.074  0.1117 -0.0752 -0.2006
28290W        W43907  10.840  17.428   2.910  0.0091 -0.1039 -0.4126
28291W        W43908   3.259   0.808   3.230  0.0463  0.1188  0.0177
28292W        W43909  12.797   5.187  11.413  0.0033 -0.0674 -0.2462
28293W        W43910  15.391  16.313   2.761  0.0698 -0.0382  0.1614
28294W        W43911   8.719   9.500   0.749 -0.2516  0.2248  0.0773
28295W        W43912  15.405   0.809   5.701  0.0685 -0.2614 -0.1485
28296W        W43913  10.465  15.351   3.284  0.1164 -0.1321  0.1957
28297W        W43914   1.990  12.606  14.514  0.3146  0.1698  0.3672
28298W        W43915  17.709   3.631   1.414  0.1671 -0.2346 -0.3132
28299W        W43916   3.631  14.225  13.756  0.0871  0.2019  0.1460
28300W        W43917   9.057   8.297  16.265 -0.0826 -0.1484 -0.0224
28301W        W43918   1.759   9.060  16.361 -0.0938 -0.2325 -0.0007
28302W        W43919  11.547   1.256  12.407  0.1255 -0.2432  0.0693
28303W        W43920  11.316  17.097   5.000  0.0544  0.0306 -0.2110
28304W        W43921   9.747  13.838  14.663 -0.1595  0.3713  0.2801
28305W        W43922   1.257   2.122   2.355  0.1006  0.0998  0.0491
28306W        W43923   5.868  15.802   1.581  0.1010 -0.1343 -0.1439
28307W        W43924  11.825   0.090   1.141 -0.1160 -0.1682 -0.1627
28308W        W43925   1.174  11.966   1.407 -0.0293 -0.3783  0.0102
28309W        W43926   3.329   3.082   2.457 -0.1676  0.0052  0.0980
28310W        W43927   0.842  13.651   5.253 -0.0450 -0.0017  0.1841
28311W        W43928  15.109   0.911  14.427  0.1834  0.0486  0.0889
28312W        W43929  17.070   7.760   4.261 -0.0630  0.1784 -0.1816
28313W        W43930   9.489   5.678  12.496  0.2835 -0.0817 -0.0346
28314W        W43931   3.397   3.544  11.483 -0.4028  0.0810  0.1194
28315W        W43932  17.038  17.187  11.726 -0.1822  0.2616 -0.0718
28316W        W43933  12.474  12.110   3.250 -0.0696  0.3351  0.0108
28317W        W43934   9.786   7.776   4.027  0.0296  0.0971 -0.0764
28318W        W43935  11.633   1.513  12.837  0.0407 -0.2786  0.0431
28319W        W43936  14.541   3.503  12.436 -0.2701 -0.0658  0.1258
28320W        W43937  15.144  10.689   4.246 -0.2112 -0.0044 -0.0936
28321W        W43938   2.188  10.987  12.484  0.0368 -0.1059 -0.0783
28322W        W43939   3.875   8.885   1.304 -0.0333 -0.0789 -0.2167
28323W        W43940  12.958  11.084   5.049 -0.0723 -0.0447 -0.1624
28324W        W43941   9.347  16.564  16.066  0.0910  0.2200 -0.0263
28325W        W43942   8.433   6.553  16.268  0.0753  0.0307  0.1023
28326W        W43943   8.313   3.927  16.615 -0.2434  0.2591  0.0694
28327W        W43944   2.159  13.068  11.739 -0.0446 -0.0565 -0.0352
28328W        W43945  16.737  17.494  15.045 -0.3935 -0.4239 -0.0061
28329W        W43946  16.795   3.498   3.219 -0.0915 -0.0064  0.1939
28330W        W43947  10.973   1.136   4.358 -0.0291 -0.2248 -0.1297
28331W        W43948  16.392   9.556  13.548  0.0557  0.0605  0.4256
28332W        W43949   9.465   3.526  14.101 -0.0853  0.0188 -0.2101
28333W        W43950   4.567  16.415  14.399 -0.0669 -0.2806  0.1797
28334W        W43951  11.693   4.211   3.038 -0.1327  0.0730 -0.1217
28335W        W43952   3.903  10.128  16.079  0.1773 -0.4750  0.1233
28336W        W43953   4.210  12.364  11.597 -0.0517  0.1499 -0.1806
28337W        W43954   0.040   6.252  11.846  0.0727 -0.0108 -0.1585
28338W        W43955   8.108   6.669  15.564 -0.3913  0.0072  0.0234
28339W        W43956  15.349  14.741  11.815  0.1977  0.1321 -0.1651
28340W        W43957  13.203   4.264  11.826 -0.3366  0.1119 -0.2510
28341W        W43958  12.684  16.162  13.066 -0.3302 -0.0491  0.1667
28342W        W43959   0.021   6.033   4.937 -0.0256 -0.1883 -0.0258
28343W        W43960  11.187   1.996   1.592 -0.1147  0.0460 -0.4042
28344W        W43961   7.668  15.397  13.648 -0.1202  0.0596 -0.0705
28345W        W43962  10.104  15.216  11.519  0.0791  0.1153 -0.0277
28346W        W43963   1.216  16.138   3.493  0.0422  0.0894 -0.1833
28347W        W43964   6.601   9.109   1.403  0.3438  0.0414  0.1576
28348W        W43965   2.179  12.554  15.069  0.0760 -0.2971 -0.0556
28349W        W43966   1.717  10.274  13.772 -0.1564  0.2557  0.1636
28350W        W43967  16.692   8.789  11.824 -0.0632  0.0257  0.0482
28351W        W43968   9.377  10.692   2.232  0.2740 -0.2126  0.1715
28352W        W43969   2.717  12.710   3.281  0.4298  0.1448  0.0858
28353W        W43970  10.442   8.000  12.918  0.2974 -0.2105 -0.3959
28354W        W43971  13.785  12.192   1.894  0.4807 -0.0590 -0.1030
28355W        W43972  17.344   0.927   5.979 -0.1863  0.0946  0.1051
28356W        W43973  13.747   8.930   0.341  0.0902  0.0115 -0.0724
28357W        W43974   6.950  16.333  12.320 -0.2307  0.0822  0.1376
28358W        W43975  10.243   2.234   5.123  0.0465  0.0133  0.0734
28359W        W43976   8.916  17.298   5.690 -0.1025  0.0082  0.0942
28360W        W43977  12.463   3.651  15.768  0.1115 -0.0074  0.2923
28361W        W43978  17.199   5.234  13.276 -0.0898  0.1181 -0.0651
28362W        W43979  10.320  16.870  13.294  0.2260 -0.1413  0.0034
28363W        W43980   6.987  13.096   1.686 -0.0815 -0.0351  0.0351
28364W        W43981   6.448   9.718  15.567  0.0839  0.2466  0.2292
28365W        W43982   6.246   2.708  16.532 -0.4363 -0.1830  0.1185
28366W        W43983  12.526  11.512  11.861 -0.4383 -0.0138 -0.1257
28367W        W43984   8.051   8.414  13.927 -0.1047 -0.0775 -0.2920
28368W        W43985  17.412  16.382  14.331 -0.1446  0.0182  0.2215
28369W        W43986   5.608  14.196  12.460  0.0567  0.3218 -0.1322
28370W        W43987   4.238   0.150   0.425 -0.0031 -0.2077  0.2649
28371W        W43988  12.204   9.191  12.484 -0.1159 -0.1758  0.2673
28372W        W43989  12.021   2.483  16.602  0.0273  0.1588  0.1687
28373W        W43990  14.893   0.951  14.893 -0.0482  0.3212 -0.0278
28374W        W43991  13.651   5.253   2.169  0.1004  0.2377 -0.1584
28375W        W43992  14.937   4.838   4.254  0.1111 -0.0009  0.0265
28376W        W43993  16.429   0.678   4.933  0.4741 -0.1922 -0.0476
28377W        W43994   2.064  13.450  15.236 -0.1099  0.0037 -0.1372
28378W        W43995   4.617   4.907  12.128  0.1898  0.0120  0.3393
28379W        W43996  15.387   9.689   1.121 -0.3520 -0.2867  0.0095
28380W        W43997  17.310   3.580   3.820 -0.2430 -0.2211  0.0336
28381W        W43998  11.146  16.462  13.744  0.0726  0.2581 -0.1990
28382W        W43999   9.607  11.989  15.940  0.1327 -0.1046  0.1679
28383W        W44000  11.873  17.218   0.555  0.2453  0.0218 -0.2927
28384W        W44001   2.514   2.673   3.576 -0.3257 -0.1621 -0.2933
28385W        W44002   2.679   4.587   3.033  0.0178  0.0409 -0.0103
28386W        W44003   6.944  17.208  12.497 -0.1508 -0.2034  0.2642
28387W        W44004  14.022  10.640   2.897  0.0391 -0.1060 -0.3055
28388W        W44005  12.999  15.102   5.524 -0.0001  0.3174  0.0610
28389W        W44006  11.519   9.040  16.017 -0.2022  0.1673 -0.1334
28390W        W44007   6.207   2.691   5.621 -0.0525 -0.2555 -0.3207
28391W        W44008   9.101  16.321  16.787  0.0824 -0.1911  0.0798
28392W        W44009   5.451  13.989  12.933  0.0470 -0.2035 -0.0518
28393W        W44010   8.724  16.009  14.944  0.1183  0.6238  0.1590
28394W        W44011  13.963   4.316   4.468 -0.0624 -0.0597  0.3773
28395W        W44012  12.778   1.600  14.974  0.0469  0.3829  0.1367
28396W        W44013   9.031  11.592   5.895 -0.2228  0.0637  0.0623
28397W        W44014  15.734  12.151   1.932 -0.1452 -0.0395 -0.0522
28398W        W44015  10.906   6.999   4.288  0.0041  0.2626  0.1313
28399W        W44016   0.255   5.265  15.641 -0.0965  0.3032  0.1741
28400W        W44017  10.890  10.584  13.470  0.0278 -0.2094 -0.1103
28401W        W44018  14.612  11.859   5.183  0.0853 -0.1737 -0.1142
28402W        W44019  16.766   5.510  16.561  0.0833  0.0260  0.0333
28403W        W44020   2.994  13.567   1.088  0.1602 -0.0077 -0.1040
28404W        W44021  15.437   1.741  13.265 -0.0452  0.2140  0.1367
28405W        W44022  15.238  10.614  13.526 -0.0062 -0.2707  0.2083
28406W        W44023   9.119   9.226   0.302  0.2004 -0.0261  0.2977
28407W        W44024  11.843  10.227   4.087 -0.1043 -0.3096  0.0228
28408W        W44025   6.034   6.190  15.531  0.2351  0.0752  0.2475
28409W        W44026   5.297   0.952  12.373  0.0342 -0.2415  0.0000
28410W        W44027  15.765   2.693  13.528 -0.2179 -0.2296 -0.1868
28411W        W44028   0.189  14.801   2.325  0.3357  0.1124 -0.0391
28412W        W44029   6.532   7.253   2.933  0.1375  0.3346 -0.5125
28413W        W44030   4.308  13.670   5.608 -0.3611 -0.0043  0.2006
28414W        W44031  12.455  15.038   4.768 -0.1406  0.0930  0.1257
28415W        W44032   3.096   2.988   1.252 -0.2332 -0.0523 -0.1296
28416W        W44033   5.655  16.651  14.277 -0.1317  0.1717  0.0229
28417W        W44034  11.956  14.494   0.276  0.0354 -0.1816  0.0548
28418W        W44035  10.153   6.961   3.906 -0.1153 -0.5146 -0.1122
28419W        W44036  14.072  12.547   5.597 -0.2861 -0.1777  0.0961
28420W        W44037   1.165   5.584  12.244  0.3358 -0.3160  0.1183
28421W        W44038   6.734   8.156  14.553  0.2367  0.0282  0.0823
28422W        W44039  14.945   9.308   6.212 -0.1705  0.1793 -0.0117
28423W        W44040  11.780   5.461   1.151 -0.1724 -0.1819 -0.1629
28424W        W44041   8.599  12.003  13.982 -0.2045  0.0560  0.1429
28425W        W44042   0.571  16.393   1.665  0.0476  0.1694 -0.1739
28426W        W44043   4.478  13.063   0.884 -0.0324  0.1389  0.1651
28427W        W44044  13.084  17.777   1.669 -0.1095 -0.0407 -0.2126
28428W        W44045  17.548  13.195   4.090 -0.3628 -0.1244  0.0093
28429W        W44046   4.818   7.232   5.412 -0.3143  0.1606 -0.2482
28430W        W44047   0.951   8.551  14.848 -0.0305 -0.3569 -0.1087
28431W        W44048  10.521   7.201  14.591 -0.1551  0.1093 -0.1789
28432W        W44049   8.176  15.419  13.564  0.0475 -0.1703 -0.2245
28433W        W44050  17.591  10.898   0.728 -0.0343  0.1085  0.2069
28434W        W44051   2.317   4.376   5.412 -0.1340  0.3949  0.1652
28435W        W44052  13.107  17.411  14.044 -0.0200  0.0390  0.0943
28436W        W44053  10.844   4.739   1.073  0.2371  0.0825 -0.0552
28437W        W44054  14.200  16.200  12.897 -0.0366  0.0459 -0.0935
28438W        W44055  12.406  16.914  16.023 -0.2917  0.0741 -0.0979
28439W        W44056  17.202  17.158   5.010  0.1594 -0.2992 -0.0355
28440W        W44057   6.893   9.317   1.055  0.1371  0.1490 -0.0443
28441W        W44058  12.675   0.364   5.098 -0.3112 -0.2692 -0.0773
28442W        W44059  10.942   2.710   3.761  0.0399 -0.1855 -0.2514
28443W        W44060   4.173   4.682   4.506 -0.0198 -0.1781  0.2925
28444W        W44061  14.079  13.641  11.293 -0.1629 -0.1117 -0.1102
28445W        W44062  17.579   0.726   0.624  0.1611 -0.0170  0.2299
28446W        W44063   4.078   5.304  13.362  0.0675  0.0859 -0.0586
28447W        W44064  16.942  12.973   6.090  0.1261 -0.3346  0.0698
28448W        W44065   2.008  16.511  11.917 -0.0804 -0.3145 -0.0028
28449W        W44066   8.339  14.694  14.220 -0.0069 -0.0974  0.0364
28450W        W44067  15.844  10.870  12.324 -0.0320 -0.0163  0.1723
28451W        W44068  13.155  16.808   6.201 -0.0900 -0.4496 -0.1182
28452W        W44069   9.951  11.946  10.392  0.0422 -0.2349  0.1208
28453W        W44070   5.762   8.457  13.471 -0.3260 -0.2583 -0.0826
28454W        W44071   4.247   8.491  12.568  0.0945  0.1784 -0.0457
28455W        W44072   6.808   7.178   2.456 -0.1857  0.1280  0.1438
28456W        W44073  15.146   0.889  13.311  0.0314  0.1511  0.0249
28457W        W44074  14.279  12.067   2.726 -0.1788  0.0228  0.0126
28458W        W44075  16.150   9.999  12.502 -0.0330  0.0625  0.1929
28459W        W44076   7.284   6.781   3.237 -0.0623 -0.2013 -0.1979
28460W        W44077   0.369   5.280   4.296  0.1622  0.1128 -0.0139
28461W        W44078  11.652  11.231   4.115 -0.1189  0.0946  0.1836
28462W        W44079   3.494  17.494   0.808 -0.0670 -0.0231  0.3497
28463W        W44080   9.315   6.964   4.475  0.3557 -0.0068 -0.0807
28464W        W44081  17.289  13.632   4.336  0.0199 -0.0777  0.1584
28465W        W44082  13.914   0.383  15.035  0.1115  0.0109 -0.0377
28466W        W44083   8.778  11.147  12.887  0.1340 -0.0455  0.0469
28467W        W44084   1.037   3.413  14.075 -0.1345 -0.1664  0.1694
28468W        W44085  10.598   4.459   5.601 -0.1156 -0.0328 -0.1850
28469W        W44086   0.085   5.472   2.357 -0.0511  0.2797 -0.1295
28470W        W44087  11.240  14.187  11.809 -0.0355 -0.1352 -0.0779
28471W        W44088   4.157  15.580   0.373 -0.0003 -0.0358  0.1092
28472W        W44089   3.577  11.812   1.259  0.1172 -0.1331 -0.1066
28473W        W44090   5.623  13.714   3.630  0.0557 -0.1129  0.0575
28474W        W44091   5.163   1.484  15.317  0.1366 -0.0487  0.2334
28475W        W44092  16.915  10.695   5.281  0.3651 -0.0546  0.0566
28476W        W44093   8.430   3.821   2.654  0.0585  0.0068  0.1263
28477W        W44094  17.319   3.791   0.166 -0.1793 -0.0805  0.3665
28478W        W44095   7.301  11.829   0.093  0.2912  0.0017  0.0703
28479W        W44096   4.091  11.436   3.690 -0.2077 -0.0488  0.2093
28480W        W44097   5.684   2.341  15.226 -0.2495  0.0325 -0.0016
28481W        W44098   2.044   9.564  14.833 -0.2386  0.0303 -0.0781
28482W        W44099   7.441   7.628   2.828 -0.1203 -0.2118 -0.1226
28483W        W44100   1.735  10.879   4.896 -0.0789  0.0269 -0.1076
28484W        W44101  11.286  16.463  15.583  0.1165 -0.0010  0.2904
28485W        W44102  12.199  12.748  16.643  0.0998 -0.1052  0.1067
28486W        W44103   5.285  16.580  16.821  0.2142  0.0878  0.0893
28487W        W44104  14.632  12.226   5.846 -0.0424  0.2032  0.1271
28488W        W44105   8.660  10.942   3.503 -0.1511  0.1235 -0.1159
28489W        W44106   0.899  12.804   6.203  0.1769  0.2776 -0.2491
28490W        W44107   9.661  14.730   1.913  0.2400  0.2954 -0.4778
28491W        W44108   2.028  15.831   2.164  0.2845 -0.2155  0.2034
28492W        W44109  11.394  12.273   1.769 -0.0300 -0.1222 -0.0072
28493W        W44110  15.161  17.665  11.497 -0.0660 -0.0088 -0.1854
28494W        W44111   5.933   5.146   5.957  0.1380 -0.1682  0.3651
28495W        W44112   9.398   3.988   0.416  0.1394 -0.0883  0.0741
28496W        W44113   6.951  11.962  12.990  0.1662  0.2193 -0.0211
28497W        W44114  13.726   2.866  14.985 -0.2602  0.0574  0.1677
28498W        W44115   5.147   6.548  15.577 -0.3200 -0.2114 -0.1721
28499W        W44116   5.946   3.037  13.828 -0.2079  0.0996 -0.1364
28500W        W44117   7.270   6.692  12.041  0.0698  0.0162 -0.1478
28501W        W44118   3.192  16.119   2.905 -0.1471 -0.2008  0.1383
28502W        W44119  16.728  11.305   3.242 -0.0465  0.0313  0.0216
28503W        W44120  12.468   6.883  15.524 -0.0663  0.1202  0.0066
28504W        W44121   3.235   4.454   0.124  0.0498  0.0673  0.4337
28505W        W44122  13.979   3.070   4.844 -0.0917  0.2203  0.0230
28506W        W44123   9.396  14.892   5.859 -0.1744 -0.1038  0.0178
28507W        W44124   4.402   5.531  15.899  0.2931  0.1402  0.1968
28508W        W44125  11.854  11.597   6.151 -0.0745  0.1403  0.2029
28509W        W44126  11.595   8.656  13.948 -0.0561 -0.0992  0.0946
28510W        W44127   9.155  13.310  16.187  0.0335 -0.1313  0.2004
28511W        W44128   6.718   3.391  13.842 -0.1840 -0.0769  0.0241
28512W        W44129  16.222  15.144  14.591  0.3981  0.0740 -0.0774
28513W        W44130  14.588   7.976   5.238  0.1246 -0.0822  0.2004
28514W        W44131   9.324  16.576   0.329  0.1210 -0.2241 -0.1991
28515W        W44132   8.428   4.392  13.754  0.1224  0.1171  0.0740
28516W        W44133  14.490   6.829   2.953  0.1760  0.0215  0.2943
28517W        W44134  11.215   9.461   2.470 -0.1681 -0.0716 -0.2146
28518W        W44135   7.096  16.158  16.193  0.0713 -0.1024  0.0732
28519W        W44136   5.435  14.451  14.216  0.2277 -0.1789 -0.3155
28520W        W44137   3.488  15.149   2.744 -0.0428  0.1820  0.1598
28521W        W44138  15.307   9.110   1.773  0.1629 -0.1997  0.0807
28522W        W44139   1.115  11.664  16.821  0.0691  0.0654  0.1554
28523W        W44140  13.938  16.603  13.314 -0.1103 -0.1185  0.0924
28524W        W44141   5.021  14.453   2.388  0.0829 -0.0903  0.1740
28525W        W44142  13.879   7.674  15.840 -0.1418  0.0628  0.0764
28526W        W44143   0.543  15.071  15.244 -0.0316 -0.1236  0.1329
28527W        W44144  13.217   6.677  15.534  0.0997  0.1331  0.0503
28528W        W44145   8.591   9.987  14.009  0.1877  0.2690 -0.1643
28529W        W44146  15.996  15.881   0.121 -0.0660  0.2662  0.0962
28530W        W44147   9.473  17.731  12.595 -0.0425  0.1661 -0.2662
28531W        W44148   7.165  14.649  15.687  0.2290 -0.0394 -0.0711
28532W        W44149   0.360  14.404  14.089  0.0376  0.3110 -0.1367
28533W        W44150   2.301  11.111  12.966  0.0134 -0.1268 -0.3281
28534W        W44151   6.203   6.541  13.921  0.0267 -0.1754 -0.0808
28535W        W44152   4.410  16.841   1.856  0.0739 -0.2585  0.3093
28536W        W44153  12.150   5.528   6.077  0.0891  0.1121 -0.0798
28537W        W44154   0.839  12.160  12.904 -0.1928 -0.0162 -0.1020
28538W        W44155   5.289   6.205  13.091 -0.2663 -0.1600  0.1891
28539W        W44156   0.588  15.452  14.719 -0.4057  0.3060  0.1395
28540W        W44157   4.216   4.821  10.483 -0.0770  0.1586 -0.1091
28541W        W44158  12.473  14.776  13.564  0.0194 -0.1473 -0.1079
28542W        W44159   3.483  12.323   4.542 -0.2580  0.0016 -0.0491
28543W        W44160   4.914   8.249  14.368  0.1452 -0.1953  0.1243
28544W        W44161  10.426   8.276  16.572 -0.0289  0.0624 -0.1576
28545W        W44162   3.822   3.837  11.873  0.2769  0.0539  0.3711
28546W        W44163   1.614  12.586  13.824 -0.1771  0.1209  0.1396
28547W        W44164   9.345  11.268  15.143  0.1117  0.1545 -0.0228
28548W        W44165  12.649  16.108  15.520 -0.2007  0.0281 -0.0043
28549W        W44166  13.706  13.996  14.725 -0.1489 -0.1850  0.2434
28550W        W44167   3.457  12.810  12.115 -0.0849 -0.0455 -0.3167
28551W        W44168  14.903   7.936   1.587 -0.1712  0.1431 -0.2604
28552W        W44169  10.046   0.197  12.052  0.0018  0.0954  0.2531
28553W        W44170  12.401   0.403   4.675 -0.1135  0.0147  0.0595
28554W        W44171   1.806   8.984  13.723  0.0133 -0.0786  0.1248
28555W        W44172   4.216   0.535   2.893  0.0223  0.0377  0.0737
28556W        W44173  17.040   9.301  13.158 -0.1429  0.1680 -0.0818
28557W        W44174   6.377   5.998  13.980  0.1766  0.1659 -0.1439
28558W        W44175   5.912  15.385   5.830  0.2475  0.2547 -0.1906
28559W        W44176  16.393   9.899  16.352 -0.1877  0.2170  0.1636
28560W        W44177  15.721   0.175  14.167  0.1771 -0.3967 -0.2204
28561W        W44178   5.827  10.833   5.093 -0.1104  0.0217 -0.0257
28562W        W44179  13.610   8.228  12.672  0.1559  0.2935 -0.0366
28563W        W44180  15.224   0.116   1.739 -0.0552  0.0127  0.1131
28564W        W44181   8.795   7.864  14.798  0.0231 -0.2360  0.0939
28565W        W44182  17.024  13.827  16.493  0.0279  0.0031  0.1261
28566W        W44183   8.329   2.231  14.815 -0.1539  0.1413  0.2041
28567W        W44184  15.477   2.872   0.596  0.1165  0.0921 -0.0343
28568W        W44185  14.404  13.895  13.286 -0.2010 -0.0858  0.3600
28569W        W44186   9.122  13.929  12.311 -0.0835  0.1293 -0.2360
28570W        W44187  12.934  16.964   0.381 -0.1276 -0.1193 -0.1048
28571W        W44188   4.931   1.822  12.928  0.0330 -0.3183 -0.0448
28572W        W44189   6.415  13.734   3.100  0.1679  0.0285  0.0751
28573W        W44190   2.925   8.848  12.749 -0.0581 -0.1386  0.4049
28574W        W44191   6.026   3.939  16.114  0.0397 -0.1958 -0.1551
28575W        W44192   8.141  17.208  12.776 -0.0194 -0.3132  0.2270
28576W        W44193  11.773   8.567  15.950 -0.1618  0.1161  0.3024
28577W        W44194   4.909  15.726   2.733  0.2555 -0.2336 -0.1436
28578W        W44195  14.195   0.647  14.005  0.1935  0.2358 -0.0719
28579W        W44196   3.674   0.753   1.246 -0.0459 -0.1356 -0.0161
28580W        W44197  14.065   2.782   0.967  0.1708 -0.0660  0.1010
28581W        W44198  16.772  14.375   0.704  0.1462 -0.3671  0.2120
28582W        W44199   4.265   7.102  12.430  0.2203  0.1506  0.1363
28583W        W44200  16.196   6.211   5.344  0.2078 -0.3562  0.2699
28584W        W44201   9.180   5.002  16.775 -0.0011  0.1322 -0.0628
28585W        W44202   9.223   6.062  12.339 -0.2420 -0.1551 -0.1178
28586W        W44203  10.040  10.618  11.825  0.1277 -0.1405  0.1590
28587W        W44204   3.182   0.570  11.765  0.4460 -0.1949 -0.4271
28588W        W44205   5.444   3.786   2.909  0.1632  0.0076 -0.2403
28589W        W44206   6.850   6.522  11.825 -0.0201  0.0734 -0.0903
28590W        W44207  11.442  17.829  12.886  0.1944 -0.1402 -0.1321
28591W        W44208  13.841   3.600  12.074  0.2160 -0.0803  0.1393
28592W        W44209   0.128  16.616   1.869 -0.0624  0.0503  0.0584
28593W        W44210   2.521   6.948  11.025  0.1806 -0.2344  0.1026
28594W        W44211  14.915   9.695  13.520  0.2135  0.1291 -0.0294
28595W        W44212  10.584  10.244   1.080  0.1490  0.0798 -0.1494
28596W        W44213  12.599  14.939   5.269  0.0407 -0.1974  0.3945
28597W        W44214   5.371  16.716   5.332  0.1378  0.2053 -0.2608
28598W        W44215   3.731   5.066  14.470 -0.0092  0.1412  0.0597
28599W        W44216  10.824  11.102   4.727 -0.0868 -0.0343  0.1818
28600W        W44217  15.602   0.559  15.682  0.5993  0.0945 -0.2327
28601W        W44218   1.643  10.815   5.362 -0.2781 -0.1434  0.0360
28602W        W44219  11.837  17.165   1.464 -0.0814  0.1947  0.0111
28603W        W44220   6.570   1.753  10.841  0.1980  0.0464  0.0817
28604W        W44221   4.643   7.245  13.746  0.1966 -0.1760  0.0908
28605W        W44222   1.492  11.315  14.382 -0.1089  0.3389 -0.1049
28606W        W44223  10.083  17.242   6.162 -0.0422  0.3126  0.1116
28607W        W44224   5.203  17.233   3.229 -0.0394 -0.1828 -0.2061
28608W        W44225  15.520   0.968   2.224 -0.1909  0.1778  0.0931
28609W        W44226  16.679  10.839  14.491 -0.0704 -0.0798 -0.0798
28610W        W44227  14.416  14.339  12.963 -0.3114 -0.1536 -0.2486
28611W        W44228  16.304   2.129   4.919 -0.0673  0.0334 -0.1765
28612W        W44229   7.254  12.863  10.391  0.1617 -0.0664 -0.0776
28613W        W44230  10.657  16.375  11.568  0.0826  0.0349 -0.1488
28614W        W44231  15.339  17.831   2.203 -0.0763 -0.1833 -0.1363
28615W        W44232  10.094  14.351  11.394 -0.1994 -0.2179  0.3056
28616W        W44233  12.280   4.465  16.056 -0.0956  0.3769  0.0351
28617W        W44234  14.005   3.046  11.307  0.1491  0.1084  0.0671
28618W        W44235  14.011  11.752   2.939  0.1197 -0.0767  0.0433
28619W        W44236  14.740   4.872  14.597 -0.0687 -0.2171 -0.1730
28620W        W44237  14.689  10.048   3.702  0.0035  0.1408  0.0560
28621W        W44238  15.230   7.974   5.080  0.1468 -0.0574 -0.2323
28622W        W44239   3.046  11.086   0.959 -0.1077 -0.0030  0.0994
28623W        W44240  11.245   5.555  13.615 -0.1957 -0.1731  0.2409
28624W        W44241   2.309  15.181  11.066  0.2559  0.1473  0.2922
28625W        W44242   3.377   8.054   0.092 -0.1900  0.1348 -0.2448
28626W        W44243  13.592  12.419   4.603  0.0415  0.2397 -0.0853
28627W        W44244   8.828  16.351   5.147 -0.0269  0.0753 -0.3230
28628W        W44245   6.494   1.872  12.991  0.0141  0.1174  0.0447
28629W        W44246   6.479  16.246   3.425  0.2434  0.0400 -0.0226
28630W        W44247  11.889   5.616  14.874 -0.2732  0.0676  0.0168
28631W        W44248   9.365  14.736  11.268  0.1518  0.0090 -0.1599
28632W        W44249   6.000  10.838   2.871 -0.2247 -0.1495 -0.1757
28633W        W44250  10.079  12.117  11.709 -0.0301 -0.2021 -0.0528
28634W        W44251   5.020  11.980   4.428  0.4023 -0.1537 -0.1220
28635W        W44252  10.972   7.486   4.395 -0.2311  0.0283 -0.3232
28636W        W44253  11.316   2.632  12.269 -0.1765 -0.3335 -0.1218
28637W        W44254   4.238   5.668  11.682 -0.2051 -0.0765 -0.0907
28638W        W44255  10.715  11.586  16.817  0.1695  0.0670  0.1956
28639W        W44256  14.538  16.758  13.153 -0.1301 -0.1705  0.1983
28640W        W44257   5.271  15.180  12.624  0.1052 -0.0493  0.0473
28641W        W44258   5.049  13.184  11.471  0.2754 -0.1777  0.0097
28642W        W44259   1.035   0.407  13.932 -0.1704  0.2141 -0.2215
28643W        W44260  16.417   7.569  15.442 -0.1302 -0.3278 -0.1081
28644W        W44261   2.046   0.362   0.749 -0.0022 -0.1074 -0.0812
28645W        W44262   4.631  14.057  12.661  0.2008  0.3976 -0.0167
28646W        W44263   3.254  12.095  14.485  0.1958  0.1559 -0.1468
28647W        W44264   6.812   0.135  11.875  0.2578 -0.1575 -0.0479
28648W        W44265   6.430   3.670   5.341 -0.1405 -0.3949  0.4515
28649W        W44266   1.933   7.480   3.692  0.1687  0.2104  0.1485
28650W        W44267   1.725  12.891  11.504 -0.0308 -0.0540 -0.1433
28651W        W44268  16.511  13.190   2.276 -0.3508  0.1437  0.1084
28652W        W44269  13.252   6.366  14.289  0.0910  0.1140 -0.0228
28653W        W44270   2.976  14.447   2.494 -0.0076  0.0707  0.1646
28654W        W44271   4.768  10.090  14.165 -0.1666  0.3022  0.0049
28655W        W44272   8.230   6.900   5.236 -0.3889  0.1255 -0.1121
28656W        W44273  13.494  17.300   4.346  0.2152  0.1123  0.1921
28657W        W44274  10.298   0.122  14.891 -0.0450 -0.0236 -0.0614
28658W        W44275   7.753   9.450   1.155 -0.0782 -0.0944 -0.0650
28659W        W44276   8.570  15.490  11.926  0.3018  0.2929  0.2796
28660W        W44277   8.479   4.380   1.201 -0.0898 -0.0944  0.0332
28661W        W44278   8.143   9.184   2.837  0.2052 -0.0001  0.2254
28662W        W44279  10.662   0.959  14.311  0.1308  0.1544 -0.0766
28663W        W44280   6.941   8.835  13.407 -0.0151  0.0499 -0.1870
28664W        W44281  13.127   4.945  15.708  0.0138 -0.0948  0.1310
28665W        W44282  12.879  17.871  14.162 -0.0307 -0.1394 -0.0485
28666W        W44283   8.505   6.643   2.350 -0.0379  0.2160  0.2548
28667W        W44284   7.946  13.097   2.437  0.1558 -0.0986  0.1966
28668W        W44285   3.322   4.202   4.484 -0.4059 -0.2421 -0.0066
28669W        W44286   1.677   9.995   3.696  0.0347 -0.2080  0.1556
28670W        W44287   9.049  14.503   4.770  0.0591 -0.0405 -0.0672
28671W        W44288   9.144  14.691  15.033  0.1042 -0.2585  0.1545
28672W        W44289   0.774   3.025  12.230 -0.3061 -0.2730 -0.2519
28673W        W44290   6.289   9.035  15.774 -0.0602 -0.0549 -0.2860
28674W        W44291   5.240   6.757   6.142  0.1886 -0.0378 -0.1582
28675W        W44292  10.081  13.352   0.861 -0.1569 -0.4350 -0.0456
28676W        W44293   6.809   9.234   2.738  0.1288  0.0471  0.0354
28677W        W44294  13.145   0.460   1.963  0.3564 -0.0442  0.0698
28678W        W44295  14.575   8.822  15.426  0.1806 -0.2466  0.0962
28679W        W44296  12.902  11.804  11.901  0.0186  0.0263 -0.3891
28680W        W44297   2.214  11.135   1.797 -0.1246 -0.0975  0.4635
28681W        W44298   5.250   2.775   1.762  0.1032  0.2213 -0.0586
28682W        W44299   9.930   7.185   3.339  0.2287  0.1301  0.0584
28683W        W44300  12.146  17.236   3.695  0.0640  0.0244  0.0380
28684W        W44301   4.863   0.126   5.253  0.1881  0.0041  0.3104
28685W        W44302  17.682   8.218  16.551 -0.0154 -0.3686 -0.0308
28686W        W44303  16.581   8.027   1.404  0.1916 -0.2297 -0.2880
28687W        W44304   4.319   5.810  13.920  0.0630  0.0541  0.0995
28688W        W44305  14.226   5.661  13.982  0.0274  0.1591 -0.2512
28689W        W44306  12.774  12.549   3.875  0.1171  0.1000 -0.1812
28690W        W44307   1.279  14.165   3.341 -0.1197  0.2027  0.2012
28691W        W44308   5.352   4.883   4.870  0.0987  0.2785 -0.2626
28692W        W44309   2.180  12.284   4.984 -0.0350  0.2141 -0.2324
28693W        W44310   1.627  10.433   0.357  0.0331 -0.0344 -0.0090
28694W        W44311  11.282   6.917  15.579 -0.0613 -0.0050  0.4048
28695W        W44312  14.426  15.567  12.160 -0.1787 -0.1175  0.0245
28696W        W44313  17.247   4.253  12.761 -0.1121 -0.1487  0.0691
28697W        W44314   3.984  12.990  15.184  0.1793 -0.0332 -0.2957
28698W        W44315   2.410   4.267  16.810  0.3716 -0.0021 -0.1052
28699W        W44316   1.589   2.865   5.986  0.3069 -0.1754 -0.1179
28700W        W44317   4.185  17.691  14.634 -0.2018  0.2390  0.4383
28701W        W44318  13.112  15.972   1.021 -0.2124 -0.0206  0.0821
28702W        W44319   3.959   4.662   6.413 -0.1498  0.0897  0.0401
28703W        W44320  10.407   5.965   4.030  0.1389  0.3765  0.1299
28704W        W44321   9.467  10.974   1.168 -0.3022 -0.1277 -0.1833
28705W        W44322  15.330  13.031   5.792 -0.0552  0.3266 -0.2572
28706W        W44323  15.509   9.571   4.016  0.3179  0.0262 -0.1258
28707W        W44324   7.427   7.275   5.267  0.0768  0.0994 -0.2465
28708W        W44325   0.196   2.918  14.940 -0.0344 -0.0129  0.3501
28709W        W44326  13.980   5.850   0.265 -0.1610 -0.2322  0.1376
28710W        W44327   0.699   9.850  14.574 -0.1517 -0.1324  0.4362
28711W        W44328  14.330   0.560   4.004 -0.0564 -0.1388 -0.2244
28712W        W44329  10.310   9.777   1.285 -0.0131 -0.1503 -0.0902
28713W        W44330   4.770  14.692  12.485  0.1832 -0.0112 -0.0976
28714W        W44331   1.774   5.886  15.023 -0.0928 -0.0819 -0.2748
28715W        W44332   1.878   3.797   2.797 -0.0002  0.0945 -0.2374
28716W        W44333  17.363  11.773  14.931  0.1012 -0.0884  0.1025
28717W        W44334   9.902   9.485   2.008  0.1296 -0.0428  0.0951
28718W        W44335   6.056   2.549  15.574  0.0485  0.2501 -0.0371
28719W        W44336   3.309  15.852   5.238  0.0256  0.0612 -0.1750
28720W        W44337   9.375  10.607   0.780  0.0713 -0.1359  0.1069
28721W        W44338   6.332   2.190  16.327 -0.0184 -0.2469  0.0229
28722W        W44339   0.495   7.750  12.706 -0.1174 -0.1266  0.2001
28723W        W44340  14.463   8.498   0.827  0.2735  0.0479  0.0748
28724W        W44341   3.644   9.932   2.611 -0.1150  0.1701  0.1268
28725W        W44342   6.917   1.215   0.225  0.3141 -0.1020 -0.0278
28726W        W44343  11.640   9.321  13.309 -0.0093  0.2034 -0.2503
28727W        W44344   7.103   8.006   2.672 -0.2679  0.0623 -0.1823
28728W        W44345  16.301  16.007   2.615  0.1438  0.0799 -0.2102
28729W        W44346  16.043   3.886  11.792 -0.0694 -0.1052  0.0721
28730W        W44347  15.176   6.206  13.332  0.4664  0.0610 -0.0153
28731W        W44348  14.665   6.651   5.489  0.2475 -0.0419  0.0008
28732W        W44349  16.578   9.944   1.683  0.2246  0.2977 -0.0658
28733W        W44350  10.548   3.149   2.397  0.4698  0.0018  0.2724
28734W        W44351  14.641   2.057  15.090 -0.1149 -0.1340 -0.0982
28735W        W44352   9.672   3.721  15.917  0.2241 -0.0349 -0.1873
28736W        W44353   9.470   1.530  16.133 -0.0493  0.1852  0.1053
28737W        W44354   0.611   7.900   4.245  0.1702  0.1062 -0.1079
28738W        W44355  14.012   8.483   1.805  0.1261  0.0369 -0.0789
28739W        W44356  10.444  15.881  13.051  0.3201  0.2665  0.1161
28740W        W44357   2.357  14.152  14.141  0.1080  0.0080 -0.1614
28741W        W44358  12.633   1.612   3.309 -0.2058  0.1496 -0.0320
28742W        W44359   1.326  17.398   2.977 -0.1133 -0.1890  0.2194
28743W        W44360  12.386   9.332  13.004  0.0984  0.1408 -0.1116
28744W        W44361   4.241   1.927   1.016  0.4493  0.1349  0.0545
28745W        W44362   1.190  15.541  12.809 -0.2417  0.0371 -0.0137
28746W        W44363  16.554  10.612   0.349 -0.1298 -0.1066 -0.0851
28747W        W44364   7.013   7.021   2.864 -0.6424 -0.0227 -0.2397
28748W        W44365   1.318   3.043   4.649  0.0189  0.0492  0.0901
28749W        W44366   6.245  16.791  15.493 -0.0837 -0.0049 -0.1668
28750W        W44367   9.861   4.852  15.152  0.1561 -0.0426 -0.3377
28751W        W44368   7.035  11.104   0.587 -0.3949 -0.2409  0.1206
28752W        W44369   2.868  11.249   2.863  0.2348  0.0059 -0.0967
28753W        W44370   4.073   1.519  12.806 -0.3020  0.0519 -0.0393
28754W        W44371   0.700   9.352   0.576  0.0941 -0.0624 -0.2774
28755W        W44372   0.888  13.475   4.762  0.1684  0.2132 -0.0956
28756W        W44373   4.630   5.052  14.379  0.2781 -0.0604  0.0149
28757W        W44374   0.332  12.111   1.140 -0.3088  0.1955 -0.1505
28758W        W44375  10.429  10.919  14.162 -0.1216 -0.1186 -0.1086
28759W        W44376  11.440   7.606   2.258 -0.1872  0.0398  0.0160
28760W        W44377   2.847   1.924   4.335  0.1860  0.5281 -0.4311
28761W        W44378  11.647  12.955  12.069 -0.0016  0.0180  0.1044
28762W        W44379  11.518   4.793  15.831  0.1557  0.0963  0.0485
28763W        W44380  17.159   9.125  14.495 -0.1267 -0.0101  0.2175
28764W        W44381   4.538   1.577   4.801  0.1962 -0.0892  0.1474
28765W        W44382   2.805   0.774   1.395 -0.1758  0.0679 -0.2347
28766W        W44383  11.774  15.369  16.501 -0.2561  0.0447  0.3010
28767W        W44384   0.073  14.782  14.291  0.3218 -0.0490  0.1202
28768W        W44385   1.578   1.070  16.792  0.3613  0.0539 -0.0123
28769W        W44386   0.155  15.197  11.971  0.1170 -0.1617 -0.0536
28770W        W44387  10.125  11.226   0.750  0.1369 -0.0431  0.1826
28771W        W44388   6.829   9.369  15.334  0.2773 -0.1141  0.0697
28772W        W44389  11.637   8.523  12.842  0.1414  0.0160 -0.0411
28773W        W44390   7.655   4.348   1.240  0.1604 -0.2171 -0.0888
28774W        W44391   7.120   4.229   4.253 -0.0101 -0.0352  0.2359
28775W        W44392  14.886   4.095  16.475  0.2198 -0.3973 -0.2318
28776W        W44393  11.584  16.573  10.845 -0.0163  0.0851 -0.0547
28777W        W44394  16.042  15.566  14.329 -0.3637  0.1300 -0.3366
28778W        W44395   4.362   6.068   4.225  0.1282 -0.0887 -0.0119
28779W        W44396   4.434   6.265   3.231  0.0376  0.1020  0.0453
28780W        W44397   7.218   1.226   3.536 -0.1437  0.2131 -0.1215
28781W        W44398   3.307   4.498   5.268  0.0613 -0.0081  0.1199
28782W        W44399   0.611  10.350  12.463 -0.2700  0.0109 -0.1390
28783W        W44400   6.983  12.698   5.601  0.0021 -0.0698 -0.0293
28784W        W44401   2.650   3.813   0.842  0.3053 -0.0259 -0.1294
28785W        W44402  13.723  17.103   0.872 -0.0250  0.1387  0.1607
28786W        W44403   6.570  16.300   1.933 -0.0267 -0.1852  0.1054
28787W        W44404  17.153   2.107  16.672  0.2813 -0.3146  0.2419
28788W        W44405  13.324   7.606   0.273 -0.1271 -0.0381 -0.2973
28789W        W44406   2.714  13.365   1.597 -0.0608 -0.0554  0.0984
28790W        W44407   5.701   2.374   5.308 -0.1101 -0.0165 -0.3940
28791W        W44408   7.047  14.179   2.331  0.1357  0.2344  0.2276
28792W        W44409   8.330   7.286   5.975  0.2458 -0.0126 -0.0903
28793W        W44410   0.151   6.977   4.585  0.1044 -0.2394 -0.0835
28794W        W44411  10.035  13.396   5.684 -0.1932  0.5462 -0.0732
28795W        W44412  12.187  11.826   2.979  0.2085  0.2578  0.0531
28796W        W44413  11.436   8.368   6.049  0.1207 -0.0086  0.0115
28797W        W44414   1.781  17.116   3.094  0.0053 -0.0139 -0.1220
28798W        W44415  14.012  13.239   3.850  0.1698  0.2915  0.1271
28799W        W44416   5.770  11.524  12.140 -0.0399  0.0623 -0.0678
28800W        W44417  17.238   6.519  15.385  0.1382 -0.1596  0.1889
28801W        W44418  13.459  17.505  12.851 -0.1049  0.2578  0.0045
28802W        W44419   2.609  12.892  11.558 -0.0501  0.0330 -0.0537
28803W        W44420   0.830   9.895   1.757 -0.1421  0.2971  0.0173
28804W        W44421  16.034   5.025   0.579  0.2117 -0.1670 -0.0710
28805W        W44422  16.631   6.280  12.625  0.0252  0.2143  0.0213
28806W        W44423  10.573  11.470  12.917 -0.0592 -0.1191 -0.1151
28807W        W44424  15.775   7.016   4.308 -0.0555  0.0272  0.1679
28808W        W44425  14.554   2.402   0.519  0.1779 -0.3721  0.0757
28809W        W44426  17.810   5.103   2.599  0.5469 -0.0438 -0.2346
28810W        W44427   5.970   6.109   2.661  0.0399 -0.0819  0.2383
28811W        W44428  15.192   0.413   3.742 -0.3902  0.0716  0.0032
28812W        W44429   2.742   8.745   1.758 -0.3760  0.2248  0.1541
28813W        W44430  11.350   1.911  13.732 -0.2547  0.0383 -0.0214
28814W        W44431  11.686  13.613  14.679  0.0959  0.0735 -0.0919
28815W        W44432   1.089  17.770   1.664  0.2407  0.0569  0.2380
28816W        W44433   0.162   1.423  12.234  0.2648 -0.1602  0.3984
28817W        W44434  10.889   8.059  12.693 -0.0415 -0.0838 -0.1066
28818W        W44435   7.295  17.371  11.254 -0.0782 -0.1950  0.3059
28819W        W44436  10.947  12.531   0.853 -0.1942  0.1479  0.0975
28820W        W44437   9.575   6.331   5.077 -0.0835 -0.0331 -0.3482
28821W        W44438   4.559   4.730   3.830  0.0651  0.1674 -0.1105
28822W        W44439   4.180   4.248  11.856 -0.0466 -0.1771 -0.0119
28823W        W44440  15.289   3.193  16.340  0.2119 -0.1237 -0.1219
28824W        W44441   4.875   8.962   2.347 -0.2288 -0.0319 -0.1661
28825W        W44442   6.460  14.026  10.924 -0.0094 -0.0469 -0.1912
28826W        W44443   6.152  13.610   3.908  0.0946  0.1098  0.3029
28827W        W44444   6.226   8.052  14.787 -0.2378 -0.0051 -0.2115
28828W        W44445   7.335   6.342   6.718 -0.0548  0.0245  0.1321
28829W        W44446  12.877  13.700  12.330 -0.1283  0.3015  0.2539
28830W        W44447  14.137   9.543  16.101 -0.1032 -0.0315  0.4303
28831W        W44448   5.121  12.751  12.427 -0.3303  0.1255  0.0538
28832W        W44449  15.267  13.113   3.964  0.1216 -0.2979  0.0655
28833W        W44450   3.090  12.421  13.048  0.0106 -0.0096 -0.3370
28834W        W44451   7.548  11.643   0.520  0.1040 -0.0201  0.1103
28835W        W44452   7.379  17.479  10.539  0.0296  0.0198  0.0319
28836W        W44453   9.525   2.730   0.076  0.0410 -0.0673  0.0304
28837W        W44454   0.990  14.011   4.390  0.2529  0.0395 -0.2659
28838W        W44455  17.694   8.047   5.451  0.0961  0.1208 -0.2742
28839W        W44456   2.176   6.816   1.433 -0.3359 -0.2184  0.1550
28840W        W44457   9.629  16.442  15.101  0.1372  0.1301  0.2706
28841W        W44458  16.146  17.641   4.408  0.0804  0.0950  0.0319
28842W        W44459   0.231  13.930  13.761  0.1147  0.0368  0.3537
28843W        W44460  16.859   4.857  15.159 -0.2232  0.2051  0.0974
28844W        W44461  12.968   0.177  13.341  0.0095 -0.2322 -0.2456
28845W        W44462   4.892  10.739   5.121 -0.2507  0.1662  0.1993
28846W        W44463   1.872   5.440   0.163 -0.0577  0.0765 -0.0922
28847W        W44464   7.852   2.720   5.295 -0.1012  0.1451  0.2607
28848W        W44465   7.118   4.110   2.169  0.0379  0.1326 -0.2368
28849W        W44466   4.736   9.987   3.397 -0.0165 -0.0391 -0.0123
28850W        W44467  12.661   0.486   6.056  0.1725  0.1649  0.0485
28851W        W44468  15.095   2.184  14.687  0.2012  0.0152 -0.1010
28852W        W44469   2.012  16.433   4.393  0.1107  0.1526 -0.3019
28853W        W44470  16.619   2.602   2.620 -0.0155 -0.1319  0.0477
28854W        W44471   2.624  17.125   1.501 -0.0715 -0.0848  0.1401
28855W        W44472   5.908   8.591  15.652  0.1516 -0.0148 -0.0373
28856W        W44473   5.796   1.715  12.475 -0.1310 -0.2124 -0.1795
28857W        W44474  10.757   6.357  14.715  0.0657  0.0167 -0.2104
28858W        W44475   5.357   2.140   3.525 -0.0444 -0.3261  0.0565
28859W        W44476  11.741   2.798  16.254 -0.0033  0.2103 -0.2624
28860W        W44477   3.643  11.742   5.399 -0.0183 -0.1100 -0.4089
28861W        W44478   8.464   6.170   2.701 -0.2257  0.2806 -0.0246
28862W        W44479   9.321   0.226   1.558 -0.1279  0.1918  0.1715
28863W        W44480  13.406  16.580   2.182  0.1326 -0.0144  0.1138
28864W        W44481  13.541  10.270  16.063 -0.0523 -0.0386 -0.0554
28865W        W44482   8.838  14.552  15.630 -0.0909 -0.0189 -0.0114
28866W        W44483  14.215   4.203  13.253  0.0109  0.1831  0.2654
28867W        W44484  16.316  12.631  13.123 -0.1011  0.0714 -0.1371
28868W        W44485  10.035   9.428   5.491 -0.0602 -0.2944  0.1080
28869W        W44486   7.061   8.256   1.063 -0.1087 -0.0440  0.0310
28870W        W44487  13.055  15.978  15.720  0.0082  0.1363  0.3325
28871W        W44488   9.485  17.006   3.601  0.0199  0.0185  0.0531
28872W        W44489   0.644  16.072   0.538  0.0442 -0.0895  0.3219
28873W        W44490  15.278  10.187  12.066  0.0311  0.0763 -0.1480
28874W        W44491   0.788   6.529  12.361  0.1097 -0.4729 -0.2562
28875W        W44492   1.399   7.830  15.717 -0.2125  0.1224  0.2151
28876W        W44493  17.632  10.246   2.454  0.1144  0.2352  0.1552
28877W        W44494   5.298   6.867  15.936 -0.0203  0.2137 -0.1764
28878W        W44495  12.910   8.483   1.071  0.1083  0.1523 -0.0705
28879W        W44496   7.006   2.659   2.358  0.0291  0.3203 -0.1520
28880W        W44497   4.509  15.261  11.119  0.0096  0.0371  0.0284
28881W        W44498   0.172  11.778   0.184  0.3301 -0.2310 -0.2367
28882W        W44499   9.434  13.437  14.628  0.1051 -0.1002 -0.0112
28883W        W44500   8.082   2.098   2.664  0.2081 -0.0076 -0.2177
28884W        W44501   3.600  10.030  14.765 -0.3087  0.0182  0.1077
28885W        W44502   4.355   9.350  11.940  0.0459 -0.0507  0.6477
28886W        W44503   4.102  12.688   1.707  0.2213  0.1535  0.0056
28887W        W44504   5.231   0.598   2.407 -0.0984 -0.3405  0.0946
28888W        W44505   8.944  17.490  12.873  0.0308 -0.0181 -0.0041
28889W        W44506   1.131   7.916   0.326  0.0702 -0.1227 -0.1910
28890W        W44507   1.902  10.790   1.935  0.1332 -0.1616 -0.0653
28891W        W44508   1.170  13.869   4.916 -0.0972 -0.1274 -0.0879
28892W        W44509  14.744   8.407   3.487  0.1381  0.0594  0.0793
28893W        W44510  12.716   6.886  12.496  0.1197  0.0356 -0.2299
28894W        W44511  13.336   4.589  16.578 -0.1414 -0.1313 -0.0034
28895W        W44512   9.465   2.065  15.938 -0.1168  0.0015  0.2944
28896W        W44513  17.023  17.490  13.222 -0.0293 -0.1246  0.0943
28897W        W44514   5.900  12.797  13.168  0.1890 -0.5223 -0.3324
28898W        W44515  10.465  15.312  13.167 -0.2991 -0.3621  0.2601
28899W        W44516   8.354  14.334  10.757 -0.0498  0.0445 -0.1191
28900W        W44517  10.458   0.400  13.524  0.1687  0.0875 -0.0899
28901W        W44518   1.114   3.966   6.301  0.1911 -0.2517  0.1306
28902W        W44519   3.534  10.321  15.830  0.0853  0.3304  0.0232
28903W        W44520   1.822  17.243   2.122  0.0207  0.3777 -0.1322
28904W        W44521   0.861  15.526   0.550 -0.2656 -0.0795 -0.2420
28905W        W44522  17.677  10.665   2.934  0.1931  0.0757  0.0634
28906W        W44523   7.583   8.391  13.591  0.0611  0.1397  0.0504
28907W        W44524  16.280  14.614   4.662 -0.2483 -0.1550 -0.2516
28908W        W44525   6.586   5.613   5.617 -0.0512 -0.0647 -0.0824
28909W        W44526  17.681  14.383   0.969  0.2019  0.2028 -0.1362
28910W        W44527  11.347   0.785  13.651 -0.1047  0.0428  0.1373
28911W        W44528   7.901  14.222   1.642  0.2005 -0.0930 -0.0398
28912W        W44529   8.343   2.360  13.959  0.0378 -0.0268  0.3428
28913W        W44530   3.939  16.890   4.255 -0.2576 -0.1284  0.1901
28914W        W44531  14.783   0.148  11.577  0.0558 -0.0041 -0.2342
28915W        W44532  11.914  16.321   6.016  0.1116  0.1947 -0.0111
28916W        W44533  13.255  13.009  13.793  0.1893 -0.0788 -0.2326
28917W        W44534   2.165   6.700   3.351 -0.0329 -0.1973 -0.2206
28918W        W44535   1.871   0.149   2.808 -0.1675  0.2053  0.2711
28919W        W44536  16.423  13.408   2.719 -0.4194 -0.2286 -0.1387
28920W        W44537   2.652  17.500   0.577  0.2299  0.1823 -0.4010
28921W        W44538   5.106  14.855   3.742 -0.3740 -0.0246 -0.2247
28922W        W44539  13.598  10.299   4.412 -0.0157  0.1309  0.0380
28923W        W44540  13.113   9.710   2.244 -0.1401 -0.0087  0.1049
28924W        W44541   9.232   1.542   0.292 -0.0938 -0.0043  0.1140
28925W        W44542  17.536   6.340   3.289 -0.0078 -0.0318 -0.2831
28926W        W44543  13.490   2.960   0.982  0.1001  0.1792  0.2266
28927W        W44544  16.832   6.677   4.635 -0.1260 -0.2472  0.1745
28928W        W44545   4.361   8.860  16.804 -0.4352 -0.1548 -0.0179
28929W        W44546  11.756   6.833  12.147 -0.1027  0.3398  0.1994
28930W        W44547  11.244   4.278  15.082 -0.0679  0.1517 -0.0282
28931W        W44548  11.992   8.882  15.551 -0.0527 -0.1541 -0.0816
28932W        W44549  15.835   6.622   3.800 -0.0143 -0.4810 -0.0360
28933W        W44550  11.273   5.922  16.797  0.0416 -0.0944 -0.1648
28934W        W44551  10.886   6.257   6.093  0.1334  0.1819 -0.2519
28935W        W44552  14.112   8.280   5.518 -0.1994 -0.3774 -0.0845
28936W        W44553  14.790   6.462  14.166  0.0943  0.0224 -0.0570
28937W        W44554  13.398  12.461  14.894  0.1461  0.1011  0.2328
28938W        W44555   0.478   7.160  13.684 -0.2533 -0.2334  0.2222
28939W        W44556  16.983   3.727   4.574  0.1924  0.1732 -0.4398
28940W        W44557   5.354   7.600  12.673 -0.1355 -0.2445  0.1804
28941W        W44558   9.625  10.304  14.166 -0.0626  0.1037  0.0360
28942W        W44559   3.870   9.527   4.297 -0.0411 -0.1766 -0.0321
28943W        W44560  16.775  16.918   5.461 -0.0459 -0.1966 -0.1830
28944W        W44561  10.300   6.039   3.527  0.0946 -0.0135  0.0153
28945W        W44562  14.616   4.855   0.024  0.0772 -0.0951 -0.0438
28946W        W44563   8.229   3.001   6.353  0.0850  0.0448 -0.1461
28947W        W44564   3.898   6.115  11.704 -0.0131  0.2268 -0.1560
28948W        W44565  11.795   3.007  15.768 -0.1216 -0.2563 -0.1882
28949W        W44566   1.108  17.383  15.096 -0.0750  0.1702  0.1098
28950W        W44567   7.843  17.537  15.483  0.2303  0.1796 -0.0219
28951W        W44568  16.038  13.842   0.306 -0.2707  0.0423 -0.0469
28952W        W44569  12.450  15.077  10.949 -0.1164  0.0413 -0.0576
28953W        W44570   2.792  17.057  11.007 -0.1174  0.1048  0.0995
28954W        W44571  10.563  11.948   4.560  0.0664  0.0143 -0.2346
28955W        W44572   6.848  10.000   2.319  0.3895 -0.0533 -0.0079
28956W        W44573   1.090   4.211  12.512 -0.1407  0.1479 -0.0762
28957W        W44574  13.881  12.176   6.588 -0.1634  0.0870 -0.1256
28958W        W44575   0.773  13.271   1.802 -0.2053 -0.2828 -0.0401
28959W        W44576   5.750  14.051  13.909 -0.0848  0.0515  0.0774
28960W        W44577   9.701  12.330   0.002  0.0724 -0.0317  0.0529
28961W        W44578   4.455  16.842   3.947  0.1434  0.2006 -0.0109
28962W        W44579   9.580   4.958   3.531  0.1375  0.0473 -0.0000
28963W        W44580   4.703   0.588   1.861  0.3305 -0.1824  0.0786
28964W        W44581   1.377   7.506   0.618 -0.2644  0.1367 -0.3071
28965W        W44582  11.277  13.598   2.642 -0.1169 -0.1086 -0.1163
28966W        W44583  14.603  15.120  14.789 -0.2953  0.0040 -0.1094
28967W        W44584  12.179  15.959   5.201  0.1694  0.1156  0.3563
28968W        W44585  13.324   0.119  12.942  0.2889 -0.0356 -0.1033
28969W        W44586  10.231  13.534  15.311 -0.1444  0.2106 -0.0731
28970W        W44587  15.107   5.390  15.719  0.0789 -0.4416 -0.1898
28971W        W44588  14.028   2.546  11.548  0.1717  0.1317  0.1580
28972W        W44589  13.780   2.674  12.442  0.1807 -0.0489  0.0090
28973W        W44590  12.412   3.775   4.183 -0.0808 -0.1101 -0.1647
28974W        W44591   8.170  16.069   2.935 -0.1156 -0.2520 -0.0716
28975W        W44592  17.590   7.810  14.655  0.0317  0.2209  0.1949
28976W        W44593   3.826  17.512   4.652 -0.0216  0.0123  0.0080
28977W        W44594   3.220   4.754  16.011 -0.0870  0.0752 -0.3238
28978W        W44595   7.995   5.393   2.303 -0.3000  0.1409 -0.0043
28979W        W44596  14.511   8.665  14.620  0.2292  0.0162 -0.0284
28980W        W44597  13.439  16.137  12.469 -0.0094 -0.0506 -0.1595
28981W        W44598   6.198   2.257   5.249 -0.1019  0.0539  0.2292
28982W        W44599  11.181  11.830  16.501  0.2563 -0.1687 -0.1761
28983W        W44600   1.437  10.012   5.584  0.0557  0.0747  0.0089
28984W        W44601   7.982  11.637   2.603  0.0417 -0.3473  0.2196
28985W        W44602  16.609   5.943   5.388 -0.2266  0.0820 -0.0314
28986W        W44603   5.822   3.764   3.859 -0.3125  0.0784  0.1801
28987W        W44604   4.454  14.843  15.912  0.0832  0.0416  0.0131
28988W        W44605   5.325   0.103  12.384  0.0343 -0.1351 -0.0599
28989W        W44606   6.358  12.182  16.191 -0.2624  0.0547 -0.0995
28990W        W44607   9.522   1.464   5.642  0.1403 -0.0359  0.0824
28991W        W44608  12.475   8.448   3.263  0.3199 -0.1215  0.1768
28992W        W44609   8.594   1.456   4.232  0.0623  0.1370  0.3195
28993W        W44610  15.972   4.788  14.112 -0.2040  0.1653 -0.1822
28994W        W44611   3.187  17.081   2.995  0.2456  0.0735 -0.3707
28995W        W44612   6.830   6.115   3.078  0.1112 -0.0104 -0.1939
28996W        W44613  16.841   3.791   3.630  0.2873  0.1506  0.0617
28997W        W44614   3.252  14.398   0.672  0.3769 -0.3665  0.3086
28998W        W44615   5.413   1.896  16.085  0.3444  0.4056 -0.4765
28999W        W44616   9.013   9.894  15.636 -0.0923 -0.0821 -0.0044
29000W        W44617  10.873   0.671  12.258  0.1834  0.1328  0.3121
29001W        W44618   7.439   8.255   1.846  0.2086  0.0500  0.0091
29002W        W44619   5.576   1.312  13.122 -0.0704  0.0464 -0.1234
29003W        W44620   2.682  10.010  15.407 -0.1260  0.1461 -0.0238
29004W        W44621  16.004   8.029   2.157  0.0933 -0.0654  0.1957
29005W        W44622  16.870   4.714  12.691  0.4096 -0.3116 -0.2170
29006W        W44623   2.805  16.245  11.249  0.2106 -0.1074  0.1605
29007W        W44624   8.971   6.322  14.513 -0.0546  0.1341 -0.1520
29008W        W44625  16.754   6.966   3.313 -0.0241  0.0142 -0.1740
29009W        W44626   9.323  15.371   3.647 -0.0072 -0.0009 -0.0822
29010W        W44627   7.673  12.524  15.873 -0.0261  0.2696 -0.1332
29011W        W44628  17.428  14.844   0.932 -0.0624 -0.1076 -0.2377
29012W        W44629   1.816  16.631   1.908  0.1256 -0.0717 -0.4397
29013W        W44630  11.625   0.698   0.490  0.0206  0.1281  0.1976
29014W        W44631  15.130  10.271  15.308 -0.0069 -0.1856  0.0825
29015W        W44632   1.184   5.751   5.705 -0.0325  0.1081  0.1664
29016W        W44633  17.712   0.654  12.691  0.3056 -0.1698 -0.0710
29017W        W44634   2.913   3.212   0.762 -0.0563 -0.0368 -0.0329
29018W        W44635   5.599  17.169   5.487 -0.3517 -0.1796 -0.0347
29019W        W44636   6.689  17.676  12.662 -0.4840 -0.0582  0.1580
29020W        W44637   6.887  11.902   2.857 -0.2028 -0.0647 -0.1263
29021W        W44638  16.153  10.508  13.382  0.1026 -0.0351  0.0931
29022W        W44639   1.763   4.972  16.669 -0.0657  0.0693 -0.0074
29023W        W44640   4.327   4.125  13.269  0.1731  0.0442 -0.1349
29024W        W44641  15.271  10.527  16.158 -0.3202 -0.2240 -0.2272
29025W        W44642   7.121   4.983   2.292  0.0522 -0.0034 -0.1656
29026W        W44643   8.239   8.095   2.902  0.0566  0.4546 -0.2570
29027W        W44644  15.594  10.498   0.840 -0.1187 -0.1139 -0.0296
29028W        W44645   8.829  16.566  15.903 -0.1968  0.2370 -0.0846
29029W        W44646   7.027  16.262   4.883 -0.0570 -0.0023  0.2554
29030W        W44647   6.286  13.708  12.762  0.2032  0.2928  0.1459
29031W        W44648  13.030   9.129   1.155  0.3160 -0.1696  0.0676
29032W        W44649  17.321  17.360   2.427 -0.1856  0.4972 -0.0583
29033W        W44650   5.330   6.687   3.420 -0.2554 -0.4233 -0.0865
29034W        W44651   3.210  10.969   2.674 -0.0801  0.3160  0.3124
29035W        W44652   7.092  15.159   4.648 -0.0716 -0.0317 -0.0634
29036W        W44653  12.920   6.606  14.646 -0.1639  0.1295  0.0250
29037W        W44654  11.739  17.744  15.966  0.0661  0.1216  0.1480
29038W        W44655  17.837   7.467  13.755 -0.0756 -0.0196  0.1612
29039W        W44656   3.293  13.454  11.326 -0.1779 -0.1142 -0.2137
29040W        W44657  17.364   5.291  15.665 -0.0825 -0.0952  0.3015
29041W        W44658   0.121   7.326   1.686 -0.4131 -0.1062 -0.0903
29042W        W44659   6.206  11.138   4.096 -0.3948  0.0377  0.2840
29043W        W44660   8.997  11.839   0.951  0.0016  0.5148 -0.2251
29044W        W44661   4.588   6.562   0.036 -0.1189  0.0833  0.4505
29045W        W44662  11.778   2.151   3.002 -0.0220  0.1633 -0.1901
29046W        W44663  10.723   1.460  16.363  0.1620  0.2897 -0.0017
29047W        W44664   4.449  10.585   1.320  0.2458  0.1486 -0.0083
29048W        W44665   4.145  17.140   4.743  0.0877 -0.0155 -0.2928
29049W        W44666   1.719   4.793   6.113  0.0192 -0.0833 -0.2846
29050W        W44667   7.017   7.153  15.406  0.0550 -0.2091 -0.1597
29051W        W44668  15.208  12.892  16.239  0.1771  0.0109 -0.0443
29052W        W44669   2.311  16.346   1.167 -0.0686 -0.0658  0.0053
29053W        W44670  17.786   0.412  13.385 -0.2710 -0.2767 -0.0095
29054W        W44671   8.150   9.085  12.762  0.2349  0.3116 -0.0062
29055W        W44672  12.284   9.355   0.022  0.1360  0.5563  0.0047
29056W        W44673  10.483  10.299   3.977 -0.2292  0.2135 -0.1131
29057W        W44674  12.113   3.915   2.557  0.0055 -0.0011  0.1197
29058W        W44675  10.874  16.008  12.846  0.0491 -0.0731  0.2245
29059W        W44676  16.208   7.412  12.036 -0.1802  0.1327  0.0668
29060W        W44677  14.513  10.867   2.121  0.1353  0.1264  0.0559
29061W        W44678   7.356  17.027  12.578 -0.0505  0.0127 -0.0934
29062W        W44679   8.322   6.899   1.515 -0.1044  0.1052  0.1178
29063W        W44680   2.105  17.715   0.919  0.0339  0.1414 -0.1538
29064W        W44681   4.795  13.322  11.955  0.1740 -0.1706 -0.2550
29065W        W44682  12.684   9.651   2.482  0.0609 -0.1107  0.1417
29066W        W44683  14.592   1.056   4.015 -0.0882  0.2014  0.0959
29067W        W44684   6.204  12.844   2.774 -0.0846  0.0976 -0.1481
29068W        W44685  11.715  14.454   5.222  0.4156  0.0022 -0.0337
29069W        W44686  13.144   4.236   4.263 -0.2037  0.2048  0.0994
29070W        W44687  10.108  16.076   3.769 -0.2575 -0.0776  0.1432
29071W        W44688  14.916   3.635  12.112  0.4043  0.0045 -0.3292
29072W        W44689  10.363   7.635  14.761  0.2635  0.1314  0.0451
29073W        W44690   2.318  17.230   2.403  0.0010 -0.0317  0.2120
29074W        W44691  13.570   7.779   6.112  0.0863 -0.1720  0.2937
29075W        W44692  15.793   5.736   5.378  0.3088 -0.0499  0.2347
29076W        W44693   1.530   5.622   1.569  0.1672  0.1306 -0.1548
29077W        W44694   9.854   5.246   3.813  0.1714  0.1553  0.0368
29078W        W44695   1.286  12.176  13.159  0.2294 -0.0138  0.1894
29079W        W44696   0.410  11.280  14.563 -0.2187  0.0744  0.1550
29080W        W44697   9.043   3.768   2.347  0.0762 -0.1325  0.0340
29081W        W44698   2.748  14.893  16.276  0.1014 -0.0572  0.0036
29082W        W44699   5.892  10.832  13.828  0.2142 -0.0398 -0.0847
29083W        W44700   7.699   0.107  11.710 -0.4428  0.0787  0.2935
29084W        W44701   4.804  15.207   2.992  0.3189  0.1349  0.0223
29085W        W44702  13.948  12.721  16.107 -0.1531  0.1647 -0.2941
29086W        W44703   6.215   1.354   3.482 -0.0361  0.1345  0.3336
29087W        W44704  17.587   6.844   3.840  0.1527 -0.2769 -0.1052
29088W        W44705  12.312  16.797   1.020  0.1475  0.1618  0.0601
29089W        W44706   4.411  17.108  15.312  0.0331 -0.0599 -0.4403
29090W        W44707   2.831   8.568   0.866  0.1095  0.1873 -0.2808
29091W        W44708  12.947  12.112   6.069 -0.1108 -0.1673  0.1399
29092W        W44709   5.565  12.425   0.459  0.5163  0.5361  0.1064
29093W        W44710  11.951   3.483   4.117  0.2458  0.1188  0.0238
29094W        W44711  17.090   4.039  11.685 -0.1918 -0.0186 -0.1466
29095W        W44712   9.924   5.811   4.069 -0.2108  0.1726 -0.1415
29096W        W44713   4.449   2.877   3.690  0.1882 -0.1568 -0.3418
29097W        W44714   7.949  14.789  14.611  0.1714  0.0087 -0.0407
29098W        W44715  13.557  16.646   3.545 -0.2901  0.1661  0.1429
29099W        W44716   3.385  15.590  11.345  0.2506 -0.1836 -0.1816
29100W        W44717   5.736   4.954  15.974 -0.2784 -0.1540 -0.2257
29101W        W44718   5.626  17.033   2.200  0.0096 -0.2219 -0.1321
29102W        W44719  11.314  15.619  15.938 -0.2174 -0.0313 -0.1023
29103W        W44720   6.128  13.986  12.410  0.3292 -0.0402  0.0948
29104W        W44721   3.263   6.413   0.489 -0.0213 -0.0320 -0.2960
29105W        W44722   6.318   0.946   3.788 -0.0452 -0.0989  0.0212
29106W        W44723  13.896  14.548  11.872 -0.4081  0.1199 -0.2138
29107W        W44724   3.324   1.181  15.215 -0.0116  0.2603 -0.0667
29108W        W44725  16.224  14.652  12.089  0.2889 -0.2453 -0.1474
29109W        W44726  17.411  12.577   0.338 -0.3497  0.0952  0.1355
29110W        W44727   3.683   1.861  12.755 -0.2307  0.0250  0.2582
29111W        W44728   8.442  14.332   1.603  0.0645  0.1531 -0.2321
29112W        W44729   1.193  14.563  11.262 -0.2502  0.0624  0.1736
29113W        W44730  16.218  14.823  14.963  0.2114 -0.0465  0.0148
29114W        W44731   3.670   6.725   1.733 -0.1137  0.0266 -0.1015
29115W        W44732  11.977  16.035  14.913  0.0005  0.0815  0.2871
29116W        W44733   9.596   3.760   2.297  0.0254 -0.0057 -0.2047
29117W        W44734   0.966   2.977  14.282  0.1734 -0.0290 -0.0282
29118W        W44735   2.904   1.898   5.858  0.2180 -0.0492 -0.1729
29119W        W44736  13.366   6.178   5.546  0.0097  0.2531 -0.0619
29120W        W44737   4.575   0.747   4.592 -0.2303 -0.1155 -0.0921
29121W        W44738   4.271  15.999  10.882 -0.4448  0.2092  0.0652
29122W        W44739   2.103  11.990  14.451 -0.1031  0.0950 -0.0803
29123W        W44740   1.651  13.761  12.085  0.1534  0.1959  0.0026
29124W        W44741  17.582   1.538  11.999 -0.0303  0.2350  0.1338
29125W        W44742   1.075  16.959  13.594  0.0552 -0.0448  0.0805
29126W        W44743   9.214   1.372  12.646  0.0354 -0.0498 -0.1170
29127W        W44744  11.416  11.754   0.526 -0.2026 -0.0942 -0.2883
29128W        W44745   9.861  11.325   1.640 -0.2370  0.1463 -0.1383
29129W        W44746   9.545   2.625  11.671  0.3104 -0.3014  0.1069
29130W        W44747   0.559   6.317   2.935  0.0031  0.0060 -0.1571
29131W        W44748   6.321   9.504  16.062  0.5080  0.0665  0.1651
29132W        W44749  17.727   6.339   0.978 -0.0465 -0.1678 -0.1803
29133W        W44750   7.650   4.858   2.215 -0.0343 -0.2587  0.1319
29134W        W44751   3.596   3.902   3.462  0.0174 -0.0718 -0.0668
29135W        W44752  15.415   0.054   3.493 -0.4433 -0.0351 -0.0205
29136W        W44753  10.714  11.603   3.209  0.0161  0.0093  0.1123
29137W        W44754  10.184   2.219   3.092  0.2087 -0.1893  0.0456
29138W        W44755  14.185   6.401   3.073  0.0612  0.1788 -0.3177
29139W        W44756   7.342  13.071   0.630  0.1949 -0.2336  0.0392
29140W        W44757  10.639   1.698   1.643  0.2881 -0.2976 -0.3111
29141W        W44758  17.307   8.789   3.940 -0.1356 -0.2029 -0.4355
29142W        W44759  14.282   0.621   5.404 -0.0038  0.0962 -0.1596
29143W        W44760  10.769  12.337  14.948  0.3310  0.1420  0.2494
29144W        W44761   1.110  13.315  15.137  0.2745 -0.0906  0.0055
29145W        W44762  16.088   1.024   1.346 -0.0343 -0.0016 -0.2784
29146W        W44763  15.146   4.334  11.653  0.2532  0.1548  0.2111
29147W        W44764  10.751   3.814  12.503  0.1548 -0.0744 -0.0311
29148W        W44765   1.781  15.773   3.499 -0.1673 -0.2191  0.2294
29149W        W44766   6.500   0.151   4.329  0.0562 -0.2864 -0.2320
29150W        W44767   5.017  17.197   2.431 -0.1829  0.0794  0.1009
29151W        W44768  11.044  17.192   0.228 -0.0101 -0.1040  0.2025
29152W        W44769  17.180   7.983  16.581 -0.1444 -0.0209 -0.0095
29153W        W44770  11.075  16.942  15.751  0.3550  0.0205 -0.2955
29154W        W44771   9.474  14.060   0.892  0.1351  0.0047  0.1953
29155W        W44772  11.473   4.632   3.573  0.2677  0.1294  0.0625
29156W        W44773  10.149   4.283  12.922  0.1195  0.3050  0.1092
29157W        W44774  11.814  13.004  16.440  0.2056 -0.0769 -0.0196
29158W        W44775  16.490   0.117  12.639 -0.2272 -0.0112 -0.0305
29159W        W44776  17.351   6.749  13.820 -0.0123  0.1822  0.2776
29160W        W44777   5.043   8.985  12.424  0.1319 -0.0773 -0.0248
29161W        W44778   2.048  14.318   5.626 -0.2521 -0.1844  0.0373
29162W        W44779  12.838   2.125  15.631 -0.1595  0.3249 -0.0002
29163W        W44780  15.725  10.437   4.659 -0.1274 -0.4339 -0.3132
29164W        W44781  13.784   3.662   3.937 -0.1103  0.1067 -0.1114
29165W        W44782  16.659   2.638   2.145  0.1888  0.2351  0.3030
29166W        W44783  15.729   5.766   1.097  0.1830 -0.1881 -0.0748
29167W        W44784   8.787  15.392   2.330 -0.2418 -0.0009  0.3291
29168W        W44785  12.565   9.286   3.286 -0.1530  0.1625  0.0242
29169W        W44786  16.764   2.312  16.137 -0.1313  0.0155  0.1389
29170W        W44787   8.569   3.987   0.750 -0.1967  0.1851  0.1054
29171W        W44788  10.561   5.294   4.619  0.1917  0.0972  0.1809
29172W        W44789  14.312  12.442   0.088 -0.3100 -0.0970  0.3595
29173W        W44790   6.709  10.857  12.707 -0.1892 -0.0929  0.1577
29174W        W44791  16.167  13.587   1.325 -0.0267  0.1992 -0.1495
29175W        W44792   8.242  17.079  14.304  0.0311  0.1421  0.1652
29176W        W44793   0.726   9.863   3.011 -0.0637 -0.2486  0.0308
29177W        W44794  13.925  12.929   5.863 -0.0521  0.0817  0.1519
29178W        W44795  17.405   5.091   4.690 -0.3483  0.4454 -0.0771
29179W        W44796  10.451  11.140   1.156 -0.0851 -0.0437  0.0028
29180W        W44797   1.984   5.793   5.213  0.1524  0.1301 -0.2773
29181W        W44798  13.522   4.598  11.619 -0.2333 -0.0166  0.0198
29182W        W44799   8.413   5.146  11.855  0.1529  0.1847  0.0726
29183W        W44800  14.000   4.776  11.788  0.0412  0.1490 -0.2538
29184W        W44801  13.934   6.221  10.689  0.0021  0.1498 -0.0036
29185W        W44802  17.201   7.994   0.217  0.0815  0.3521 -0.0737
29186W        W44803  11.453   3.768   1.904 -0.3144 -0.1455 -0.0796
29187W        W44804   0.326   7.719   0.549 -0.0808 -0.1553 -0.1021
29188W        W44805  10.026  10.147   3.637  0.1846  0.0240 -0.0943
29189W        W44806  16.650   4.158  14.489  0.1413  0.0789 -0.1280
29190W        W44807   8.925  10.948  12.305 -0.0168  0.3791 -0.0912
29191W        W44808  14.595   9.861  12.826 -0.1985 -0.1145  0.1394
29192W        W44809   4.056  12.386   5.260  0.1645  0.0821 -0.1906
29193W        W44810  15.097   1.880   2.092  0.2154  0.0704  0.1375
29194W        W44811  12.557   7.324  12.657  0.2721 -0.6061  0.1567
29195W        W44812   8.227  13.413   2.215  0.2320  0.0392 -0.1048
29196W        W44813   3.360   1.164  11.535 -0.2064  0.1833 -0.3071
29197W        W44814   7.327   7.828   1.186  0.0875  0.3140  0.0568
29198W        W44815   0.386   7.472   1.269 -0.0339 -0.1317  0.0443
29199W        W44816   2.129  10.836  13.391  0.2707  0.0978  0.3286
29200W        W44817  16.875  17.324  12.174 -0.0459  0.1200 -0.1359
29201W        W44818  11.205   8.296   1.436  0.4978  0.0184  0.0259
29202W        W44819   6.693   1.907   2.349  0.0568 -0.1508 -0.2219
29203W        W44820   4.836  16.035   3.470  0.1582 -0.0754 -0.0972
29204W        W44821   7.485   4.391   0.238  0.1407  0.2622 -0.2618
29205W        W44822   9.659   2.404   1.320 -0.0362  0.1071  0.1688
29206W        W44823   2.305   2.610  11.483 -0.0279 -0.0444 -0.0136
29207W        W44824   7.431   9.350   3.346 -0.1971 -0.0329  0.1222
29208W        W44825  16.043  12.066   3.611 -0.0001 -0.1803  0.2535
29209W        W44826   1.303  14.619   5.817  0.1342  0.1616  0.1994
29210W        W44827  16.422   8.140   5.554  0.1287 -0.0923 -0.0681
29211W        W44828  12.210  17.151   2.689  0.0890 -0.3667  0.1902
29212W        W44829   8.693  17.386  10.197 -0.0279  0.1238 -0.1007
29213W        W44830  11.069  16.954  13.925 -0.0419  0.2348  0.0715
29214W        W44831   0.116  10.424  14.288  0.2220 -0.0106  0.0566
29215W        W44832   8.589  16.153  16.422  0.1131  0.1179  0.0132
29216W        W44833  11.564  11.194  12.751  0.3258 -0.0085  0.1832
29217W        W44834  10.502  12.882  16.736  0.1910 -0.1016 -0.1193
29218W        W44835   8.890  13.233  12.801 -0.1676 -0.0681 -0.1460
29219W        W44836   8.944   1.531   3.445 -0.2476 -0.3157  0.1210
29220W        W44837  11.827  10.153  14.728 -0.0755  0.3460 -0.0936
29221W        W44838   9.092  10.009  13.584 -0.2829 -0.2447  0.0530
29222W        W44839  13.876   0.841  11.522 -0.3800 -0.0537 -0.1518
29223W        W44840  17.789  12.055  14.894  0.0615  0.1065  0.2849
29224W        W44841   7.802   6.305   4.972 -0.2178 -0.0238 -0.2066
29225W        W44842  14.858   2.845   3.875  0.0087  0.0415 -0.3951
29226W        W44843   9.194   5.960   3.758  0.3737  0.0899 -0.2129
29227W        W44844   7.310  10.711   4.809  0.2128 -0.0291  0.0071
29228W        W44845   2.513   0.200  15.078  0.0971  0.1860  0.2254
29229W        W44846   2.783  11.128   5.813  0.0102  0.0536  0.0513
29230W        W44847   2.676   4.907  10.538 -0.0937  0.0906  0.2343
29231W        W44848  14.457   3.041  11.513  0.0446 -0.1576  0.2437
29232W        W44849  12.191   3.214   3.241 -0.1176 -0.1047 -0.1339
29233W        W44850  10.861   9.856   3.799 -0.0622 -0.3028  0.0490
29234W        W44851   1.860  12.243  14.805  0.1648 -0.0528  0.2034
29235W        W44852  12.757  12.404  12.036  0.0370 -0.1065  0.0861
29236W        W44853   3.579   8.281   1.793 -0.0511 -0.0360 -0.5472
29237W        W44854  13.155  15.198   1.736  0.1691 -0.5047  0.2545
29238W        W44855  14.894  12.831  15.218 -0.0862  0.0244  0.1354
29239W        W44856   2.388   6.390   1.404  0.1236 -0.0157  0.0249
29240W        W44857   9.479   6.611  13.997 -0.2163  0.0700 -0.1349
29241W        W44858  10.503   2.965  12.109  0.1283 -0.0164 -0.0980
29242W        W44859   3.019   3.248   1.685 -0.2417  0.3271  0.3465
29243W        W44860  11.869  12.064   0.330 -0.4708  0.1091  0.0003
29244W        W44861   5.116  17.763   3.311 -0.2175  0.1488  0.0604
29245W        W44862  10.278  11.177  13.777  0.1855  0.1291 -0.1593
29246W        W44863   4.642  11.103  12.971  0.3010  0.2500 -0.0714
29247W        W44864  17.725   6.742  15.194 -0.0222 -0.2541  0.0532
29248W        W44865  13.828   1.280  11.955  0.0532 -0.2838  0.1056
29249W        W44866   6.207   8.710  11.821 -0.1420 -0.0401 -0.0075
29250W        W44867   0.592  11.089  11.683 -0.1333 -0.0888  0.3611
29251W        W44868   1.324   2.284  13.712 -0.2106 -0.0203 -0.1853
29252W        W44869  13.003   2.573   4.456 -0.2012  0.0241 -0.0304
29253W        W44870   8.701   7.859   5.524 -0.2187  0.1900  0.1393
29254W        W44871   2.672  10.096  13.512  0.2245  0.1034 -0.0122
29255W        W44872   4.883   9.140  13.924 -0.2589 -0.1122  0.1243
29256W        W44873  11.761   1.190   0.594  0.2430  0.1193 -0.1875
29257W        W44874  13.998   7.043  16.010 -0.1604  0.0376  0.0411
29258W        W44875   9.379  10.499  11.329 -0.1132 -0.1541 -0.0448
29259W        W44876   0.031   6.966  11.201  0.2090 -0.1867  0.0830
29260W        W44877   9.581  17.243   1.588  0.2882  0.2612  0.0033
29261W        W44878  16.457   5.514  16.067 -0.2114  0.3556 -0.0024
29262W        W44879  11.866  10.547   4.959 -0.3550 -0.0794 -0.0039
29263W        W44880  13.072  12.130  13.549 -0.2221  0.2014  0.0986
29264W        W44881  15.884   0.524   2.179 -0.3916 -0.0207 -0.3126
29265W        W44882  16.467  13.917  15.432  0.0766  0.0506  0.0091
29266W        W44883  14.412   9.386   4.987 -0.1356 -0.0961  0.0127
29267W        W44884  13.184   8.335  13.443 -0.1049  0.1156 -0.1713
29268W        W44885   5.252  12.033  14.738 -0.2880  0.1613  0.0195
29269W        W44886  11.286   7.658  15.589 -0.0384 -0.1674  0.0161
29270W        W44887  10.083  12.624  12.887  0.0866  0.2925 -0.2129
29271W        W44888  11.316   8.156   0.350 -0.0253  0.1352 -0.0304
29272W        W44889   2.816   6.034  13.100 -0.1037 -0.2284  0.2848
29273W        W44890   4.029   9.521  16.005 -0.1497 -0.2565 -0.1035
29274W        W44891   3.318   6.382   1.072 -0.0923 -0.1100 -0.1068
29275W        W44892   3.441   3.827  13.939  0.2184 -0.1112 -0.0620
29276W        W44893  14.550   7.979   6.346 -0.1283  0.1976 -0.0716
29277W        W44894  14.612  10.867   0.852 -0.0089 -0.2799  0.0278
29278W        W44895   5.601   4.255   3.674  0.0800 -0.2878 -0.1250
29279W        W44896   1.640  11.223   2.589 -0.1415 -0.0838 -0.1288
29280W        W44897  15.713  14.772   2.887  0.0560  0.2792  0.0063
29281W        W44898  15.709  11.041   2.347  0.0911  0.2125 -0.1421
29282W        W44899  15.499  11.038  14.377 -0.1158  0.0305  0.4308
29283W        W44900   0.505   5.663   2.602  0.1707 -0.0257  0.1080
29284W        W44901  16.979  12.678   0.005  0.0242 -0.0969  0.2363
29285W        W44902   9.997   2.006  13.637  0.1337 -0.0041 -0.0011
29286W        W44903   0.665  17.361   2.008 -0.2965  0.1511  0.0144
29287W        W44904  17.502  12.142  10.857  0.1562  0.3669 -0.1866
29288W        W44905   6.091  17.114  12.618 -0.0414 -0.2366 -0.1449
29289W        W44906   6.951  12.095   4.427 -0.0671  0.2059  0.0418
29290W        W44907  12.354  15.313  13.008 -0.1231 -0.0210 -0.0719
29291W        W44908  12.227  12.881   3.847 -0.2824  0.1769  0.2665
29292W        W44909   6.158  13.189  14.342  0.2200  0.0300 -0.1007
29293W        W44910  13.831  11.173  12.926  0.3640 -0.0165  0.0044
29294W        W44911   6.455  14.452   3.552  0.0222 -0.2206 -0.1526
29295W        W44912   3.620   4.679   3.321  0.2159  0.1348 -0.0904
29296W        W44913  10.230   2.639   5.942  0.0602 -0.4308 -0.2842
29297W        W44914   8.311  13.541   5.013  0.0390 -0.1301 -0.0431
29298W        W44915  16.972  10.365   0.141 -0.2083 -0.0868 -0.3413
29299W        W44916   3.203  11.142  14.239  0.2061  0.0034 -0.3433
29300W        W44917   6.838  11.597  16.763  0.0801  0.4808 -0.1188
29301W        W44918  12.152   7.028   2.442 -0.0024  0.3053 -0.0707
29302W        W44919   0.401  13.744   3.667  0.1424 -0.0545 -0.0100
29303W        W44920  12.215   4.741  14.815 -0.0730  0.1882  0.0442
29304W        W44921   1.412  14.268  14.172 -0.0447 -0.1079  0.0029
29305W        W44922  13.014   6.282   2.925 -0.0242 -0.0827 -0.2052
29306W        W44923  16.375  10.914   5.549  0.1991 -0.1177  0.0081
29307W        W44924   6.777  13.222  13.654 -0.0903 -0.1974 -0.5542
29308W        W44925  17.687   3.282  13.234 -0.1764 -0.0852 -0.1218
29309W        W44926   2.332  12.568   2.003 -0.3751 -0.3636  0.2164
29310W        W44927  13.216   8.613  15.753  0.0468 -0.1091 -0.0937
29311W        W44928   4.352   0.158  11.674  0.0709  0.1942 -0.0928
29312W        W44929   6.450   4.105  11.904 -0.0756 -0.1530  0.3137
29313W        W44930  12.709  13.893   0.436  0.0451  0.2970  0.2371
29314W        W44931   3.526  17.425   2.044  0.0273 -0.0224  0.0456
29315W        W44932  17.104  12.064   5.756 -0.0713  0.1648  0.0353
29316W        W44933  15.879  15.959   6.045 -0.1362  0.2259  0.1535
29317W        W44934  17.141  16.680  11.614  0.0133 -0.1910 -0.2117
29318W        W44935  12.255   9.578   1.582 -0.1099  0.2991  0.3281
29319W        W44936   1.824   5.412   1.993 -0.2565 -0.0978  0.0989
29320W        W44937   2.256  12.393   1.115  0.3314  0.2431 -0.0091
29321W        W44938  15.632   8.183   4.419  0.1578  0.4975  0.0351
29322W        W44939  12.212  10.627  11.042  0.1704  0.0065  0.0047
29323W        W44940  13.476  12.936  16.250  0.0716  0.0660  0.1533
29324W        W44941  14.915   1.375  14.579 -0.2241  0.0126 -0.0058
29325W        W44942   5.525   5.192  16.329 -0.0802  0.3838  0.1922
29326W        W44943   1.641   1.119   4.374  0.0029  0.0532 -0.0562
29327W        W44944   4.289   5.086   4.127 -0.2074  0.3413 -0.0428
29328W        W44945  10.887  11.131  14.179  0.1971  0.3045 -0.1577
29329W        W44946  16.977   5.799  12.427 -0.1170  0.1080 -0.0033
29330W        W44947   1.370   2.355  16.674  0.1261  0.0929 -0.0113
29331W        W44948  12.785   0.167   0.431  0.0513 -0.1909  0.3341
29332W        W44949  15.965  15.254   3.546 -0.1325  0.1032 -0.3171
29333W        W44950  10.885  12.998  13.356  0.2285  0.4986 -0.1247
29334W        W44951  14.003  14.819   1.698 -0.0225  0.1196 -0.0635
29335W        W44952  12.088   1.204   0.142  0.0544  0.1090 -0.0566
29336W        W44953  17.829   4.135  15.386  0.0015  0.0132  0.1432
29337W        W44954  12.473  11.517   2.185  0.2083  0.1534 -0.3080
29338W        W44955   8.939   2.701   0.695  0.1049 -0.1675 -0.1210
29339W        W44956   0.837  10.783  13.771 -0.2713  0.0369  0.1049
29340W        W44957   3.480   8.756   4.618  0.1301  0.1332  0.1427
29341W        W44958   2.516   9.762   5.323 -0.0409 -0.1361  0.1808
29342W        W44959   0.452   6.055  15.280  0.3774 -0.1531  0.2062
29343W        W44960  14.241   1.595   1.259 -0.0858  0.0573  0.1105
29344W        W44961  13.822   5.266  13.666  0.0147  0.0237  0.0333
29345W        W44962   1.006   7.451  12.144 -0.0746  0.1020  0.2399
29346W        W44963   0.399  11.534  13.498  0.1311 -0.1138  0.2324
29347W        W44964   6.026   9.602   3.204  0.0333 -0.2042 -0.0022
29348W        W44965  13.537   9.208   4.840 -0.1906  0.0537 -0.1000
29349W        W44966  15.305   5.577  13.947 -0.0847  0.0777 -0.0418
29350W        W44967  16.454   3.092   5.043  0.0694  0.1881  0.0642
29351W        W44968   6.481  12.020   3.068  0.1827 -0.3170 -0.3817
29352W        W44969   5.340  17.511  16.544 -0.0075  0.4471 -0.0678
29353W        W44970  13.516   2.428  14.155 -0.0870  0.2564  0.0751
29354W        W44971   0.784   0.717   2.661  0.0887 -0.0723  0.0081
29355W        W44972   6.032   2.432   4.647  0.4251 -0.0111 -0.0738
29356W        W44973   3.649   2.746  15.575 -0.0650 -0.3221 -0.0697
29357W        W44974  16.231   0.195  15.088 -0.0337  0.2060  0.0280
29358W        W44975   8.838  12.804   0.801  0.0918  0.1376 -0.0060
29359W        W44976  11.155   2.813  13.267 -0.2827 -0.3311 -0.3373
29360W        W44977   8.798   9.949  16.150 -0.0718 -0.2773 -0.0816
29361W        W44978   3.184  16.593   4.005 -0.2957  0.2779 -0.1663
29362W        W44979   8.988  17.361   3.351 -0.2340 -0.2040 -0.3071
29363W        W44980   1.155  15.313   4.605  0.0511  0.1407 -0.3268
29364W        W44981   8.959   7.961  13.771 -0.0589  0.0241  0.1137
29365W        W44982   6.297  10.501   0.476 -0.1768 -0.0297 -0.0578
29366W        W44983   0.231  13.651   1.518  0.3338  0.2607  0.0925
29367W        W44984  12.749  10.329   0.072  0.0008  0.0096  0.1564
29368W        W44985   5.629  16.504   5.797  0.2187  0.2022  0.0701
29369W        W44986  10.828  10.698  12.288  0.0096  0.1593  0.0357
29370W        W44987  16.815  10.724   4.033 -0.0363 -0.1141  0.2400
29371W        W44988   9.368   2.295  12.357  0.3701 -0.3400 -0.1530
29372W        W44989  10.515  12.767  13.713  0.2517  0.2339 -0.2441
29373W        W44990  11.814  17.257   2.402 -0.3002  0.0222  0.2924
29374W        W44991  13.932  17.648   4.343  0.1857  0.1083  0.0482
29375W        W44992  11.293  10.503  15.453  0.1336  0.1384  0.0762
29376W        W44993  10.352   5.769   4.464  0.2909 -0.1292 -0.1709
29377W        W44994  14.934  11.928   3.151  0.1681 -0.0852  0.0554
29378W        W44995  10.490  10.100  14.444  0.1674 -0.1162  0.0345
29379W        W44996  11.971   1.267  14.287  0.1716  0.1291  0.0508
29380W        W44997   4.940   2.703  16.319  0.2854 -0.1389 -0.3394
29381W        W44998  12.946  14.952   3.432 -0.0148 -0.1585 -0.1105
29382W        W44999   3.602  10.739  12.119  0.3874  0.2463 -0.2998
29383W        W45000  17.128   5.500   0.160  0.0643  0.0280 -0.2169
29384W        W45001  12.506   6.755   3.654  0.0805 -0.0134 -0.0388
29385W        W45002   7.360   3.889   0.288 -0.0187 -0.3394 -0.1210
29386W        W45003   5.175  11.188  16.104  0.1276  0.2153 -0.0158
29387W        W45004  11.047  11.606   1.033 -0.0487  0.3305  0.0126
29388W        W45005   1.930   3.895   4.667  0.0306  0.0416 -0.1965
29389W        W45006   8.996   3.719  16.410  0.1994 -0.0038  0.0892
29390W        W45007   6.021   4.181  12.094  0.4065  0.2079  0.0229
29391W        W45008  14.882   6.880  14.934 -0.0293 -0.1755  0.0353
29392W        W45009  10.893  16.829  11.490 -0.0995  0.1376 -0.1540
29393W        W45010  12.699   5.731  16.776 -0.1194 -0.1077  0.1714
29394W        W45011  15.098   2.812   0.209 -0.3302 -0.3772  0.2012
29395W        W45012  17.226   4.276   0.465  0.2090 -0.2114  0.4039
29396W        W45013   3.691   0.919  14.980 -0.0604 -0.2055 -0.2643
29397W        W45014   0.762  12.646   0.283 -0.0599 -0.0632  0.2177
29398W        W45015  11.855   7.639   3.132  0.0663 -0.0164  0.0874
29399W        W45016  12.155   8.096  12.295  0.2001  0.3799  0.0957
29400W        W45017  17.057   6.165   1.439  0.1673 -0.2032 -0.3061
29401W        W45018  13.208  15.960   1.829 -0.1375 -0.2058  0.1281
29402W        W45019  11.349  16.946  11.678  0.1775  0.3055  0.2100
29403W        W45020   0.565   0.825   5.080 -0.0875  0.1984  0.0683
29404W        W45021  11.460   3.875   1.400  0.3709  0.0985  0.3972
29405W        W45022  10.132  15.078  13.987  0.3657 -0.3330  0.2192
29406W        W45023  13.954   3.833   1.545 -0.1772 -0.1007 -0.0942
29407W        W45024  13.014   4.419   0.609  0.2106  0.0803  0.2918
29408W        W45025   5.353  10.366  12.760 -0.2903 -0.1055 -0.1883
29409W        W45026  15.713  17.680   4.680  0.0914  0.1064  0.3246
29410W        W45027   3.912  15.668   5.892  0.0367 -0.1967 -0.1763
29411W        W45028  16.363  10.420   5.632 -0.2323  0.1794  0.0698
29412W        W45029   7.419   1.886  11.320  0.1121  0.2981  0.1979
29413W        W45030   1.928  17.295   1.139 -0.3089  0.3020 -0.1259
29414W        W45031   9.248   3.982  13.222 -0.1575  0.1539  0.1438
29415W        W45032   0.909  16.409  14.437 -0.1983 -0.0590  0.0277
29416W        W45033   6.838   7.154  12.711  0.1189  0.0718  0.0821
29417W        W45034   7.885  10.209  14.919  0.1538  0.1701 -0.3000
29418W        W45035   4.196   6.430   0.328 -0.0303  0.2548 -0.1549
29419W        W45036  12.581   9.610   0.365  0.1774 -0.3278 -0.1315
29420W        W45037   8.039   7.847  12.088  0.0875 -0.0045 -0.2541
29421W        W45038   1.395  14.739   4.450 -0.0002 -0.2121 -0.3204
29422W        W45039   1.522  10.452   4.552  0.0709  0.1802  0.0010
29423W        W45040  10.934  15.273  14.344  0.2513 -0.1011 -0.1302
29424W        W45041  10.670   4.047  13.816 -0.0315 -0.0689  0.0215
29425W        W45042  17.717  10.802  13.706  0.2905  0.1622  0.0047
29426W        W45043   7.561   6.930   5.687 -0.0178 -0.0053  0.0332
29427W        W45044   1.211  17.470  13.699  0.1029 -0.0082 -0.2831
29428W        W45045   6.723  12.723   4.399  0.4993 -0.0361  0.3804
29429W        W45046   8.215   4.439  15.150  0.0756  0.3041 -0.3945
29430W        W45047  13.996  12.583   2.188  0.2569 -0.1105 -0.1138
29431W        W45048  13.879   9.265   6.329  0.0513 -0.1770  0.2616
29432W        W45049  16.481   1.571   0.436  0.1587  0.0578 -0.0665
29433W        W45050   4.798   8.833  15.365  0.3612  0.0030  0.0544
29434W        W45051   6.255  11.124  16.751 -0.1042 -0.1920  0.0459
29435W        W45052  12.224   8.631   1.420 -0.0797  0.0480  0.1852
29436W        W45053   7.639   0.747  11.418 -0.0468  0.0749  0.0040
29437W        W45054  13.805   2.049   2.465 -0.0667 -0.0099  0.0936
29438W        W45055   6.734   8.637  12.504  0.1151 -0.0144  0.3052
29439W        W45056  13.811   0.023  13.085 -0.0987  0.0064 -0.1603
29440W        W45057   2.788  10.407  12.298  0.0817 -0.0713  0.0432
29441W        W45058  17.435   0.473   2.877 -0.0175 -0.0063 -0.3164
29442W        W45059   8.289  17.480  15.168  0.0964 -0.4871  0.1276
29443W        W45060   1.782   1.685   0.058 -0.3042  0.0416 -0.0918
29444W        W45061   9.455  16.840  13.147  0.0251  0.1141 -0.2146
29445W        W45062  16.908   1.665  14.389 -0.2465  0.0332  0.2358
29446W        W45063   8.037  11.247   4.532 -0.0263  0.2169 -0.1690
29447W        W45064   7.044   9.302  13.736  0.1760 -0.2654  0.1696
29448W        W45065   1.201   4.933  14.240 -0.1227  0.2976 -0.0852
29449W        W45066   0.452   5.150  13.998  0.1295 -0.0004 -0.0412
29450W        W45067  15.407  16.025  13.162  0.3253  0.1801  0.3310
29451W        W45068   8.785  15.099   0.845  0.2897  0.1450 -0.0445
29452W        W45069  17.629   7.860  14.106  0.0655  0.0203 -0.0468
29453W        W45070  13.422   0.559   3.620 -0.0497 -0.1264 -0.0415
29454W        W45071  13.378  16.400   5.364 -0.0758 -0.1862 -0.2524
29455W        W45072  13.465  15.380  13.613  0.0377  0.2364 -0.0797
29456W        W45073   8.860  16.761   2.715  0.0987 -0.2015 -0.2241
29457W        W45074   4.167  12.377  13.349 -0.1902 -0.1048  0.2554
29458W        W45075  16.523   2.921   1.345  0.0287 -0.1834 -0.1359
29459W        W45076  12.008   2.630   5.851 -0.1329  0.0338 -0.3650
29460W        W45077   8.795  14.798   4.423  0.3543  0.1053  0.1876
29461W        W45078   5.958   6.867   1.122  0.1615 -0.0444  0.0265
29462W        W45079   0.836  13.350  16.139  0.0014 -0.2550 -0.2427
29463W        W45080  11.414   4.781  14.992 -0.1523 -0.0172 -0.2631
29464W        W45081  11.220  17.352  15.285  0.1483 -0.0192 -0.4447
29465W        W45082  11.424   6.245   3.355  0.2299 -0.1176 -0.1627
29466W        W45083   8.682  13.298   0.944  0.2798 -0.1583  0.0816
29467W        W45084  10.333  15.950  14.279 -0.2065  0.1072 -0.1067
29468W        W45085  11.616  15.297  12.419 -0.2264 -0.0445 -0.1113
29469W        W45086   8.687  12.666  14.523 -0.0269 -0.2277 -0.0130
29470W        W45087   4.034   3.384   2.586  0.1191 -0.0979 -0.1278
29471W        W45088  12.658   9.062  15.139  0.0176 -0.2263  0.2135
29472W        W45089  14.820  17.702  13.062 -0.0692 -0.0919 -0.0824
29473W        W45090   2.373  16.315  14.685  0.1349 -0.1124  0.0120
29474W        W45091   8.863  15.013   3.529 -0.0724  0.1584 -0.0648
29475W        W45092   9.557   2.940  12.118 -0.2473  0.2120  0.0662
29476W        W45093   9.683   9.279  15.816  0.0808 -0.0221 -0.0394
29477W        W45094   4.589   1.200   3.860  0.0079  0.2569 -0.1219
29478W        W45095   2.864   1.315   4.974  0.3338  0.2155 -0.2188
29479W        W45096   2.375   8.933  14.480 -0.0167 -0.2112 -0.0419
29480W        W45097   3.291   0.785   4.143 -0.5738  0.2351 -0.0559
29481W        W45098  15.175  11.970   1.175 -0.0448 -0.0305  0.3635
29482W        W45099  12.119  15.919  12.299  0.0469 -0.1163  0.2153
29483W        W45100   5.539   7.374  14.806  0.3193 -0.1098  0.0393
29484W        W45101  17.734   9.575   2.535  0.0507  0.1070  0.0965
29485W        W45102  12.493   4.428  16.533 -0.2759 -0.0771 -0.1115
29486W        W45103   8.116   4.067   5.394 -0.1648 -0.2317 -0.0192
29487W        W45104  12.177   2.978   5.528  0.0909 -0.1990 -0.2342
29488W        W45105  11.447   5.381   2.433  0.0735 -0.0610  0.2961
29489W        W45106  10.418  14.518   4.181  0.0158 -0.3099 -0.1493
29490W        W45107  11.893  17.749   3.326  0.1480 -0.1561 -0.0580
29491W        W45108   0.932  11.813   0.963 -0.1627  0.3601  0.0088
29492W        W45109   3.791  14.985   5.288 -0.0204  0.2585  0.0579
29493W        W45110  10.556   0.788  16.064 -0.1682  0.0458  0.3443
29494W        W45111  17.231  15.372  14.827 -0.3108 -0.0817  0.1958
29495W        W45112   0.256   2.024   0.720 -0.2915  0.1001  0.0766
29496W        W45113  15.852  10.334   2.947  0.0437 -0.2162  0.0881
29497W        W45114   2.717  14.308  14.659 -0.5508  0.0762 -0.0079
29498W        W45115   1.116  17.694   5.228  0.2931 -0.0903  0.0765
29499W        W45116   1.179   4.447  14.082 -0.0313  0.0200 -0.2815
29500W        W45117   3.735   2.662   5.959  0.0260  0.1737 -0.2673
29501W        W45118  12.634  12.909   4.179  0.1837  0.2135 -0.1524
29502W        W45119  16.353   1.275  11.506 -0.0496  0.1331 -0.0811
29503W        W45120   8.888   2.028   5.872 -0.0080 -0.0956 -0.2513
29504W        W45121   2.572  13.325   2.526  0.1982 -0.0672 -0.2306
29505W        W45122   1.358   2.352   4.897  0.1337 -0.0713 -0.0677
29506W        W45123   0.983   1.863  11.312  0.1755 -0.0100 -0.0241
29507W        W45124   8.904   4.195   0.378 -0.1154 -0.0171  0.1814
29508W        W45125  10.713   4.602   2.637  0.1041 -0.2550  0.2031
29509W        W45126   1.690  14.851  12.715 -0.0701 -0.2103 -0.0810
29510W        W45127   8.801   1.379  12.235  0.3155  0.0994 -0.2302
29511W        W45128   0.041   1.306   3.279  0.1991  0.2023 -0.0529
29512W        W45129   2.257  13.092  16.173  0.0355 -0.0819 -0.4251
29513W        W45130   2.491   7.146   4.515 -0.1447  0.0900  0.1939
29514W        W45131   3.132   9.070  16.376 -0.2568 -0.0626  0.0802
29515W        W45132   4.234   3.755   1.358  0.0768 -0.0874  0.3626
29516W        W45133   4.640   2.175  15.601 -0.1310  0.1317  0.4900
29517W        W45134  10.825  15.570  16.233  0.0291 -0.1398  0.0141
29518W        W45135  11.555  14.676  13.756  0.1639  0.2819  0.1812
29519W        W45136   7.076   2.693   4.883  0.1121 -0.1205  0.2840
29520W        W45137   1.228   2.402   0.701  0.0893  0.0748 -0.0433
29521W        W45138   7.749   9.800   4.729 -0.1167  0.0329 -0.0222
29522W        W45139  12.382  15.006  11.841 -0.0437  0.1115 -0.0614
29523W        W45140   5.953  14.242   4.405 -0.2455  0.2030  0.3203
29524W        W45141   9.414  15.478   5.201 -0.3057  0.0493 -0.1813
29525W        W45142   3.989   3.432  14.903 -0.1498  0.1079  0.1123
29526W        W45143   8.666  12.963  15.579 -0.2953 -0.1304  0.0223
29527W        W45144   8.144   7.399   2.261  0.1018  0.0637  0.0118
29528W        W45145   3.317  13.113  13.974  0.0926  0.2071  0.0210
29529W        W45146  15.087  13.043  12.628  0.3428 -0.1708  0.0802
29530W        W45147   9.920  15.277  15.252 -0.0874 -0.1104  0.2002
29531W        W45148   2.535  11.015   4.932  0.1207 -0.0444  0.1965
29532W        W45149  16.455   6.933   4.343 -0.1984 -0.1495  0.1561
29533W        W45150  11.936   4.870   2.985 -0.1979  0.0852 -0.1953
29534W        W45151   3.065   7.027   3.570 -0.0355  0.4029  0.3021
29535W        W45152   3.319  16.742  13.477 -0.0643  0.1580 -0.3126
29536W        W45153   4.157   9.596  15.467  0.0129 -0.0042  0.0057
29537W        W45154  17.205   4.954  16.047  0.0233 -0.0947  0.0245
29538W        W45155   4.132  14.769   2.617 -0.1025  0.0003 -0.0829
29539W        W45156   2.423   7.750  15.795 -0.1661 -0.0483 -0.1137
29540W        W45157  10.386   2.146   5.623 -0.3538  0.3063  0.1177
29541W        W45158   0.775   3.336  11.499  0.0292  0.2965 -0.2325
29542W        W45159   0.402   3.426  12.662 -0.0356  0.2127  0.2169
29543W        W45160   4.201  16.426   0.972  0.1053  0.0003  0.2141
29544W        W45161   1.762  13.333   1.646 -0.1183 -0.0581 -0.0360
29545W        W45162   9.345   6.727   2.710 -0.2229  0.0605 -0.0902
29546W        W45163  13.600   6.032  16.187  0.0140  0.0761  0.1416
29547W        W45164  17.561  12.544   1.737 -0.0684  0.2877  0.2195
29548W        W45165   3.087  14.874   5.110 -0.0026 -0.0746  0.2131
29549W        W45166  17.748  12.110   2.990  0.1461 -0.0437  0.1890
29550W        W45167   4.682  16.897   0.286 -0.4401 -0.0495  0.2533
29551W        W45168   0.271   4.600   4.489  0.0705  0.0544 -0.0493
29552W        W45169  16.027   6.058  14.943  0.0157  0.0462  0.1038
29553W        W45170   6.798  13.102  14.185  0.1267 -0.2099 -0.0029
29554W        W45171   5.702   2.922   0.486 -0.2398  0.2688 -0.2950
29555W        W45172   4.945  17.595   4.914  0.0490  0.0956 -0.1213
29556W        W45173  13.951   3.811   3.167 -0.2143 -0.0455 -0.0169
29557W        W45174  17.631   2.558  14.017 -0.3000  0.0205 -0.1466
29558W        W45175  13.830   5.996   5.373  0.2640  0.0585  0.0395
29559W        W45176  11.116  14.052   0.055 -0.1238 -0.0118  0.2549
29560W        W45177   2.350   3.236  16.605  0.4633 -0.0367  0.0871
29561W        W45178  12.730   6.851  15.934 -0.2425  0.0221  0.3540
29562W        W45179   3.438   8.833  15.046  0.0093  0.2469 -0.1688
29563W        W45180  16.029  12.626  14.901 -0.2405  0.1453  0.0998
29564W        W45181   4.935   4.448   3.084  0.1540  0.1837 -0.0099
29565W        W45182   7.290   0.978   3.982  0.0473 -0.0057  0.0816
29566W        W45183   1.379  11.459  12.110 -0.1822 -0.3322  0.1124
29567W        W45184  16.041  12.980   5.273  0.2570  0.2077  0.1155
29568W        W45185  14.178   3.957  16.802 -0.0169 -0.1592  0.0390
29569W        W45186   9.645  17.335   4.537  0.1017 -0.0129  0.0083
29570W        W45187  10.656  16.185   1.044  0.1041  0.1112 -0.0016
29571W        W45188   6.358   4.322  12.444  0.0104  0.1560 -0.0875
29572W        W45189  14.050  16.173   4.064 -0.1303 -0.1871 -0.0855
29573W        W45190   9.119   2.395   2.301  0.0678 -0.1607 -0.2847
29574W        W45191  15.796   6.104  12.992 -0.1027 -0.0335 -0.1480
29575W        W45192   3.704   3.082  12.359 -0.2606  0.1299 -0.0071
29576W        W45193   5.981  16.933  11.644  0.2930 -0.0534  0.1619
29577W        W45194  12.917   1.880   6.564  0.2414  0.0249  0.0639
29578W        W45195   7.242   1.866   1.490 -0.0388  0.1464 -0.1471
29579W        W45196  17.681   9.839  12.642  0.1259  0.3588  0.1263
29580W        W45197   9.325   0.010  13.959 -0.0028 -0.0208 -0.1893
29581W        W45198   2.216   0.530  16.282 -0.1759 -0.2811 -0.0129
29582W        W45199  16.074  15.913  11.809  0.1884  0.0369  0.2265
29583W        W45200  14.178   7.164  15.183 -0.0531 -0.3130  0.1137
29584W        W45201   3.392  16.473   1.903 -0.0496 -0.1075  0.3864
29585W        W45202   7.161   4.641   3.932  0.2535  0.0608 -0.1133
29586W        W45203   6.255   2.845  14.758  0.1758  0.1254 -0.2632
29587W        W45204  11.543   9.641   3.882 -0.4028 -0.1389  0.3422
29588W        W45205   7.799  10.405  11.684  0.1906  0.1379 -0.1448
29589W        W45206   8.696   3.776   1.663 -0.0718 -0.0280  0.1371
29590W        W45207  17.175  16.096  15.904 -0.0333  0.0408 -0.0276
29591W        W45208  12.203   5.986  15.031  0.1852  0.0347 -0.0418
29592W        W45209   6.001  15.885  14.914 -0.2078 -0.0265  0.2026
29593W        W45210   4.502  12.264  12.888 -0.1128 -0.1914 -0.1276
29594W        W45211  13.733   6.640  15.860  0.2131 -0.0918 -0.2588
29595W        W45212   4.449   1.138  14.548  0.2210 -0.0324  0.0234
29596W        W45213  17.123  14.436   3.392  0.3834 -0.2578 -0.2356
29597W        W45214   0.048   2.677   1.374  0.3138  0.3481  0.0445
29598W        W45215  15.381  14.714   5.741 -0.1607 -0.0765 -0.0024
29599W        W45216   3.654   5.725  13.213  0.0126  0.1416 -0.3490
29600W        W45217   4.736   9.177  16.617 -0.0756  0.0534  0.1308
29601W        W45218   6.665  13.397   3.627 -0.1304 -0.0283 -0.1701
29602W        W45219  10.484   9.851   0.226 -0.2644  0.1094 -0.1437
29603W        W45220   9.447   1.298   4.685  0.1438 -0.0618 -0.1153
29604W        W45221   3.869   9.406  16.511 -0.0658 -0.0260  0.2552
29605W        W45222   3.420   9.167   0.847 -0.0355 -0.0922  0.0131
29606W        W45223  15.854  11.012   5.493 -0.1605  0.4053 -0.2942
29607W        W45224   2.190   3.073   2.425 -0.0572 -0.0712 -0.1392
29608W        W45225  10.564  16.329   5.814  0.1483 -0.2634 -0.0847
29609W        W45226  11.266  16.683   1.920 -0.2401  0.0629  0.1000
29610W        W45227  10.400   6.759   4.353 -0.0003  0.1967  0.1155
29611W        W45228  13.834  17.512   0.515 -0.0932 -0.0849 -0.0487
29612W        W45229  12.119  13.919   3.254  0.0001 -0.2234 -0.1866
29613W        W45230  15.016  16.454  14.600 -0.0379  0.1103  0.2715
29614W        W45231   5.897  17.556   5.194 -0.2956 -0.0580  0.2677
29615W        W45232   0.427   8.848   5.635  0.2459 -0.1508  0.1317
29616W        W45233  13.384  14.292  14.949 -0.0234 -0.0450 -0.0723
29617W        W45234   9.118   9.753  15.155  0.1784 -0.0274 -0.4188
29618W        W45235  12.610   6.502  16.237 -0.2175  0.0675  0.0875
29619W        W45236   3.557  16.981   1.578  0.2275 -0.0652  0.0385
29620W        W45237  15.265  12.740   4.788 -0.0954 -0.0875 -0.1866
29621W        W45238   6.601   7.486  12.391 -0.0841  0.0771 -0.0738
29622W        W45239  12.674   3.491   0.787  0.1448 -0.0798 -0.0898
29623W        W45240  15.715   8.208   3.357 -0.0242 -0.1062  0.3244
29624W        W45241   4.618  14.227  15.402 -0.1751 -0.1556 -0.1541
29625W        W45242  16.675  15.220   4.761 -0.3098  0.1514 -0.2023
29626W        W45243  15.214  14.430   3.965 -0.2695  0.2802 -0.1516
29627W        W45244   8.112   2.896  16.791 -0.1971  0.0507 -0.1393
29628W        W45245   9.769  17.727  16.789  0.0922  0.2462  0.2127
29629W        W45246   3.919   6.541   5.207  0.1667  0.0325 -0.0990
29630W        W45247  10.017  10.486   2.649  0.1654 -0.2413  0.1655
29631W        W45248   6.800   1.782   1.236 -0.2471  0.1798  0.1286
29632W        W45249   0.916  17.045   1.272  0.2503  0.1086  0.1354
29633W        W45250  15.594  13.176  12.832  0.0612  0.2079 -0.1598
29634W        W45251   4.633  17.746  14.916 -0.0690 -0.0660 -0.2048
29635W        W45252  15.152  12.321   3.869 -0.1183 -0.0572  0.0083
29636W        W45253   4.154  16.468   5.556  0.2450  0.2802  0.1362
29637W        W45254  11.972  11.433   4.855 -0.4286  0.0053  0.2296
29638W        W45255   0.543  11.125   5.418  0.1085 -0.3862 -0.0782
29639W        W45256   7.574  13.020   4.836  0.2237 -0.0120  0.1254
29640W        W45257   7.255  11.767  14.254  0.0827  0.1616 -0.0354
29641W        W45258   7.605  14.052  12.815  0.1896  0.2074 -0.1881
29642W        W45259  11.994   6.356  16.378 -0.2055  0.1653  0.1222
29643W        W45260  10.238   4.688   1.116 -0.3072  0.2561 -0.2772
29644W        W45261   4.890   3.598   3.922 -0.0279 -0.1450  0.0897
29645W        W45262  16.057  16.629  15.061  0.0520  0.0167  0.0272
29646W        W45263  12.436   0.896  13.451 -0.0766  0.1923 -0.3252
29647W        W45264   8.364  15.663   2.523  0.2131  0.3165  0.1725
29648W        W45265   2.540  16.352   1.690 -0.0893 -0.1070 -0.0474
29649W        W45266  17.093  10.214  14.649 -0.0525  0.1549  0.0043
29650W        W45267  17.629   4.629   4.547 -0.1082 -0.1065  0.0645
29651W        W45268   9.641   8.739   4.990 -0.1404  0.1347  0.0293
29652W        W45269   1.286  12.415  15.714  0.0596 -0.3482  0.2463
29653W        W45270   1.149   2.591   5.947  0.1390 -0.3407 -0.1366
29654W        W45271  15.604  17.806   0.825 -0.1014  0.0909  0.2522
29655W        W45272   7.458   3.502  12.597 -0.1858  0.0242 -0.0313
29656W        W45273  12.343  16.749  13.263  0.0276  0.2162  0.0052
29657W        W45274   2.982  14.738  14.171 -0.0207  0.0040  0.2713
29658W        W45275   1.168   9.034   1.462 -0.0097  0.1664  0.0952
29659W        W45276   4.092   7.440  15.559  0.1400 -0.0722 -0.1080
29660W        W45277   0.055   1.885  12.092  0.1109 -0.0854  0.1585
29661W        W45278   6.696  17.370  11.172  0.1223 -0.1742 -0.0793
29662W        W45279   8.486   7.861  11.914 -0.2931  0.0284  0.0225
29663W        W45280  13.321   0.669   2.847  0.3695  0.3162 -0.1316
29664W        W45281   7.568  16.425  13.485 -0.0268 -0.0745 -0.1730
29665W        W45282   2.158  10.185   3.758 -0.0030 -0.3268  0.0703
29666W        W45283   3.187  13.933   0.597  0.0777 -0.0698  0.3207
29667W        W45284  13.144  14.958   4.005  0.1179 -0.1178  0.2735
29668W        W45285  13.033   4.404   5.288 -0.0876  0.2561  0.0475
29669W        W45286  17.733  16.576   4.191  0.0195  0.0062  0.2716
29670W        W45287   7.053   6.669  13.642  0.1075 -0.3141 -0.0207
29671W        W45288   9.674   4.657   2.349  0.0051 -0.0789  0.0151
29672W        W45289   9.807   2.518   2.246 -0.1154  0.2416  0.1430
29673W        W45290  15.982   8.615   2.889 -0.2741  0.2365 -0.2947
29674W        W45291  14.450   1.945   0.313 -0.1825 -0.0158 -0.1836
29675W        W45292  13.016   0.975  10.537  0.0757  0.2187  0.0148
29676W        W45293   6.556   3.761  14.656 -0.0761  0.0386  0.3127
29677W        W45294   6.014   0.810  11.534  0.0502 -0.2874 -0.2559
29678W        W45295   8.271  13.253   3.343  0.3699 -0.0862  0.1977
29679W        W45296   7.142   9.890  14.707 -0.0203 -0.0607 -0.1942
29680W        W45297   1.266  13.912  16.283 -0.0362  0.3031  0.0556
29681W        W45298   1.618   7.880   1.664 -0.0393  0.1678 -0.1425
29682W        W45299   2.513   0.508   0.446  0.2253 -0.2153  0.0717
29683W        W45300   9.267   4.564  15.921 -0.1927  0.4397  0.0865
29684W        W45301  16.498   1.323  14.130 -0.0787 -0.2957 -0.2087
29685W        W45302  16.002   4.856   4.908  0.3371  0.2697 -0.0367
29686W        W45303   8.204  16.016  14.188 -0.0409  0.1827 -0.2092
29687W        W45304   9.514  11.401   3.961 -0.0903  0.2471  0.0941
29688W        W45305   0.916   0.249  16.598  0.0053 -0.0327 -0.2673
29689W        W45306  12.219  16.310  15.293  0.0574 -0.2630  0.3410
29690W        W45307   6.876   2.759   2.843 -0.1503 -0.2038  0.3981
29691W        W45308   9.695   4.795  14.224  0.1755  0.1342 -0.3647
29692W        W45309   6.793   7.533   1.183  0.0409  0.2471 -0.1015
29693W        W45310   2.376   9.565  15.975 -0.1577  0.0840  0.2078
29694W        W45311   9.153   8.183   2.867 -0.0178  0.2251  0.1333
29695W        W45312  17.820  12.704   6.190 -0.1206  0.1254  0.1359
29696W        W45313  12.416   7.087   3.317 -0.0899  0.2156 -0.2465
29697W        W45314   4.022   3.851  15.244  0.0575 -0.0034 -0.0106
29698W        W45315   9.066  16.703   4.851 -0.0204 -0.1078  0.0576
29699W        W45316   6.561  11.295  16.444  0.0417 -0.1273 -0.0018
29700W        W45317   8.587   4.494  12.323  0.2233 -0.0224  0.1674
29701W        W45318  16.627   8.369  13.959 -0.1334 -0.0638 -0.0626
29702W        W45319   2.882   2.093  11.977  0.0793 -0.0622  0.0092
29703W        W45320   0.417   4.244   6.298 -0.0170 -0.0767 -0.0742
29704W        W45321   0.028   3.038   1.768 -0.0777  0.2456 -0.1473
29705W        W45322  12.801  11.733   0.013 -0.0178 -0.1920  0.1112
29706W        W45323   2.244  14.104   0.279 -0.1447  0.0670  0.0889
29707W        W45324  11.157   4.593  15.461 -0.1252  0.1371 -0.0177
29708W        W45325  17.790   2.416  14.831  0.1691 -0.3357  0.1783
29709W        W45326  17.066  11.429  15.535  0.0807  0.0018  0.0900
29710W        W45327   1.186   6.069   1.766 -0.1450 -0.2073 -0.0559
29711W        W45328   1.133   1.221  12.455 -0.1845 -0.1221 -0.1057
29712W        W45329  16.070   6.420   4.862  0.2793 -0.1863  0.0061
29713W        W45330   1.776  14.634   0.914  0.1582  0.1421 -0.0217
29714W        W45331  12.204   6.237   0.241  0.0613 -0.1096  0.1611
29715W        W45332   7.654  17.592   3.628 -0.0533 -0.1882  0.1360
29716W        W45333   8.792  17.805  13.297 -0.3610  0.1097 -0.0243
29717W        W45334  16.827  12.125  16.022 -0.0816 -0.0242  0.0104
29718W        W45335  10.004  14.820  14.883 -0.0240 -0.3590 -0.0355
29719W        W45336  11.078  11.144   1.216  0.2414  0.0764 -0.2011
29720W        W45337   1.775  15.243   2.078 -0.0036 -0.0439  0.0362
29721W        W45338   2.717   7.354  12.576  0.1787 -0.6316 -0.0630
29722W        W45339  13.232   2.663  14.548  0.3774  0.1282 -0.3512
29723W        W45340  11.520   2.940   2.730  0.0327  0.3016  0.0360
29724W        W45341  10.426  12.056   0.166 -0.0075  0.3575 -0.1831
29725W        W45342   7.115  10.437  15.574  0.1549 -0.1550  0.2377
29726W        W45343  15.973   3.568   0.967  0.0829  0.1168  0.0006
29727W        W45344   1.572  11.896  11.935 -0.0916  0.2621  0.0282
29728W        W45345   4.331   3.694  14.017  0.0692 -0.0856 -0.2187
29729W        W45346  16.488   5.780  14.175  0.0879  0.2695  0.3163
29730W        W45347   0.507  15.814   5.739  0.1477  0.2078 -0.0784
29731W        W45348   1.603  10.053  14.224 -0.2317  0.1029 -0.0172
29732W        W45349  16.854   3.623  12.147  0.0812 -0.0985 -0.1815
29733W        W45350   0.382   3.581   5.770  0.2377 -0.0102 -0.0637
29734W        W45351   7.482  15.015  12.707 -0.1776  0.2355 -0.0881
29735W        W45352   5.205  11.125   0.531 -0.0986 -0.2779  0.0532
29736W        W45353  12.524   6.765   5.560 -0.0454 -0.0534  0.1122
29737W        W45354  12.155   2.606   0.736 -0.0110 -0.0991 -0.0056
29738W        W45355  15.386  17.471  15.288  0.2161 -0.1511 -0.0148
29739W        W45356   4.483  17.158  16.741 -0.3721  0.0395  0.0295
29740W        W45357  10.651  14.700  13.089 -0.1551 -0.1713  0.3132
29741W        W45358   4.931   5.481  12.853  0.1240  0.0567 -0.1478
29742W        W45359  17.718  10.281  13.853  0.1144  0.0702  0.0769
29743W        W45360  16.888  17.567   4.475 -0.4729  0.0555  0.2077
29744W        W45361  11.819   8.094  12.910 -0.2800  0.0636 -0.1394
29745W        W45362  15.257   0.046   4.801  0.1043 -0.2172  0.2041
29746W        W45363  15.032   8.405   0.672 -0.0561 -0.1137 -0.1108
29747W        W45364  13.910   6.668  14.896  0.0696  0.1259 -0.2230
29748W        W45365   6.295  11.782  13.992  0.0823 -0.1817  0.2963
29749W        W45366   6.561   0.574   4.780 -0.0700  0.1000  0.0598
29750W        W45367  17.231  17.868  16.690 -0.2598 -0.2159 -0.0276
29751W        W45368   1.807   2.305   4.195  0.2182  0.0613  0.2905
29752W        W45369   2.258   7.173  12.402  0.1421  0.0817 -0.0338
29753W        W45370   0.744  11.187   6.397 -0.1163  0.1795 -0.0917
29754W        W45371  10.706  14.408  11.784 -0.0385 -0.3022  0.0901
29755W        W45372  15.134   3.753  11.666 -0.0480 -0.1501 -0.0143
29756W        W45373  11.143   5.447  16.603 -0.0324 -0.2318 -0.1209
29757W        W45374   6.035   3.610  12.596 -0.3971  0.1796  0.1668
29758W        W45375  11.896   6.376  12.333  0.0205  0.1364 -0.1188
29759W        W45376  12.313   8.989  14.314  0.1147  0.2760 -0.1199
29760W        W45377  14.890  13.047  11.795 -0.1177  0.0602  0.0034
29761W        W45378  16.517  17.778  13.619 -0.0852 -0.0204 -0.1903
29762W        W45379   0.502  14.670   4.114  0.1662  0.0040  0.1271
29763W        W45380   8.031   0.196  16.507 -0.0807  0.1432  0.0949
29764W        W45381   1.751  16.934  12.035  0.0128  0.1114  0.3258
29765W        W45382  14.075   9.307  13.766  0.0336 -0.2236  0.0515
29766W        W45383   9.102   1.436  13.677 -0.0660  0.3558  0.3723
29767W        W45384   4.660   8.461  11.882 -0.1780 -0.3332 -0.1465
29768W        W45385  17.759   1.661   3.860  0.2068  0.1216  0.0278
29769W        W45386  16.921  13.937  11.174  0.3213 -0.1543  0.2099
29770W        W45387  16.863   6.526  11.680  0.2293  0.0630 -0.0327
29771W        W45388   7.427  10.795   3.326 -0.2039 -0.0967  0.1446
29772W        W45389  12.735   7.502   0.924  0.0367 -0.4119 -0.0160
29773W        W45390  13.535   4.131   1.358  0.0250 -0.1213  0.2107
29774W        W45391  12.773  14.427   0.571 -0.0469 -0.1147 -0.0911
29775W        W45392   6.121   3.142   0.868 -0.1435 -0.2072 -0.0321
29776W        W45393   3.944   6.855   4.495 -0.0877 -0.2402 -0.0118
29777W        W45394  17.037   7.529  12.568 -0.0797  0.0648  0.2121
29778W        W45395  12.299   0.727  15.172 -0.1442 -0.1324  0.0228
29779W        W45396  12.342  14.846  16.077 -0.1546  0.0246 -0.0816
29780W        W45397   4.768   4.687   2.298  0.5443  0.1368 -0.1485
29781W        W45398  12.299  11.079   2.319  0.1595  0.3595 -0.1773
29782W        W45399   9.893  10.731   0.932 -0.0959  0.2698  0.0976
29783W        W45400  12.324   0.375   1.123  0.0532 -0.2168 -0.0637
29784W        W45401   4.960   7.241  16.120 -0.0789 -0.1176  0.0348
29785W        W45402   2.235   1.006  16.485  0.0765  0.1045  0.0677
29786W        W45403  15.115  15.698  11.473 -0.0285  0.0587 -0.2995
29787W        W45404  14.661  12.072  11.846  0.4269 -0.0144 -0.0407
29788W        W45405   9.042  11.422   4.266 -0.0512  0.2926 -0.1349
29789W        W45406   9.586   0.533  13.768  0.1450 -0.1738  0.3035
29790W        W45407   3.954  14.726   0.817 -0.0211  0.1521  0.1701
29791W        W45408   6.462   9.945  16.580  0.1475  0.0057 -0.1252
29792W        W45409   4.925   3.887  16.828 -0.2069 -0.2348  0.1753
29793W        W45410   9.256  14.037   1.844  0.1697 -0.0386  0.2199
29794W        W45411   2.369   3.802   1.976 -0.1997  0.0216  0.3384
29795W        W45412  13.086  14.407   3.347 -0.0555 -0.0177 -0.0042
29796W        W45413  14.014  15.082  14.826  0.2491  0.2432 -0.1793
29797W        W45414  10.150  11.645  12.650 -0.0152 -0.1086  0.0661
29798W        W45415  10.761  16.441   4.835 -0.1949  0.1163  0.0199
29799W        W45416   7.094  14.581   5.331  0.1917  0.0836  0.0337
29800W        W45417  14.208   9.613   0.968 -0.0596  0.0444  0.0298
29801W        W45418  11.988  17.649   0.758 -0.2669 -0.1323  0.1434
29802W        W45419  17.456   0.031   3.696  0.1826 -0.1391 -0.1181
29803W        W45420   3.788   9.998   3.257 -0.0007  0.1307 -0.0394
29804W        W45421   5.956  12.888  15.791 -0.0776 -0.0961  0.0212
29805W        W45422   6.483   8.601  11.419  0.0385  0.1211 -0.1466
29806W        W45423   8.115   3.156   0.857  0.0639  0.2280 -0.2324
29807W        W45424   1.181   5.154  14.690 -0.1036 -0.1987  0.0280
29808W        W45425  12.135   8.520  13.018 -0.0906 -0.3139  0.0744
29809W        W45426  11.919   7.511   2.521  0.1450 -0.0385  0.0417
29810W        W45427   2.878   6.744   2.389 -0.2009  0.1564 -0.1085
29811W        W45428   1.393  15.222   2.413 -0.0364 -0.0568 -0.0805
29812W        W45429  12.517  15.847   2.305 -0.1076 -0.0718 -0.2260
29813W        W45430   4.985  11.642  14.781 -0.2290  0.0126  0.1075
29814W        W45431   2.739  14.567  13.752  0.1375  0.0733  0.2929
29815W        W45432  16.638  10.170  16.672 -0.0844  0.0724  0.3535
29816W        W45433   9.130   7.480  13.567 -0.1528 -0.1293 -0.4355
29817W        W45434   2.866   8.909  11.783 -0.1609 -0.0948 -0.2569
29818W        W45435   2.441   3.397  16.055  0.0786  0.0683  0.1195
29819W        W45436  15.614   6.332   2.691  0.2962 -0.3828 -0.2204
29820W        W45437  13.309   1.852  14.003 -0.5640  0.2211 -0.2171
29821W        W45438  12.098   0.725   2.420 -0.0851  0.0011  0.1703
29822W        W45439   5.145   3.219  15.573  0.0160 -0.2717  0.2255
29823W        W45440  16.869   8.719   0.117 -0.2760 -0.0025  0.1654
29824W        W45441   7.239  10.649  16.063 -0.0822 -0.2564  0.1874
29825W        W45442  12.193  14.680  13.970 -0.0239  0.0412  0.1079
29826W        W45443   6.222  17.724   2.940  0.2516  0.1238  0.2580
29827W        W45444  14.983  12.932   0.399  0.1314 -0.2335  0.0950
29828W        W45445  12.401   0.404  13.384  0.1682 -0.0588  0.4660
29829W        W45446   5.731   3.976  14.190  0.4125 -0.0611 -0.1649
29830W        W45447   6.795  15.580   1.354  0.2346  0.0025 -0.0047
29831W        W45448   3.046  17.112   0.169  0.2797 -0.1176  0.2940
29832W        W45449   9.024   8.995  12.524  0.1415  0.1608 -0.1888
29833W        W45450  17.515  17.529   6.318  0.1365  0.2608 -0.2277
29834W        W45451  11.693   2.128   5.796 -0.1081 -0.3763 -0.1676
29835W        W45452   0.536   5.070  11.924 -0.0906  0.0102 -0.1175
29836W        W45453  12.190  16.180  15.751  0.4250  0.2557 -0.1743
29837W        W45454   7.359  14.865   3.828 -0.1589 -0.1752  0.2127
29838W        W45455  12.839   9.723   5.153 -0.1078  0.0861  0.2224
29839W        W45456   5.863  15.527   4.833 -0.1886  0.0081 -0.1361
29840W        W45457  11.601   9.814  15.005 -0.2907  0.0335  0.0158
29841W        W45458  11.217   4.382   4.025  0.1802  0.1764  0.0140
29842W        W45459  10.596   6.005   2.476  0.0287 -0.0514 -0.1377
29843W        W45460  13.315   1.749   0.045  0.1274  0.3336  0.6714
29844W        W45461  15.033  10.679  15.059  0.1231  0.0749  0.1970
29845W        W45462   6.253   6.487   2.875  0.1985 -0.0145 -0.4326
29846W        W45463   3.860  11.103  16.056  0.1897 -0.0297 -0.1626
29847W        W45464   7.497   4.939   4.800  0.0908  0.0850 -0.1222
29848W        W45465   0.294   5.779   4.498 -0.2908  0.0302 -0.2800
29849W        W45466   0.329   1.938   6.238  0.2207  0.0869  0.2785
29850W        W45467   9.111  14.029   3.930 -0.2899  0.3001  0.0413
29851W        W45468  10.497   5.940  11.626 -0.0174  0.1117 -0.1753
29852W        W45469  15.933   3.137   4.900  0.0012 -0.1178 -0.1499
29853W        W45470   7.298   9.818   5.940 -0.1800  0.0696 -0.2301
29854W        W45471  14.813   8.717  12.655 -0.0126 -0.1006  0.1334
29855W        W45472   3.280  13.213   4.523  0.0655 -0.1905 -0.1362
29856W        W45473   8.992   3.559  13.569  0.2710 -0.0006 -0.2843
29857W        W45474   9.135  14.290  14.108  0.0565  0.1277 -0.1140
29858W        W45475   2.722   8.147   1.244 -0.2358 -0.3362  0.2569
29859W        W45476  16.789  15.485  12.545  0.0179 -0.3404 -0.1447
29860W        W45477  12.536  11.208  15.903  0.1900  0.1243 -0.2521
29861W        W45478  13.964  15.195  11.055  0.1045  0.2050 -0.0299
29862W        W45479   0.057  16.839  11.838  0.1475  0.1596  0.2038
29863W        W45480  17.077   0.828   2.704  0.1409  0.3009 -0.0911
29864W        W45481  11.632   4.065  15.420  0.1015 -0.1581  0.4797
29865W        W45482   1.423   3.474   2.234 -0.2841 -0.1452  0.1973
29866W        W45483   4.939   6.338  16.591  0.1294  0.3518 -0.0239
29867W        W45484   1.170   5.484   3.203 -0.3796  0.0533 -0.0792
29868W        W45485  12.245   3.676   5.096  0.0196  0.0744 -0.2176
29869W        W45486   0.007   2.548   1.877  0.0611  0.1138  0.0772
29870W        W45487   1.538  11.906  15.600  0.1289 -0.0326 -0.0475
29871W        W45488  11.012  13.160   3.937  0.1126  0.1685 -0.0560
29872W        W45489  15.614   8.518   5.708 -0.0489  0.1293 -0.0009
29873W        W45490   1.538   0.321   3.308 -0.5094 -0.0968 -0.2580
29874W        W45491   4.272   8.432  11.603  0.1261  0.0954 -0.0217
29875W        W45492  16.687   2.219  12.044 -0.2635 -0.1441  0.2533
29876W        W45493   8.100  10.451  12.786 -0.0053  0.3163  0.0740
29877W        W45494  11.592  16.668  13.887 -0.0015 -0.0547 -0.1108
29878W        W45495  11.859  14.743  14.799  0.3387 -0.1347  0.1814
29879W        W45496  10.498   5.517   5.555  0.0210 -0.0989 -0.0256
29880W        W45497  16.284  15.298  15.087  0.4657  0.0476 -0.2555
29881W        W45498   2.562  11.980   0.974 -0.0500 -0.1445 -0.0461
29882W        W45499   5.370   5.948   1.529 -0.1415  0.0464  0.0219
29883W        W45500  17.176   4.311   0.953  0.0042  0.0161  0.2175
29884W        W45501  15.612   5.854  16.305  0.0105 -0.1643 -0.4389
29885W        W45502   7.300   3.298  16.680  0.0662 -0.1137  0.0317
29886W        W45503   5.061  16.433   5.697 -0.1234 -0.0524  0.1664
29887W        W45504   4.223   3.770   1.885  0.0561 -0.0911 -0.0054
29888W        W45505   8.786  12.502  11.757  0.2288  0.2020  0.2798
29889W        W45506  17.663  15.011  11.687  0.0737  0.2445 -0.0726
29890W        W45507   5.329   3.289  14.627  0.5447  0.0233  0.3930
29891W        W45508   5.026  10.409   3.432  0.2752  0.1078  0.0201
29892W        W45509   9.107  13.195  16.720 -0.1114 -0.1457  0.0430
29893W        W45510  13.123  17.115   5.159 -0.1833 -0.1586 -0.1031
29894W        W45511   4.703   6.549  12.915  0.2219 -0.1854  0.0481
29895W        W45512  14.359  16.777   0.502 -0.1066 -0.0897  0.2005
29896W        W45513  16.062   5.451   1.879 -0.2578  0.3364  0.4157
29897W        W45514  10.741   4.848   5.955 -0.2772  0.1476  0.0296
29898W        W45515   9.984  17.606   2.460  0.2785  0.0926 -0.0727
29899W        W45516  16.824  16.018   1.340 -0.1562 -0.3647 -0.1041
29900W        W45517   5.735  16.896  13.798 -0.2122  0.2535 -0.0529
29901W        W45518  14.169   9.851   1.870  0.1587 -0.1990 -0.0144
29902W        W45519   1.843  14.020  14.337 -0.0514  0.1346  0.0591
29903W        W45520   7.529   0.183  16.152  0.2040  0.1427  0.1319
29904W        W45521   2.452   7.674  13.645 -0.2014 -0.2599 -0.2288
29905W        W45522   6.345  10.483  13.934  0.0275 -0.1930  0.1533
29906W        W45523  11.834   3.998   0.883  0.0679  0.1001  0.0213
29907W        W45524   0.318   3.901  12.675 -0.1181  0.0814 -0.1963
29908W        W45525   8.241   1.908  16.490 -0.0942 -0.2037  0.3196
29909W        W45526  13.385   2.320   4.670  0.0560  0.4214  0.3768
29910W        W45527  10.040   3.082  13.442  0.2237 -0.0141  0.1174
29911W        W45528   8.265   7.793   4.189  0.3323 -0.0981  0.2067
29912W        W45529   4.479   5.083   4.590  0.0315  0.2139 -0.1790
29913W        W45530   5.353   5.723  12.901 -0.2156  0.0676 -0.1614
29914W        W45531   8.245   7.158  13.183 -0.0056 -0.0548 -0.0536
29915W        W45532  12.814   2.696  14.936  0.0095 -0.0407 -0.1743
29916W        W45533   8.695  16.319   3.768 -0.1457  0.0947 -0.0080
29917W        W45534  12.211   7.533   3.548 -0.1856 -0.2251  0.2577
29918W        W45535  11.047   0.500   3.978 -0.0805  0.0603  0.3881
29919W        W45536   6.301   1.032   1.582  0.3568 -0.1069 -0.2211
29920W        W45537  13.957  15.653  14.823  0.0593  0.3761 -0.2251
29921W        W45538   6.066   2.218   0.913 -0.1481 -0.0165 -0.1713
29922W        W45539   0.630   8.203   4.738  0.0089  0.0861 -0.0932
29923W        W45540  12.458   7.852  10.948 -0.0302  0.6143  0.2816
29924W        W45541   5.019   9.396   2.100 -0.0225 -0.1898 -0.2581
29925W        W45542   4.513  15.592   0.990  0.4323 -0.3244 -0.0757
29926W        W45543  13.664  17.828   2.974 -0.0228 -0.1168  0.2522
29927W        W45544   2.770  12.417   4.602 -0.1847 -0.0997 -0.3722
29928W        W45545  13.453  12.149  14.471  0.2315 -0.2036 -0.2637
29929W        W45546   6.016   9.134  11.847  0.1540 -0.0890 -0.0986
29930W        W45547  11.451  13.018  13.609 -0.0734  0.2579 -0.1555
29931W        W45548  14.453   6.288   4.804 -0.2216 -0.1541 -0.1753
29932W        W45549   4.054  14.144   5.514  0.1655  0.1738  0.1131
29933W        W45550  12.923  17.825   3.097 -0.2449  0.1001  0.0026
29934W        W45551   2.872   2.777  10.207 -0.1695 -0.2062  0.1452
29935W        W45552   0.306   2.412  13.860 -0.2828  0.1325 -0.1595
29936W        W45553   6.672   0.990  12.042  0.3736  0.1879  0.0270
29937W        W45554  11.445  13.292   5.741 -0.1862 -0.0412  0.1891
29938W        W45555   3.111   0.423   2.850 -0.1445 -0.0192 -0.1244
29939W        W45556  13.403  11.799  14.884  0.0530 -0.1244 -0.3417
29940W        W45557  11.897   8.886  12.061  0.1641 -0.1749  0.2874
29941W        W45558  12.964   4.078   1.396  0.1827  0.2105  0.0964
29942W        W45559  10.382   8.162  16.096  0.0497 -0.0335  0.0178
29943W        W45560  10.597   9.940  12.035  0.2044  0.1649  0.1301
29944W        W45561  17.834  17.568  11.420 -0.3432 -0.4260  0.1920
29945W        W45562  17.065  13.575   3.464 -0.0832 -0.0089  0.0087
29946W        W45563   1.662   8.495  13.403 -0.0514  0.1895  0.3204
29947W        W45564  17.808  12.186  14.212  0.0122 -0.0615  0.3055
29948W        W45565   5.353  13.953  15.058  0.0241 -0.1121 -0.1963
29949W        W45566   7.727   2.877   0.968 -0.1838 -0.0566  0.1074
29950W        W45567   1.691   4.245  15.951 -0.1152  0.1970  0.0224
29951W        W45568  14.024   3.530   2.117  0.0932  0.1012  0.0447
29952W        W45569   6.241   2.127  11.662  0.1413 -0.1778 -0.0982
29953W        W45570   4.660  12.926  11.689 -0.1915 -0.3173  0.2740
29954W        W45571  11.970   4.476   2.098 -0.2644 -0.0487  0.3442
29955W        W45572  10.257   6.484  13.463  0.1518  0.1500  0.0920
29956W        W45573   5.520   2.125  12.228  0.1283 -0.2053 -0.3141
29957W        W45574   7.278  14.711   4.882  0.1668 -0.1180  0.0566
29958W        W45575   2.096  14.320  15.122 -0.1998 -0.1567 -0.1903
29959W        W45576   7.493   1.695   4.903  0.2115  0.1222 -0.0383
29960W        W45577   2.778   6.541   5.692 -0.0608 -0.1539  0.2039
29961W        W45578  13.308  16.736   0.672  0.2187  0.0799  0.0854
29962W        W45579   3.148   5.915   0.036 -0.3389  0.0975  0.1800
29963W        W45580  17.638  10.909   6.047 -0.0834  0.0959 -0.0785
29964W        W45581  12.636  16.648   0.672  0.1212  0.1759  0.2415
29965W        W45582   8.348   3.355   4.792 -0.2165  0.1437 -0.0757
29966W        W45583   1.910   7.712   5.262  0.1742 -0.3516  0.2178
29967W        W45584   7.102   8.069  14.174  0.0950 -0.0333 -0.0574
29968W        W45585  12.120  11.746   3.499 -0.0910  0.2631  0.3722
29969W        W45586   9.194  13.181   0.763 -0.2738  0.1728 -0.0396
29970W        W45587   7.242  13.159  14.867 -0.2096  0.1216  0.0006
29971W        W45588   0.909   8.415  14.311 -0.1537  0.0996 -0.0633
29972W        W45589   3.177  10.010  15.999  0.0079  0.2983 -0.0292
29973W        W45590   4.475  14.947   1.301  0.0030  0.1584  0.2334
29974W        W45591   0.876   5.310   5.765 -0.0076  0.0448 -0.1174
29975W        W45592   8.209  15.376   5.522 -0.0194 -0.1360  0.0957
29976W        W45593   7.045  14.058   5.499 -0.2259  0.1177  0.2052
29977W        W45594   9.037  17.310   0.244  0.2138  0.0428 -0.1279
29978W        W45595   7.951   9.499  11.832 -0.3569 -0.3160 -0.0211
29979W        W45596  11.509  11.940   1.324  0.2849  0.1930  0.1398
29980W        W45597   8.132   0.572  16.808 -0.1522  0.0312 -0.5013
29981W        W45598   2.460   9.217   5.390 -0.2319 -0.0755  0.0081
29982W        W45599   0.524  12.305  12.098 -0.1803  0.2733  0.0743
29983W        W45600  17.095  17.832  11.335  0.4160 -0.1602  0.1176
29984W        W45601   6.268   7.185   2.450 -0.1106  0.0037 -0.0138
29985W        W45602  12.757   7.135   2.383  0.2765 -0.0400 -0.0771
29986W        W45603  13.067  16.648  11.106 -0.1402  0.2209 -0.1521
29987W        W45604  15.535  11.044  13.404  0.1358 -0.0774 -0.0188
29988W        W45605  10.263   4.530   5.950 -0.0211  0.0805  0.0035
29989W        W45606   8.892  17.359   2.888  0.0296 -0.1571  0.0487
29990W        W45607  16.828   4.155   5.383  0.1182  0.1893 -0.0944
29991W        W45608  14.225   2.705   5.436 -0.0056  0.3297  0.0137
29992W        W45609   0.311  17.071  12.293 -0.0034  0.0166  0.1434
29993W        W45610  12.850   9.886  12.704  0.0427  0.3278 -0.1642
29994W        W45611   5.620   3.986  13.027 -0.3097 -0.0267  0.0315
29995W        W45612   3.647   6.492   4.697 -0.0870  0.3923  0.0447
29996W        W45613   5.934   8.354   1.203 -0.1440  0.5197 -0.2198
29997W        W45614   0.922  14.272  12.345 -0.0750  0.3210 -0.0692
29998W        W45615  14.147   5.462   4.076 -0.2592 -0.2001  0.1052
29999W        W45616   4.900  17.118  15.161 -0.0285  0.2712  0.3609
30000W        W45617  15.457   9.669  11.840  0.0576  0.0464 -0.0175
30001W        W45618   5.920  13.546  13.992  0.0099 -0.0425 -0.1775
30002W        W45619  12.619  14.488   5.463 -0.2678 -0.1496 -0.1640
30003W        W45620   6.598   9.356   3.968  0.0819  0.1325  0.3743
30004W        W45621   6.151   8.087   2.968 -0.1198 -0.1070  0.0740
30005W        W45622   9.860  14.119   2.863  0.3304 -0.1968  0.1299
30006W        W45623  16.413   8.197  13.483 -0.0569 -0.1326 -0.2091
30007W        W45624  12.507  11.649   0.760 -0.2611 -0.0199 -0.2066
30008W        W45625   0.486  12.922  16.706 -0.0318 -0.1740 -0.1024
30009W        W45626  12.463  14.595   4.367 -0.0494  0.1115 -0.0094
30010W        W45627  12.813  16.307   2.903 -0.0194 -0.3702 -0.0603
30011W        W45628   4.282  16.176  12.884  0.0193 -0.0501 -0.1690
30012W        W45629  10.261   4.899  13.331  0.1625 -0.1604  0.0227
30013W        W45630   5.868  14.331   1.492  0.1248 -0.1527 -0.0864
30014W        W45631   4.631   3.375   2.202 -0.1214  0.1839 -0.0305
30015W        W45632   6.303   9.529  11.523 -0.1591 -0.0272  0.2289
30016W        W45633  16.130  10.435  15.743 -0.3265  0.3209  0.2043
30017W        W45634   1.690   2.099   4.622 -0.2620 -0.2519  0.1955
30018W        W45635  12.776   8.791  14.167  0.3375 -0.2532  0.4518
30019W        W45636   6.269  17.291   3.840  0.1825 -0.0374 -0.1331
30020W        W45637   0.226  13.295   4.060 -0.1621  0.0766  0.1548
30021W        W45638   6.295  14.616   0.940 -0.0247  0.1809  0.0591
30022W        W45639   7.754   8.904  11.416 -0.0753 -0.0494 -0.1036
30023W        W45640  16.043  10.394   1.064  0.2960  0.0778  0.3792
30024W        W45641   1.443   7.160   5.443 -0.0072 -0.0050  0.0628
30025W        W45642  14.637   7.730  11.946 -0.1027 -0.2155  0.0194
30026W        W45643   4.478  15.738   3.742  0.0783  0.3168  0.1637
30027W        W45644   4.060  10.666  13.291 -0.0962 -0.1086 -0.0041
30028W        W45645  14.064  16.638   4.365 -0.3401 -0.0318  0.1693
30029W        W45646  12.257  17.701   1.261 -0.1428 -0.0085  0.1830
30030W        W45647   1.168  12.659  16.586 -0.0501 -0.1940 -0.1951
30031W        W45648   4.600   4.291   3.562  0.1908 -0.0076 -0.1344
30032W        W45649  12.089  11.306  12.007  0.0727  0.1096 -0.1149
30033W        W45650   0.593   0.784   0.485 -0.3676 -0.1476 -0.1029
30034W        W45651   5.916  13.505   1.143  0.3050  0.1765 -0.2798
30035W        W45652  14.721  15.153  13.209 -0.2621  0.1381 -0.0497
30036W        W45653   7.901   4.947  11.624 -0.2261 -0.3325  0.1693
30037W        W45654   4.521   5.915  14.409  0.4056  0.3678 -0.2586
30038W        W45655   4.089  15.720   1.672  0.2540 -0.0490 -0.3192
30039W        W45656   5.412   9.341  13.806 -0.1327  0.4148 -0.0474
30040W        W45657  13.942  15.253   5.721 -0.1683 -0.2162  0.1713
30041W        W45658   8.475   6.126  14.110  0.0599  0.1678 -0.1089
30042W        W45659  14.497   9.812  12.347 -0.2541 -0.0571  0.3389
30043W        W45660  13.716  13.072   3.474  0.0514 -0.1299 -0.1718
30044W        W45661  15.685  15.748  14.819 -0.3300  0.2585  0.3596
30045W        W45662  12.649   9.339  14.088 -0.3384 -0.1151 -0.1312
30046W        W45663  16.938  15.248   4.304  0.3648 -0.1102  0.0106
30047W        W45664   7.717  10.623   2.456  0.1833  0.0824 -0.0366
30048W        W45665  16.980  11.862   1.098  0.1652  0.1373 -0.0257
30049W        W45666  12.026  15.159   2.670  0.1990  0.1147  0.0164
30050W        W45667   4.492  12.680  16.391 -0.0159  0.0673 -0.0701
30051W        W45668  16.626  13.568   3.151  0.2066  0.2986 -0.2526
30052W        W45669   7.537   7.994   6.624 -0.2838 -0.3253  0.0253
30053W        W45670  13.045   5.579   3.355  0.4024 -0.0750  0.0335
30054W        W45671   9.345  16.919   5.750 -0.0885 -0.2410 -0.0143
30055W        W45672  12.076   7.217  15.589  0.0671  0.3799  0.1942
30056W        W45673   4.288   9.857  13.578  0.1104  0.1463 -0.2007
30057W        W45674  17.588   0.432   5.326 -0.3059 -0.1768 -0.1986
30058W        W45675  15.830  15.475  12.335 -0.0751  0.1056  0.2786
30059W        W45676  16.439  17.182  11.335 -0.1719  0.2402 -0.5339
30060W        W45677  13.167  12.876   2.492  0.2218 -0.0461  0.0995
30061W        W45678   7.811  10.130   0.403  0.2971  0.0498 -0.2265
30062W        W45679   9.925  10.871   2.073 -0.1303  0.1665 -0.0603
30063W        W45680   5.106  14.673  11.715  0.0906 -0.1795 -0.0793
30064W        W45681  12.672   5.960  11.935 -0.1242 -0.1237 -0.0297
30065W        W45682   8.104   0.992  16.509  0.3376  0.0226 -0.3341
30066W        W45683  11.939   3.150   3.750 -0.0869 -0.1630 -0.1942
30067W        W45684   2.659  13.319  13.163 -0.1290  0.2153  0.1619
30068W        W45685  17.009   3.256  11.303  0.1192 -0.1018  0.1753
30069W        W45686  17.537   7.664  16.253  0.0907  0.0770  0.0930
30070W        W45687   3.230   0.113   4.455 -0.1431  0.0348 -0.0408
30071W        W45688   2.267   1.025   2.638 -0.1198 -0.2147  0.1705
30072W        W45689   0.575  15.059   0.959  0.5027 -0.2814  0.2353
30073W        W45690   4.916   8.789   1.880  0.1232 -0.1169  0.1711
30074W        W45691  11.033   6.203  12.405  0.1224  0.0999 -0.0907
30075W        W45692  15.064  17.356   5.550  0.0646  0.0871 -0.1811
30076W        W45693  11.227  15.631  11.625 -0.0104 -0.3553 -0.2110
30077W        W45694   8.298   0.177   2.873  0.3609  0.0122  0.2140
30078W        W45695  15.725  14.370  16.525  0.1369  0.0802 -0.1729
30079W        W45696  15.046  14.288  16.722 -0.1005  0.0490 -0.0098
30080W        W45697   3.115  11.250  13.169 -0.2096  0.1296 -0.0239
30081W        W45698  15.655   4.637   3.375  0.2262  0.0378 -0.3846
30082W        W45699   6.549  12.513   0.313 -0.0287  0.0748  0.1152
30083W        W45700  10.173   1.476  14.470  0.2699 -0.0200  0.2845
30084W        W45701   6.857  17.728  13.998 -0.2228 -0.3740 -0.3321
30085W        W45702   4.860  16.072  13.479  0.1052 -0.0065 -0.0708
30086W        W45703  10.945   0.606   3.119 -0.1958  0.2262 -0.2075
30087W        W45704  15.592  13.419   1.695 -0.2935  0.0432  0.0925
30088W        W45705   5.917  17.602   3.507 -0.3533 -0.0359  0.0931
30089W        W45706  13.097  11.080  13.729 -0.1992 -0.1648  0.0683
30090W        W45707   7.745  13.411   4.020  0.1124 -0.1134 -0.2142
30091W        W45708   4.527   6.886   4.506 -0.0898 -0.1362  0.3434
30092W        W45709   9.436   0.970  13.944 -0.1653  0.0769 -0.0965
30093W        W45710   4.329   0.557   2.417  0.0703 -0.1847  0.0546
30094W        W45711  13.122   0.253   5.322 -0.2553 -0.3926  0.1310
30095W        W45712  13.002   2.251  14.066 -0.1705 -0.2228  0.0949
30096W        W45713   4.405  15.313   1.632 -0.2036  0.2565  0.1579
30097W        W45714   6.082  12.434   3.600  0.0330  0.1831  0.0126
30098W        W45715   7.754   3.085   5.571 -0.3210  0.0095  0.0515
30099W        W45716   4.232   0.224  15.389 -0.1169  0.4492  0.3366
30100W        W45717   7.278  17.841  11.300  0.1017  0.3550  0.0648
30101W        W45718  14.186   1.297  12.974 -0.0628  0.0222  0.1590
30102W        W45719   9.011   6.346  15.426  0.0415  0.0022  0.1426
30103W        W45720  17.728   6.679  15.690  0.2438 -0.0511  0.1856
30104W        W45721  11.201  15.923  16.561  0.0254 -0.0914  0.0071
30105W        W45722  15.731   1.146  16.782  0.2034  0.0222 -0.1765
30106W        W45723  15.362   4.649  16.287 -0.2850  0.1256 -0.1649
30107W        W45724   9.528  12.495   1.291 -0.1469  0.5339  0.1558
30108W        W45725   7.279   2.248   3.465  0.2624  0.1284 -0.0721
30109W        W45726  11.838   0.712  14.980  0.0975  0.0082 -0.1825
30110W        W45727   9.475   6.063  13.481 -0.1869 -0.4108 -0.1149
30111W        W45728  11.176   3.801  13.809  0.3244 -0.0200  0.0545
30112W        W45729  16.253   4.383   4.180  0.0792 -0.0587 -0.0025
30113W        W45730  17.802   7.896  13.541  0.4764 -0.1072 -0.1802
30114W        W45731   9.218   3.588   1.794  0.0062 -0.1735 -0.0957
30115W        W45732   4.487   8.132   2.240 -0.0179 -0.3821 -0.0897
30116W        W45733   1.530   8.799   0.409  0.0863 -0.0334  0.1485
30117W        W45734   4.618  14.825  12.045 -0.0095  0.2671  0.2034
30118W        W45735   2.029  16.482   2.721 -0.1881 -0.1199  0.2115
30119W        W45736  12.440   1.025  15.589  0.1058 -0.1369  0.0205
30120W        W45737  12.645   4.044  15.311 -0.2456  0.1937  0.1077
30121W        W45738   7.029   4.321   4.726 -0.0945 -0.0931  0.0652
30122W        W45739  13.200   4.728  12.145 -0.3969  0.1173 -0.1899
30123W        W45740  10.977  10.668  14.873 -0.0998 -0.2414 -0.0157
30124W        W45741   5.351  17.477   1.457  0.0787 -0.5136 -0.0530
30125W        W45742  10.278  10.008  16.567  0.0410  0.0015  0.0232
30126W        W45743  17.256  10.372   2.807  0.2204  0.2879  0.1868
30127W        W45744  14.651   9.148  12.796 -0.0838  0.1818 -0.3845
30128W        W45745  15.588  12.379  14.291 -0.3351  0.1414 -0.0842
30129W        W45746   0.445   2.174   0.266  0.0171 -0.3837  0.1084
30130W        W45747  14.981   5.365  14.841 -0.3177 -0.0462  0.0430
30131W        W45748  13.404  17.528  14.779 -0.3334  0.1001  0.2763
30132W        W45749   9.437   1.069  16.337 -0.4818 -0.1604  0.0478
30133W        W45750   6.837  14.908   4.987  0.1074 -0.0281 -0.1902
30134W        W45751  10.664   7.785   4.073  0.0451 -0.0789 -0.0377
30135W        W45752   4.714  16.699   1.177 -0.0442 -0.1209  0.3136
30136W        W45753   0.357  11.557   4.540 -0.1939 -0.2558 -0.0789
30137W        W45754  16.394   7.317  14.913  0.0800  0.0793 -0.1905
30138W        W45755  16.599  16.677  12.202  0.0909  0.2970  0.1569
30139W        W45756   2.154  11.610   3.348 -0.0942 -0.0544  0.2875
30140W        W45757   1.492  15.997   3.087 -0.0395  0.1202 -0.0678
30141W        W45758  15.564   7.935  15.520  0.2101 -0.0614  0.0680
30142W        W45759  12.072   9.686   0.308 -0.0960  0.1497 -0.2006
30143W        W45760  15.967  16.121  12.298 -0.4699  0.2226 -0.2272
30144W        W45761   0.211  12.372   5.876  0.3269 -0.2191 -0.0473
30145W        W45762   7.967  12.381   3.037 -0.2032  0.0671  0.3935
30146W        W45763   2.600  10.290  14.408 -0.2364  0.2397 -0.2967
30147W        W45764   7.320   5.612  15.532 -0.0707  0.0046 -0.0038
30148W        W45765   5.252  17.478  15.548 -0.4224  0.0385 -0.2454
30149W        W45766   9.642   0.094   2.066 -0.0603  0.2856 -0.0485
30150W        W45767   2.884  15.604   0.608 -0.0955  0.3348 -0.0310
30151W        W45768  14.370   3.162  16.459  0.2204  0.0860 -0.0469
30152W        W45769  16.998  14.127   1.516 -0.1020 -0.1283  0.3134
30153W        W45770  12.905   4.676   3.420  0.1865  0.3922  0.0042
30154W        W45771   5.440  11.261   3.535  0.2252  0.0855  0.3275
30155W        W45772  12.338   9.671   3.515 -0.0066  0.1474 -0.2568
30156W        W45773   6.639  10.103  13.032 -0.1422 -0.2547  0.2029
30157W        W45774   3.026   9.250   3.291 -0.0087 -0.0997 -0.2597
30158W        W45775  10.819  17.588  14.913 -0.0242 -0.1172 -0.0636
30159W        W45776  10.252   8.591   3.723  0.2429  0.1534  0.0876
30160W        W45777  17.832   0.522   0.201 -0.1937  0.1122  0.1500
30161W        W45778   7.697   9.179   1.995  0.2204 -0.2889 -0.0209
30162W        W45779   8.949   8.691   5.037  0.2487 -0.3824 -0.0264
30163W        W45780   2.863  11.773  13.510  0.1396  0.0378 -0.0402
30164W        W45781   1.531  11.769   1.084 -0.0336  0.1646  0.0238
30165W        W45782   1.103   2.830  15.547 -0.3165 -0.0695 -0.1318
30166W        W45783  16.920   4.114   4.895  0.2950  0.2639 -0.0570
30167W        W45784   3.411   9.259   4.742 -0.1998 -0.0039 -0.3812
30168W        W45785  16.750  10.279  16.226  0.2279 -0.0753 -0.1964
30169W        W45786   3.511  14.911  15.492 -0.0576  0.2296  0.3919
30170W        W45787  17.424  13.626  10.291  0.1508  0.0394  0.0094
30171W        W45788   0.078  10.057   1.383  0.0080 -0.1713  0.1205
30172W        W45789   5.433   6.455   2.941  0.0420  0.2778 -0.1708
30173W        W45790   6.079   5.756   4.741 -0.1734  0.1047 -0.1140
30174W        W45791   8.499   0.940  13.123  0.0263 -0.1712 -0.2099
30175W        W45792   9.878  10.882   6.201  0.1657 -0.1248  0.0530
30176W        W45793   8.040   8.262   1.184  0.0116  0.3080 -0.0487
30177W        W45794   5.761  14.875   0.555  0.3867  0.0509  0.2787
30178W        W45795  14.510   5.239  15.022 -0.0587 -0.1369  0.0294
30179W        W45796  12.007  11.260  16.792  0.1378  0.1302 -0.4197
30180W        W45797   1.485   6.766   1.052 -0.2572  0.0585 -0.3330
30181W        W45798   1.259   6.137  12.108  0.1648  0.1534  0.0160
30182W        W45799  15.730   9.155   4.215 -0.2820  0.0329 -0.0854
30183W        W45800   5.378  17.426   1.963  0.2369 -0.1783  0.1375
30184W        W45801   0.906   8.120   1.069  0.0277 -0.0330  0.2163
30185W        W45802  12.431  16.227  14.819 -0.0868 -0.1654 -0.0661
30186W        W45803  13.021  12.896  12.065  0.3420  0.1320 -0.0999
30187W        W45804   5.446  12.297   2.666  0.0827 -0.0651  0.0105
30188W        W45805  11.843  13.503  16.675  0.2284  0.1163  0.2375
30189W        W45806   4.955  12.680  14.829 -0.0497 -0.0785 -0.2020
30190W        W45807  15.365  15.431  16.234 -0.0003 -0.1597 -0.0168
30191W        W45808   2.020   6.780   0.806  0.1704 -0.1121 -0.0365
30192W        W45809   9.571  14.229  12.070  0.3647  0.0531 -0.3342
30193W        W45810   7.168   0.788   4.419 -0.0439  0.0041  0.2998
30194W        W45811   8.141   5.808   4.774  0.0935  0.1115  0.0325
30195W        W45812   7.284  12.627  13.143  0.2386  0.0096  0.0661
30196W        W45813  11.132  12.593   0.132 -0.0023 -0.1636 -0.0456
30197W        W45814  15.019   9.552  11.652 -0.0155 -0.0011 -0.1779
30198W        W45815   3.188   7.503   4.386  0.1686 -0.0210  0.0221
30199W        W45816   0.070   9.071  16.310  0.0435  0.2352 -0.1067
30200W        W45817   4.809   0.861   2.317 -0.1449 -0.0853 -0.0064
30201W        W45818   9.462   0.149  14.934  0.0809  0.1048 -0.1209
30202W        W45819  11.231  10.509   2.396 -0.3544  0.0038 -0.3512
30203W        W45820  12.789   7.344  14.198  0.3426 -0.1407  0.2927
30204W        W45821   5.541   4.442   0.356  0.1277 -0.1535  0.1656
30205W        W45822   8.256   8.402  16.218  0.4154 -0.1433 -0.0508
30206W        W45823   7.700   8.964   3.099 -0.1759 -0.2148 -0.1126
30207W        W45824   8.604  14.823  13.574 -0.0390  0.3353  0.2272
30208W        W45825   4.918  10.422   1.246 -0.1992 -0.0381 -0.2921
30209W        W45826  17.236  17.655  15.011  0.1750 -0.2971  0.0080
30210W        W45827   1.295   9.130   3.587 -0.0683  0.3341  0.2414
30211W        W45828   7.095   1.218   6.451  0.4596  0.0530  0.0941
30212W        W45829  17.062  13.984  15.264  0.0650 -0.0154  0.3148
30213W        W45830  12.478   6.121   1.135  0.1055  0.0102 -0.1268
30214W        W45831  15.954  13.259  12.476 -0.0434  0.2091 -0.0431
30215W        W45832   8.881  15.272   3.095 -0.0434  0.1114  0.0014
30216W        W45833   8.281   3.000  14.120  0.1063  0.0322 -0.0985
30217W        W45834  15.351   2.508  13.142  0.0510  0.1903 -0.1234
30218W        W45835   6.342   1.308   5.964  0.0751 -0.0798  0.1245
30219W        W45836   8.110   3.495   3.931  0.0290 -0.1001  0.0483
30220W        W45837  13.507  17.144   2.236 -0.0129 -0.0641  0.1157
30221W        W45838   6.504  14.152  16.025 -0.0727  0.2934 -0.1717
30222W        W45839   0.126  12.484  13.858 -0.0275  0.2241  0.1822
30223W        W45840   6.687   4.510  16.268  0.2141  0.1248 -0.1673
30224W        W45841   0.067   2.317   5.306  0.0984  0.2426 -0.1896
30225W        W45842   6.497  13.487   4.751  0.1028 -0.0302  0.0992
30226W        W45843   1.496   9.300  13.999 -0.0016 -0.2083  0.1519
30227W        W45844   1.829   8.882  12.211 -0.3501 -0.2110 -0.0749
30228W        W45845   8.310  17.018  13.830  0.1421 -0.0393 -0.1905
30229W        W45846   6.366  11.567   3.213  0.2426  0.0864  0.1466
30230W        W45847   4.469  11.738   0.827  0.0434 -0.1167 -0.3031
30231W        W45848   8.644   9.452  16.016  0.2389  0.4050 -0.2997
30232W        W45849   9.854  12.984  11.476 -0.0237  0.3132  0.0449
30233W        W45850  13.434   6.044   6.590 -0.0783  0.2558 -0.2636
30234W        W45851  13.211   5.453  12.998 -0.0379 -0.1924 -0.0502
30235W        W45852   2.421  11.327   2.603  0.2350 -0.6833 -0.1824
30236W        W45853  14.753  10.956   5.025 -0.0656  0.0114  0.1752
30237W        W45854  10.826   3.905   3.220  0.3244 -0.2704  0.1467
30238W        W45855  15.667   7.068   1.076 -0.1266 -0.4411  0.1165
30239W        W45856   1.099   3.546   0.123 -0.0328 -0.0349 -0.3594
30240W        W45857   3.947  12.036  15.148 -0.0819  0.0661  0.0909
30241W        W45858  11.169  17.081  16.238  0.1644 -0.1726  0.2199
30242W        W45859  16.887   1.280   5.505 -0.0371 -0.5150  0.1823
30243W        W45860  13.883   4.874  12.729  0.0613 -0.2982 -0.0945
30244W        W45861  11.371  10.977  14.738 -0.0725 -0.1591  0.0071
30245W        W45862  14.218   3.222   3.252  0.1423 -0.0518  0.1002
30246W        W45863   3.183  12.562   4.882 -0.2506  0.0286 -0.1108
30247W        W45864   6.956   4.442   3.539 -0.2059  0.2370  0.2643
30248W        W45865   6.354   6.848   3.195  0.2692  0.1705 -0.0299
30249W        W45866  13.324   1.826   2.489  0.1020  0.0234 -0.1243
30250W        W45867  14.886  15.041  11.262 -0.0541 -0.2187 -0.1373
30251W        W45868  11.587   2.936   4.218  0.0110 -0.0577  0.1821
30252W        W45869   4.457  11.555  12.902  0.0777  0.1422 -0.1907
30253W        W45870  13.175  16.659  14.912 -0.0665 -0.3500 -0.1355
30254W        W45871   3.974   2.203   0.642  0.1229  0.2543 -0.0398
30255W        W45872   4.530  14.893  13.156  0.2056  0.0567 -0.0914
30256W        W45873  11.183  14.237   5.712  0.0182 -0.0029  0.1792
30257W        W45874   1.560  17.192  12.795  0.1115  0.2620  0.3044
30258W        W45875  12.427  10.529   1.437  0.3471  0.2216 -0.2367
30259W        W45876   4.878   2.854  14.020  0.0133 -0.1896 -0.3719
30260W        W45877   4.730  11.598  12.416  0.2366  0.1933 -0.0345
30261W        W45878  13.412   8.543  11.948  0.3430 -0.3307 -0.2352
30262W        W45879   8.854  14.832   1.286 -0.2366  0.2009 -0.2048
30263W        W45880  13.559  16.624  14.576 -0.0421 -0.0162  0.0929
30264W        W45881   7.721   1.308  16.497 -0.2261 -0.0328 -0.2664
30265W        W45882   7.326   1.034  11.704  0.0281  0.1382  0.1334
30266W        W45883   9.301  15.603  11.423  0.0237 -0.1647 -0.2926
30267W        W45884  13.358   0.720   1.403 -0.1631  0.1813  0.0867
30268W        W45885   1.837   6.021   4.272  0.1297  0.0943  0.0872
30269W        W45886  12.180  12.681   2.634 -0.0448 -0.0211 -0.1574
30270W        W45887  16.666   3.158   2.903 -0.2291  0.0275  0.0636
30271W        W45888   2.771   4.449   3.636 -0.0855  0.0438 -0.1457
30272W        W45889   8.217  16.515   1.334 -0.0089  0.2966 -0.1603
30273W        W45890   5.168  10.659   0.838 -0.0568  0.2200  0.2481
30274W        W45891   9.176   9.973  12.554  0.1518  0.0644 -0.0249
30275W        W45892  17.312   7.026  15.158 -0.0408 -0.0896  0.5596
30276W        W45893   4.981   1.156  16.134 -0.2702  0.0356  0.0190
30277W        W45894   5.728   0.319   1.713  0.2363 -0.1167  0.0621
30278W        W45895   6.402   7.207   1.123  0.0954  0.2248  0.0641
30279W        W45896   1.591   6.770   4.690 -0.0040  0.2087 -0.2322
30280W        W45897   2.020  16.720  16.248  0.1889  0.0051 -0.0101
30281W        W45898   2.704   1.221   2.297 -0.0006  0.0637  0.0989
30282W        W45899   6.636  14.644   1.775  0.2118 -0.1786  0.1763
30283W        W45900  16.379  16.918   4.850 -0.3404 -0.3752  0.0200
30284W        W45901   0.116   2.543  11.247  0.0519 -0.0955 -0.0801
30285W        W45902  14.706   1.267   2.504 -0.2277 -0.0374  0.1091
30286W        W45903  14.867   2.967   4.852  0.0794 -0.0357  0.5071
30287W        W45904   0.828  17.318  15.857  0.0978  0.0765  0.2967
30288W        W45905  14.140  12.341  13.919  0.0960 -0.0109  0.1946
30289W        W45906  12.893   9.676   3.179  0.1310  0.1955  0.0232
30290W        W45907  17.239  10.701   4.878  0.2866  0.2463 -0.1094
30291W        W45908   5.735  13.037  14.052  0.1198 -0.0172  0.1338
30292W        W45909   2.677  16.785  10.635  0.2208  0.1068 -0.0132
30293W        W45910  13.641  17.258   2.789  0.0485  0.2054 -0.1669
30294W        W45911  11.243  16.945   3.659 -0.1762  0.0476 -0.3147
30295W        W45912   8.491  14.373   2.108  0.3608 -0.1725  0.1382
30296W        W45913  17.789  13.968  16.035 -0.1445  0.0919 -0.1451
30297W        W45914   1.275  13.166   1.742  0.0289 -0.0398  0.0201
30298W        W45915  10.027  14.633   3.916 -0.1603 -0.1112 -0.1882
30299W        W45916  10.416   7.859   2.322  0.0917 -0.0628 -0.2368
30300W        W45917   5.023   4.720   3.965 -0.1413  0.1392 -0.1122
30301W        W45918  12.332  12.228  13.062  0.2462  0.0559  0.0339
30302W        W45919   0.882   0.443  14.454  0.2074 -0.1973 -0.0858
30303W        W45920   9.309   3.174  13.599 -0.1009 -0.1478  0.3137
30304W        W45921   6.260  15.405  15.722 -0.1273 -0.0580  0.0760
30305W        W45922  10.183   1.772  10.717  0.1500 -0.2044 -0.0076
30306W        W45923  16.466   2.097   5.380 -0.2364  0.2209 -0.0509
30307W        W45924   6.721  14.898   2.590  0.2627 -0.2575  0.0525
30308W        W45925   1.834  16.647   0.754  0.2274 -0.1935 -0.0100
30309W        W45926   9.076  10.188  11.115 -0.1515  0.1121 -0.0173
30310W        W45927   4.637   9.365  12.386  0.3499 -0.2837 -0.1048
30311W        W45928   3.892   4.721  15.090 -0.3108  0.2726  0.0281
30312W        W45929   1.651  11.445  14.853 -0.1003 -0.1422  0.1106
30313W        W45930  13.291   2.696   2.218 -0.2951  0.1999 -0.0832
30314W        W45931   0.539  15.870   1.525 -0.0525  0.1221 -0.0793
30315W        W45932  13.293  15.936   5.173  0.1129  0.0323  0.0511
30316W        W45933   6.523  10.435   1.998  0.0756 -0.1653  0.0960
30317W        W45934   0.076   8.957  11.624 -0.1066  0.0214  0.1369
30318W        W45935  11.441   8.183  16.577  0.0821  0.4157  0.1365
30319W        W45936   8.135   4.697   3.479  0.0700  0.0475  0.2891
30320W        W45937  12.742  10.715  14.810  0.1695 -0.0545 -0.0028
30321W        W45938   6.502   8.474  14.922 -0.1658 -0.4155 -0.3770
30322W        W45939   6.690   1.287   1.190  0.2895  0.2735  0.3001
30323W        W45940  14.558  14.569  14.224  0.2607 -0.2329 -0.0095
30324W        W45941  10.644  12.314   1.291  0.0319  0.0267  0.2417
30325W        W45942   1.982  13.683  11.305  0.1951 -0.0346  0.0221
30326W        W45943   3.167   3.392  13.887 -0.0122 -0.2432  0.0497
30327W        W45944   3.862  16.129  12.109 -0.3112  0.0524  0.3683
30328W        W45945  14.388   5.467   0.862  0.2228 -0.0024 -0.1678
30329W        W45946  14.789  11.412  12.277 -0.4242  0.0562 -0.0937
30330W        W45947   9.633   1.939   5.912 -0.0320 -0.1583 -0.3967
30331W        W45948  10.445   2.557  11.773 -0.1774 -0.2204  0.1219
30332W        W45949   7.082  11.058  11.667 -0.3523 -0.1239 -0.1340
30333W        W45950  11.822  16.646   0.512 -0.0739 -0.2123  0.2593
30334W        W45951  15.312   4.646  13.946  0.0178  0.0000 -0.3903
30335W        W45952   0.611   6.061   0.319 -0.0487 -0.0178  0.3109
30336W        W45953   1.566  11.930  15.071 -0.2887  0.1671 -0.1348
30337W        W45954   4.529   1.131  13.528  0.1753  0.1007 -0.0354
30338W        W45955   4.368   8.311   4.781  0.1368  0.1221 -0.2376
30339W        W45956  13.905  15.049  15.364 -0.5898 -0.0537  0.1037
30340W        W45957  14.313   6.228   5.416  0.3120  0.0819  0.3918
30341W        W45958   5.890   8.000  15.485  0.0054 -0.1833 -0.1292
30342W        W45959   5.550  14.219   3.815 -0.1283  0.2232 -0.0052
30343W        W45960  13.621   5.736  12.350 -0.2662  0.1116  0.2279
30344W        W45961   1.222   1.872   4.673 -0.2026  0.0209 -0.1321
30345W        W45962   1.034  10.925   2.331  0.2098 -0.1976  0.1151
30346W        W45963   6.575  10.006   5.112 -0.2483 -0.0427  0.0399
30347W        W45964   6.558  15.885  15.603  0.1648  0.0587 -0.0689
30348W        W45965   3.572  15.081  12.189  0.1486 -0.1203 -0.1982
30349W        W45966  14.057  10.371   4.915  0.2513 -0.0828 -0.2423
30350W        W45967  13.039   1.315  13.424 -0.0495 -0.0313 -0.1174
30351W        W45968   4.684   3.734   3.461 -0.2119 -0.0339 -0.1411
30352W        W45969   9.197   6.838  11.866  0.1351  0.1535  0.2725
30353W        W45970  13.582   1.506  16.009  0.1029 -0.1551  0.0694
30354W        W45971   1.145   2.107  13.289  0.3887 -0.0370  0.2579
30355W        W45972   9.110  12.246  16.775  0.4738  0.2421 -0.1803
30356W        W45973   8.046   7.965  13.684  0.0053 -0.1551  0.4202
30357W        W45974   1.749  16.794   1.291 -0.1038  0.2387  0.0622
30358W        W45975   5.629   2.129  14.233 -0.0744 -0.0525 -0.0001
30359W        W45976  16.267   1.979  14.786  0.0547  0.0977 -0.2850
30360W        W45977   6.120   9.215   3.704 -0.0060  0.0642 -0.3966
30361W        W45978   5.763   7.184   5.538 -0.0774 -0.2545 -0.2052
30362W        W45979  17.139  15.671   3.512 -0.0460  0.2540 -0.1161
30363W        W45980  11.709  17.292   5.810 -0.0746  0.1910 -0.1027
30364W        W45981   9.006  12.413  14.297  0.1550  0.2013  0.2514
30365W        W45982   3.894  11.930   3.755 -0.1684 -0.0746  0.1412
30366W        W45983  11.118   0.196  12.015 -0.0791 -0.2642  0.1001
30367W        W45984   3.262  16.704  14.420 -0.2038  0.1993 -0.2706
30368W        W45985   0.923   4.752   0.025 -0.2355 -0.0107  0.1486
30369W        W45986   1.622  11.100   3.757 -0.0206  0.3891  0.1230
30370W        W45987  16.586   8.544   1.497 -0.1428 -0.2019  0.0661
30371W        W45988   3.518   1.294   0.728  0.2346 -0.0928  0.2567
30372W        W45989  13.977  17.209  11.991  0.0859 -0.1115 -0.0218
30373W        W45990  12.364  13.859   5.601  0.1306  0.2221 -0.0834
30374W        W45991  13.993   4.028   2.006 -0.0010 -0.0655  0.2558
30375W        W45992  10.580   7.234  13.212  0.0829 -0.0910 -0.0095
30376W        W45993  10.913   5.135   1.393 -0.1306 -0.0552  0.1720
30377W        W45994   8.672   8.211  16.536 -0.1434 -0.1260 -0.1151
30378W        W45995   3.516   5.838  15.344  0.2709 -0.2817  0.0124
30379W        W45996  12.855   9.561  15.503 -0.1738 -0.1091  0.1646
30380W        W45997  15.173  13.962   0.796  0.3828 -0.2232 -0.0168
30381W        W45998  16.411   8.982   6.164  0.0911  0.0236  0.0024
30382W        W45999  10.652   0.299  11.931 -0.0200 -0.0040 -0.1710
30383W        W46000  14.882  15.649  13.305  0.1258 -0.2483 -0.5218
30384W        W46001   4.372   5.304   5.786 -0.0441  0.3184  0.3156
30385W        W46002   0.095   0.316   5.762  0.1445  0.2137  0.1472
30386W        W46003  17.072   1.953  12.181  0.2488  0.0859  0.0817
30387W        W46004   1.732  14.539   4.805  0.0593  0.2066  0.0272
30388W        W46005  12.734   2.566  11.774  0.0397 -0.0226 -0.0708
30389W        W46006  17.438  14.287   3.014  0.1981 -0.2324  0.2071
30390W        W46007   9.137  17.577   6.103 -0.1122  0.0456 -0.1322
30391W        W46008  13.218   4.206  12.462 -0.0850  0.1387 -0.3788
30392W        W46009  12.171  11.487  16.298  0.0070 -0.1381 -0.3350
30393W        W46010  15.991  10.336  12.931  0.0234 -0.0261  0.1081
30394W        W46011  14.431   1.186   6.100  0.0666  0.1179  0.1879
30395W        W46012   9.453  12.655  15.359 -0.0414  0.1324 -0.2149
30396W        W46013  17.103  12.513   2.103  0.0981  0.1366  0.1249
30397W        W46014   2.115   5.394  15.432  0.1238 -0.1637 -0.0899
30398W        W46015   2.891  13.440  11.696 -0.0093  0.0791 -0.1014
30399W        W46016   4.457   6.432  13.397  0.2762 -0.2800  0.1100
30400W        W46017   6.093  14.764   1.628 -0.2045  0.2417  0.3284
30401W        W46018   1.140   2.584   2.995 -0.2144 -0.2212  0.2280
30402W        W46019   2.943  13.447   4.846  0.0798  0.1816 -0.1995
30403W        W46020   4.819   3.379   0.299 -0.1306 -0.3029  0.0515
30404W        W46021   5.672  13.360   3.312  0.1266  0.0727  0.3750
30405W        W46022   2.110   0.540   2.560 -0.0883 -0.0327  0.1698
30406W        W46023  14.840   5.394  16.147 -0.3740  0.2729  0.0507
30407W        W46024   9.177   9.998  13.116  0.1709 -0.1612  0.1497
30408W        W46025  15.943   5.063  15.670  0.4921  0.1176 -0.0800
30409W        W46026   0.057   4.910   4.849  0.0930  0.1887 -0.2991
30410W        W46027   6.924  13.324   0.824  0.0342  0.2254 -0.1339
30411W        W46028   1.429   9.323   4.859 -0.2964 -0.1709  0.1080
30412W        W46029   2.702   1.732  12.377 -0.0446 -0.0216 -0.1004
30413W        W46030  16.822   1.838  13.827  0.1869  0.0031  0.1564
30414W        W46031   2.519  12.763  12.055  0.1570 -0.2569 -0.1726
30415W        W46032   7.750   3.518   2.361  0.0599  0.0426 -0.3445
30416W        W46033   5.502  13.330  11.432 -0.0470  0.1134  0.1576
30417W        W46034   1.142  10.056  11.782 -0.1389 -0.1760 -0.1233
30418W        W46035   8.377   1.364  11.382  0.0223  0.2733  0.1639
30419W        W46036   6.312   1.668   1.232 -0.0811 -0.1779 -0.1151
30420W        W46037   3.852   1.427  16.116 -0.1791  0.2680  0.1733
30421W        W46038   0.300  16.362   1.155 -0.2041  0.0475  0.4521
30422W        W46039   8.168   7.032   0.651  0.1125 -0.1581  0.2470
30423W        W46040   8.198  17.386  10.449 -0.2166 -0.3534 -0.0834
30424W        W46041  14.554   7.208   3.869  0.0834 -0.4494  0.1333
30425W        W46042  12.573   1.263  16.767 -0.1864 -0.1243 -0.0913
30426W        W46043   2.291   4.700  16.519  0.1962 -0.3580  0.1017
30427W        W46044   7.621  13.001  10.791  0.1501  0.1084  0.2083
30428W        W46045   7.580  10.176  16.050  0.1378  0.0128 -0.1870
30429W        W46046  16.662  10.188  15.376 -0.2138 -0.0542  0.1991
30430W        W46047  11.251  12.340  15.171  0.1120 -0.3069 -0.0492
30431W        W46048  13.807  12.383  13.534  0.0274 -0.0667  0.1089
30432W        W46049   9.443  13.400  15.328 -0.1433 -0.1395  0.1396
30433W        W46050  17.152  14.466   1.180 -0.3154 -0.2802 -0.0277
30434W        W46051  17.806   7.952  15.733  0.4043 -0.2419  0.1836
30435W        W46052  10.385   8.278  14.308  0.2257  0.0201 -0.1501
30436W        W46053   9.259   2.800  12.493  0.2096  0.0561 -0.2531
30437W        W46054   3.651  10.454   3.402 -0.0976  0.2077 -0.0387
30438W        W46055  15.443  16.651   3.955  0.0154  0.2194  0.2066
30439W        W46056  11.327   1.638   4.372  0.0613 -0.0511 -0.1061
30440W        W46057   2.764   8.399   2.191  0.2215 -0.0417  0.1907
30441W        W46058   9.562   4.533   2.901  0.0086 -0.1925 -0.0809
30442W        W46059   3.910   4.934   0.811  0.1832  0.0457  0.3471
30443W        W46060   6.633  10.343   3.231  0.3633 -0.0113 -0.0945
30444W        W46061  11.183   5.875   3.064 -0.0947 -0.0821  0.3994
30445W        W46062   3.124   6.149  15.591 -0.0608  0.1591  0.1541
30446W        W46063  11.110   3.688   6.318 -0.3736 -0.4975  0.2308
30447W        W46064  12.606  12.462   2.285 -0.0026  0.0002  0.0400
30448W        W46065   2.567   3.839  15.875  0.0675 -0.0887  0.1114
30449W        W46066   2.282   3.003  11.777 -0.0672  0.4731 -0.0586
30450W        W46067   0.759  17.742   3.462 -0.0995 -0.2279 -0.0152
30451W        W46068  14.544  10.483  15.113 -0.2465  0.1854 -0.0520
30452W        W46069  14.903   8.175  13.487  0.3466  0.2042 -0.2949
30453W        W46070   3.361   2.259   5.979 -0.0075 -0.2169 -0.0481
30454W        W46071   1.537   3.175   5.582 -0.0688  0.0115  0.0440
30455W        W46072  17.062  16.270   1.788 -0.2297 -0.1173  0.0593
30456W        W46073   5.776   4.388  16.648 -0.3746  0.1035  0.3396
30457W        W46074  11.275   6.782  16.778  0.3235  0.2337 -0.1335
30458W        W46075  16.900   5.552   2.515 -0.0134 -0.3009 -0.0257
30459W        W46076   8.376   9.049   0.663 -0.1812  0.1326  0.0312
30460W        W46077   6.424   2.652  11.604  0.1436 -0.2244 -0.1187
30461W        W46078  11.901  16.583  15.954  0.0081 -0.1406 -0.1990
30462W        W46079  15.148  11.188   4.817 -0.0845 -0.0417  0.0702
30463W        W46080  14.606  15.025   3.992 -0.0917  0.0995  0.1618
30464W        W46081   6.420   3.904  11.452  0.0177  0.0744  0.1015
30465W        W46082   2.726   0.143   5.922  0.1337 -0.3752  0.0904
30466W        W46083   7.095   9.733  10.776 -0.0519 -0.0845  0.1642
30467W        W46084  11.426  12.934   6.245  0.2364 -0.0645  0.2209
30468W        W46085   0.928  14.377  15.754 -0.0200  0.0789  0.4870
30469W        W46086   1.890  13.638   1.183 -0.3518  0.0081 -0.0163
30470W        W46087  14.572   9.501  13.152  0.1268 -0.1062 -0.0060
30471W        W46088   9.922   6.055   4.662 -0.0398 -0.2658 -0.2020
30472W        W46089  14.546  12.046  15.264  0.0412 -0.1109 -0.0789
30473W        W46090   6.601  16.990   5.783  0.0840 -0.2517 -0.1818
30474W        W46091   8.712  10.876   2.535 -0.1814  0.1876 -0.1449
30475W        W46092   0.529  17.752  13.532 -0.0434  0.1775 -0.0215
30476W        W46093   8.316   2.667  12.152  0.1261  0.2276  0.0427
30477W        W46094   1.158   3.948   3.583 -0.1171 -0.0074 -0.4901
30478W        W46095   3.337   1.781  16.558  0.0040 -0.2834  0.2551
30479W        W46096   2.545   8.331  14.416  0.0786  0.2340  0.0913
30480W        W46097   6.794   3.068   0.052  0.1309  0.2448 -0.1923
30481W        W46098   2.345   4.229   4.912 -0.0501 -0.0766  0.0685
30482W        W46099   2.303   0.661  10.924 -0.1435 -0.1984  0.0766
30483W        W46100   0.185   6.742  16.829 -0.0365 -0.0188 -0.0701
30484W        W46101  12.233   9.419   5.759 -0.0645 -0.0433 -0.0332
30485W        W46102   3.341   0.947   1.560  0.2703 -0.1142  0.2215
30486W        W46103   5.607  15.081  12.262  0.2446 -0.2437  0.0922
30487W        W46104   2.247   5.353   4.035 -0.0243 -0.0549  0.1437
30488W        W46105   4.935  10.577  15.486  0.0482 -0.1426  0.3398
30489W        W46106  16.130  16.963   0.804  0.2520 -0.1528  0.0951
30490W        W46107   7.882   3.996  12.328 -0.2084  0.2325 -0.3304
30491W        W46108   2.107   5.310   0.647  0.2127 -0.2413  0.0452
30492W        W46109   0.042  10.827   5.631 -0.0995 -0.0194  0.1649
30493W        W46110   7.072   1.166  10.942 -0.0778  0.0773 -0.1588
30494W        W46111   1.511   7.743  12.885  0.0289  0.2663 -0.2702
30495W        W46112   4.029   9.792  14.815  0.2059 -0.0526  0.1235
30496W        W46113   5.538   5.206   4.404 -0.1717 -0.0578 -0.0132
30497W        W46114  16.806   5.818   4.903 -0.0495  0.0116 -0.2493
30498W        W46115   0.436   9.994  15.221  0.0278  0.0149  0.1085
30499W        W46116   5.090   6.895   6.606 -0.0932  0.1650 -0.2126
30500W        W46117  13.535  10.300  12.440  0.2013  0.0031 -0.2312
30501W        W46118  16.754   5.968  16.368 -0.0859  0.0565  0.1578
30502W        W46119   1.607   0.418   5.384 -0.0979 -0.3190 -0.2484
30503W        W46120  17.007   2.833  16.171  0.0042 -0.1689 -0.0441
30504W        W46121   3.438   0.929  13.752  0.0231  0.2559  0.2251
30505W        W46122  14.520   5.041  13.239  0.1038  0.0614 -0.2511
30506W        W46123  12.145   1.948  12.073  0.1839 -0.0610  0.1804
30507W        W46124   5.404   0.449   3.958 -0.2460  0.0607  0.0513
30508W        W46125   7.847  17.366  14.918 -0.1357  0.2168  0.1036
30509W        W46126  10.355  15.446  11.145 -0.0942 -0.0612 -0.0465
30510W        W46127   5.847   3.191  14.363  0.2615  0.1355  0.1520
30511W        W46128  17.002  11.973   5.192 -0.1649  0.3197 -0.3605
30512W        W46129   9.726   6.088  12.324  0.1749  0.1786  0.2165
30513W        W46130   2.210  13.246   4.326  0.1666  0.1514  0.3622
30514W        W46131   9.959   8.910   0.235  0.0746  0.0001 -0.0379
30515W        W46132  10.744  14.185   4.235 -0.2935 -0.0502 -0.0661
30516W        W46133   3.750   1.850   1.506 -0.2489  0.0361 -0.4232
30517W        W46134   1.969  10.090  14.697 -0.0028  0.0184 -0.1143
30518W        W46135   0.708   7.685  14.059 -0.1139  0.4122  0.1415
30519W        W46136  11.100   8.547   5.769  0.1433 -0.0230 -0.0636
30520W        W46137   5.314   1.584   0.749  0.1647  0.2456  0.3183
30521W        W46138  17.788  10.465   0.403 -0.0075 -0.0889  0.3229
30522W        W46139  10.750  12.455  16.680 -0.1063  0.1124  0.0452
30523W        W46140   6.749  14.696   1.072 -0.0936 -0.0719  0.0091
30524W        W46141  12.698   5.509  13.977  0.1781 -0.0982 -0.0512
30525W        W46142   6.684   5.065   3.039 -0.2069 -0.0987 -0.3222
30526W        W46143   8.510   2.801   0.537 -0.0147 -0.2787 -0.2697
30527W        W46144  16.257  11.387   5.451 -0.2829 -0.1558 -0.1996
30528W        W46145  15.267   8.002  16.495  0.0511  0.0699 -0.0783
30529W        W46146   2.632   4.702   0.833  0.2231 -0.1847 -0.0155
30530W        W46147   1.891   1.696   1.062  0.1286 -0.2580 -0.0890
30531W        W46148   4.781   6.379  12.014  0.1131 -0.2717  0.0206
30532W        W46149  11.074   3.166   3.966 -0.2863 -0.2203  0.2638
30533W        W46150  14.328  16.531  11.521 -0.2360  0.6034  0.2434
30534W        W46151   1.615  11.518  15.862 -0.2011 -0.1406 -0.2768
30535W        W46152   8.557  12.527   5.854  0.1820  0.1224 -0.0243
30536W        W46153  10.027   7.392  15.652 -0.0948  0.1557  0.0765
30537W        W46154   3.851  14.335  12.689  0.3173 -0.0517 -0.1440
30538W        W46155   0.269   3.517  13.252  0.0466  0.2032  0.0325
30539W        W46156  13.940   1.300   0.808  0.0083 -0.0262 -0.1203
30540W        W46157   1.561   6.300   5.173 -0.0634  0.1290 -0.2471
30541W        W46158   6.764   9.504   2.241 -0.0973  0.0875 -0.1739
30542W        W46159   5.445   2.003   0.910  0.0767  0.0512 -0.1577
30543W        W46160  17.802   3.348  13.795 -0.1641  0.1467 -0.4141
30544W        W46161  14.741  10.011  15.523 -0.0372 -0.0443  0.1246
30545W        W46162   7.128   5.985   5.735 -0.0565 -0.0502 -0.1111
30546W        W46163   0.281  15.569  16.115  0.1800  0.1085  0.1594
30547W        W46164  16.987   9.686   5.712  0.0977  0.0239 -0.0090
30548W        W46165   6.499  15.768  11.944  0.0710  0.3214 -0.0500
30549W        W46166  11.922   7.529  16.694 -0.0652  0.1505 -0.4361
30550W        W46167  16.852   3.452  13.264  0.2275  0.0766  0.0177
30551W        W46168  15.094  10.655   4.768 -0.3120 -0.0361 -0.1455
30552W        W46169   7.169   3.767  10.474 -0.2034 -0.0869  0.1153
30553W        W46170  14.074   7.981  14.603 -0.0156 -0.1415  0.2369
30554W        W46171  11.935  15.675   1.462  0.0277  0.1309  0.0026
30555W        W46172   6.131  13.380  15.698  0.1786  0.0996  0.2351
30556W        W46173   0.347  10.248   2.168 -0.2007  0.0343 -0.0058
30557W        W46174  14.422  14.803   2.025 -0.1464 -0.0807  0.0654
30558W        W46175  10.640   6.867   3.844 -0.1890  0.1419 -0.1602
30559W        W46176   2.162   3.824   6.094 -0.0143 -0.3069  0.0295
30560W        W46177   5.189   6.164  13.865  0.2936  0.2333  0.0488
30561W        W46178   5.420  14.528   1.219 -0.0965  0.0873  0.0260
30562W        W46179   7.137   2.157   2.472 -0.0845 -0.3155 -0.1010
30563W        W46180  14.167  16.384   5.432  0.0848 -0.1323 -0.0332
30564W        W46181   8.914   4.061   1.315  0.0184 -0.2666  0.0315
30565W        W46182   3.934   2.339  13.589  0.3128  0.0779 -0.2301
30566W        W46183  14.264   5.294   5.871  0.0456 -0.3222 -0.2154
30567W        W46184   6.009   0.921  12.956  0.1149 -0.0866 -0.1465
30568W        W46185   3.955  11.122  13.613  0.0438  0.3239 -0.1140
30569W        W46186   9.523   7.554   5.674 -0.0363 -0.0629 -0.0220
30570W        W46187  16.027  10.415   3.697 -0.2259  0.1828  0.0253
30571W        W46188   6.109  14.476  14.865  0.1209 -0.1669 -0.0712
30572W        W46189   0.464  16.112  14.351 -0.0097  0.3282 -0.0110
30573W        W46190   1.924  13.406  13.701 -0.1408  0.0528 -0.0678
30574W        W46191  16.006  11.506   4.546  0.3504 -0.0802  0.1106
30575W        W46192   8.188  13.267   1.106  0.0992 -0.0626  0.0220
30576W        W46193   0.862   3.465  13.545 -0.0156  0.0247 -0.2100
30577W        W46194   1.054   2.995  13.303 -0.0891  0.1630 -0.3301
30578W        W46195   1.125   7.152   4.937  0.2623 -0.2075  0.1146
30579W        W46196   9.281  12.370  16.281  0.2623 -0.0033  0.0438
30580W        W46197   7.678   5.456  15.158 -0.0935  0.1861  0.0449
30581W        W46198   6.533   5.508   4.441 -0.0153 -0.2682  0.2271
30582W        W46199  14.005  16.484   3.650  0.0711  0.0372 -0.0739
30583W        W46200  16.016   6.584   4.311  0.0976  0.0692 -0.1425
30584W        W46201   9.156  15.865   1.486  0.2259  0.0257  0.2729
30585W        W46202   3.056   6.873   1.081 -0.5477  0.0814 -0.0518
30586W        W46203  15.588   2.457  12.670 -0.0616  0.0159 -0.0710
30587W        W46204  14.429   1.136  16.132 -0.2671  0.1702 -0.0632
30588W        W46205  12.427  13.330   3.710 -0.1213  0.0464 -0.0007
30589W        W46206   4.761  15.154   5.552 -0.0139 -0.2108 -0.0230
30590W        W46207   9.899  13.017  14.741 -0.2093  0.0668  0.0354
30591W        W46208   5.108  10.065   3.084 -0.0065  0.3447  0.1273
30592W        W46209  15.070  12.234   2.346  0.0878 -0.1494 -0.1031
30593W        W46210   7.895  10.053  16.500 -0.1852 -0.1060  0.2636
30594W        W46211   3.342   9.189   3.847 -0.1125 -0.1082 -0.0031
30595W        W46212   3.006   9.295   2.326 -0.0291  0.1742 -0.3485
30596W        W46213   6.236  15.400  13.582 -0.1133  0.1636  0.3106
30597W        W46214  17.434   6.599   1.290 -0.1125 -0.4130  0.1362
30598W        W46215   8.928   1.721   0.936  0.3564  0.1187  0.0683
30599W        W46216   9.236   5.962  16.414  0.0119  0.1047  0.0697
30600W        W46217  10.316  12.960  11.142 -0.1153 -0.1602  0.2382
30601W        W46218  13.539   4.426  14.952  0.0354 -0.2073 -0.2271
30602W        W46219  12.109   4.887   0.715 -0.2606  0.0087 -0.0653
30603W        W46220   8.737  10.058   1.910 -0.2299 -0.0802  0.1600
30604W        W46221   9.566   6.581  12.168  0.1021  0.0354 -0.0380
30605W        W46222   1.893   1.784   4.099 -0.0071  0.0275 -0.0883
30606W        W46223   5.890  11.515   3.506 -0.1695 -0.1237 -0.1329
30607W        W46224  14.970  11.611  15.897 -0.2712  0.1489 -0.1980
30608W        W46225  15.463  11.484  16.133  0.0200 -0.0550  0.0932
30609W        W46226   2.593   4.152  12.187  0.0839  0.1703  0.2376
30610W        W46227  13.528   3.615  12.962 -0.1037 -0.0170 -0.3508
30611W        W46228  11.491  17.606   2.902  0.0565 -0.2727 -0.1971
30612W        W46229  12.451   6.544  14.385  0.1384  0.1200  0.0211
30613W        W46230   3.196   0.712  14.447 -0.1572  0.1299 -0.0753
30614W        W46231   4.723  11.534   1.722 -0.0931  0.2353 -0.2885
30615W        W46232  14.653   0.771  12.793  0.0451 -0.0192 -0.3583
30616W        W46233   4.652   5.926  14.904  0.1923 -0.1131  0.3090
30617W        W46234  16.948  10.630  16.572 -0.1778 -0.2737 -0.0684
30618W        W46235   5.706   2.613   5.759  0.0043 -0.3664 -0.1142
30619W        W46236  14.627  12.400   2.822 -0.3304 -0.2950  0.0111
30620W        W46237   6.153   1.084  16.782 -0.1722  0.1399 -0.0716
30621W        W46238  15.599   9.800  16.669 -0.1698 -0.0382 -0.0753
30622W        W46239  12.416   8.770  12.228  0.1897  0.1469 -0.2275
30623W        W46240  17.622  13.379  15.032  0.1455 -0.1008 -0.1278
30624W        W46241  13.536  17.810   5.630 -0.0662 -0.1079  0.0860
30625W        W46242   4.804   0.033  10.252  0.1389  0.2131  0.2362
30626W        W46243  11.984   8.292  13.968 -0.2115  0.3077  0.1823
30627W        W46244   5.082  13.224  12.372  0.0223  0.0759 -0.4097
30628W        W46245   7.848  12.578   2.401  0.1097  0.1154 -0.0441
30629W        W46246  12.305   2.694  13.905 -0.1430  0.1080  0.1036
30630W        W46247   3.538  14.785  13.537 -0.0630 -0.0062 -0.3006
30631W        W46248   4.231   1.898   2.750  0.0932 -0.1058  0.1314
30632W        W46249   7.574   6.455  13.674 -0.0979  0.1422  0.0900
30633W        W46250  11.609  15.633  13.621 -0.0874  0.0484 -0.4563
30634W        W46251  15.709  14.624  11.498  0.4191  0.1808  0.2458
30635W        W46252  11.310   7.214   1.943 -0.0130 -0.0458 -0.0336
30636W        W46253   5.258  10.001   3.623 -0.2431 -0.0706  0.2209
30637W        W46254  13.797   5.502   1.182 -0.0953  0.0523 -0.1304
30638W        W46255  13.015   5.771  14.568 -0.0475  0.1141 -0.3377
30639W        W46256   1.471   7.159   0.231 -0.0614  0.1247 -0.0035
30640W        W46257   0.001  17.325  14.419  0.1514  0.1885 -0.2281
30641W        W46258   9.598   5.625  16.144 -0.1091  0.0225  0.1553
30642W        W46259  16.382  17.007   0.362  0.1588 -0.2595 -0.0371
30643W        W46260  10.498  13.606  14.836 -0.0766 -0.2007 -0.3769
30644W        W46261  17.840   3.796  14.047 -0.0912 -0.1502 -0.2389
30645W        W46262   7.783  10.644   4.969  0.1718  0.0566  0.2023
30646W        W46263  14.508  17.294  14.429 -0.0457  0.1628  0.1063
30647W        W46264   9.335   8.385   5.914 -0.0370 -0.0071  0.2150
30648W        W46265   1.262   9.673  12.140 -0.1104  0.1274  0.1203
30649W        W46266   1.598   0.078   0.264  0.0399 -0.1497 -0.1853
30650W        W46267   2.800   2.240  13.760 -0.1486 -0.3416  0.0125
30651W        W46268  15.477   3.273  15.454 -0.1188 -0.1846  0.0764
30652W        W46269  14.284  10.459  15.830  0.3560  0.0500  0.0444
30653W        W46270  13.870  14.419   4.072 -0.1692 -0.1611 -0.2478
30654W        W46271   0.474   8.537   1.174  0.0531  0.0426  0.0158
30655W        W46272   8.668  15.783  12.934  0.1506 -0.0570 -0.4297
30656W        W46273  14.248  14.350  16.519  0.1125 -0.0630  0.0104
30657W        W46274   6.884   8.767   0.196  0.4506 -0.1544  0.0491
30658W        W46275   9.086  11.345  15.976 -0.3407  0.3027  0.3192
30659W        W46276  15.028  10.258   2.673 -0.3561 -0.2109 -0.0329
30660W        W46277  10.354  12.270   2.445 -0.1004  0.3170 -0.0547
30661W        W46278   4.524   3.191   3.221 -0.1784  0.0634  0.1099
30662W        W46279  13.330   0.916  16.491  0.0681  0.0595 -0.2299
30663W        W46280  15.389   2.608  14.404  0.0459 -0.1367 -0.0451
30664W        W46281   5.864  16.080   1.095  0.2791 -0.0590  0.0144
30665W        W46282  16.281  14.301  13.434 -0.0198  0.3086 -0.1564
30666W        W46283   9.319   0.152   3.912 -0.2218 -0.2908 -0.0097
30667W        W46284  12.736  16.598  13.553 -0.0029 -0.0035  0.0004
30668W        W46285  10.638  12.098   3.354  0.2230  0.1743  0.0100
30669W        W46286  13.125  11.061   4.553 -0.1220  0.3026  0.1141
30670W        W46287  10.084  10.770  14.591  0.1180 -0.2002 -0.4686
30671W        W46288   2.432  13.883  11.523 -0.0986 -0.0245 -0.0518
30672W        W46289   8.360  14.240   4.440 -0.0099 -0.1182  0.2200
30673W        W46290  12.813  13.245   5.450 -0.1035 -0.0780 -0.1836
30674W        W46291   2.079   5.385  12.123 -0.0142  0.1593 -0.0362
30675W        W46292   6.121   7.698   4.822 -0.2684  0.1350  0.0058
30676W        W46293  11.396   9.852  11.806  0.1882 -0.0782 -0.3513
30677W        W46294   9.809   8.046  15.377 -0.1035 -0.1088 -0.2325
30678W        W46295   6.118  13.673   0.658 -0.0045  0.3487 -0.1056
30679W        W46296   4.964  12.184   2.685  0.0648  0.3542 -0.1355
30680W        W46297   6.100   4.860  12.799  0.0016  0.2235 -0.0705
30681W        W46298   0.653   3.758  12.327 -0.1250  0.0169  0.3013
30682W        W46299   1.878   2.485   0.629  0.0183 -0.0303  0.0688
30683W        W46300  11.599   6.781   0.385  0.0358 -0.1751  0.0206
30684W        W46301   0.050   7.709   3.353  0.2055 -0.1637 -0.1240
30685W        W46302   8.716   1.206  12.715 -0.0960 -0.1915  0.0214
30686W        W46303   6.061  12.645   0.577 -0.1122 -0.2385 -0.1659
30687W        W46304  11.482   7.303   0.752  0.0975 -0.0632  0.1114
30688W        W46305  14.073   8.210  13.173 -0.1169  0.1944 -0.0182
30689W        W46306  10.925   3.405  14.015  0.0405  0.0081 -0.4206
30690W        W46307   4.640  13.111   2.423 -0.1142  0.1254  0.1753
30691W        W46308  15.938  12.238  16.506 -0.0454  0.2438  0.0947
30692W        W46309   4.806  17.430  16.427  0.3346  0.2005  0.1749
30693W        W46310  15.450  17.226   4.740 -0.4888  0.1593  0.0645
30694W        W46311   0.698   7.783   1.553 -0.0873 -0.1716  0.2528
30695W        W46312   8.983   9.585  13.787 -0.2438  0.1610 -0.1046
30696W        W46313  14.636   3.459   0.516 -0.3582 -0.1217  0.3227
30697W        W46314  16.756  12.250   1.360  0.1620 -0.0529 -0.1884
30698W        W46315   0.255   2.117  12.459  0.1826  0.0826  0.0309
30699W        W46316   1.845  17.711  15.540  0.2443 -0.2636 -0.3466
30700W        W46317  10.862  10.692   0.987  0.3442  0.2560 -0.2090
30701W        W46318  14.386  17.013  15.165  0.0344 -0.1823 -0.1674
30702W        W46319   7.731   9.168  16.048  0.1315 -0.1813  0.1173
30703W        W46320   1.902  16.578  14.539 -0.1298 -0.1449  0.0173
30704W        W46321  11.585   8.115  11.573  0.1113 -0.1383  0.2279
30705W        W46322   6.095   8.030   5.277 -0.0697  0.0122  0.0852
30706W        W46323  10.841   3.472  16.348  0.0074 -0.5317  0.0602
30707W        W46324   2.692   4.785   1.936  0.1632 -0.0199  0.0521
30708W        W46325  10.275   7.895   4.909  0.0370  0.0794  0.0489
30709W        W46326  13.571   7.465   0.728  0.0317 -0.2206 -0.0931
30710W        W46327  11.024  14.131  15.901 -0.2133 -0.2260  0.0478
30711W        W46328  17.128  16.899  13.489 -0.1547  0.1418 -0.0990
30712W        W46329   9.491  16.258  16.485 -0.1796  0.3196  0.1567
30713W        W46330  15.757  15.266   4.849 -0.2293  0.0583  0.1029
30714W        W46331  15.292   6.539   2.296 -0.4211  0.0367 -0.0199
30715W        W46332  17.315   4.471  13.259 -0.2565  0.0879  0.1516
30716W        W46333   5.785   2.076   4.342 -0.2586  0.2130 -0.2573
30717W        W46334  11.875   6.120   5.386 -0.0200  0.1365  0.0565
30718W        W46335  14.948  12.596   3.174  0.1477 -0.1167 -0.1470
30719W        W46336   8.538   5.631  13.544  0.2529  0.0803  0.3926
30720W        W46337   8.598  15.327  15.445 -0.0198  0.2190 -0.2202
30721W        W46338  12.521  16.160   0.457  0.0438  0.3110 -0.2912
30722W        W46339   8.158  17.803   6.303  0.1507  0.0785 -0.0717
30723W        W46340  13.399  10.115   0.439  0.1774  0.1707 -0.0712
30724W        W46341  10.795   8.526  11.851 -0.2713  0.0452 -0.0491
30725W        W46342   2.230   4.771   5.062 -0.1717  0.0387  0.2093
30726W        W46343  16.226  15.599   4.110  0.1892  0.0490 -0.0530
30727W        W46344   7.353  12.361  12.105 -0.1966 -0.0504  0.2950
30728W        W46345  16.285   3.789   0.633 -0.0255  0.1633  0.0421
30729W        W46346   0.828  14.319   4.922  0.3301 -0.1444 -0.0095
30730W        W46347  16.659  14.804  15.873 -0.0944 -0.1751  0.1149
30731W        W46348   2.684  15.813   0.031  0.2283 -0.0984 -0.2165
30732W        W46349   0.067  17.428  11.883  0.1797 -0.0464  0.3667
30733W        W46350   1.454   8.602  16.391 -0.0938  0.3077 -0.1638
30734W        W46351   1.637   8.606   3.528  0.2115  0.1211 -0.1321
30735W        W46352  13.876  14.823   0.849 -0.1051  0.0363 -0.0853
30736W        W46353   4.103   6.551   2.774  0.0889  0.1684  0.0420
30737W        W46354  16.365   5.607   0.040  0.2307  0.0151  0.0593
30738W        W46355   5.528   3.894   4.288 -0.2590  0.1110  0.0682
30739W        W46356   1.369   5.851   5.220  0.3786 -0.1681 -0.1050
30740W        W46357  15.078  14.864   3.756  0.0414 -0.1435 -0.1668
30741W        W46358   2.805   7.171   3.996  0.0883 -0.2206  0.0395
30742W        W46359   1.636   5.227   0.603  0.0769  0.0494 -0.1384
30743W        W46360  13.399  10.813   0.681  0.2522 -0.2158 -0.0707
30744W        W46361  14.916   4.611  16.580  0.1235 -0.2895 -0.1902
30745W        W46362   6.303   8.701   0.180  0.0300 -0.2495 -0.0921
30746W        W46363  16.417  11.949   0.078  0.0159  0.3585  0.0348
30747W        W46364  10.018  10.723   5.011  0.0517 -0.0437 -0.2578
30748W        W46365  15.550   1.605  14.292  0.1456  0.1203 -0.0950
30749W        W46366   3.615   0.231   1.110 -0.0592 -0.4045  0.2290
30750W        W46367   4.119   1.598  14.244  0.1107 -0.2744 -0.0016
30751W        W46368   7.470  16.693   1.862  0.0208  0.0279 -0.0249
30752W        W46369  15.411  17.573   5.164  0.1792  0.4351  0.0849
30753W        W46370   7.448   9.416  15.642 -0.1568  0.0464  0.2453
30754W        W46371  16.045   8.597   5.489  0.3613 -0.3209 -0.1509
30755W        W46372   7.292   8.598  15.298  0.0263 -0.2533  0.0484
30756W        W46373  11.532   0.272   0.195  0.1162  0.0014 -0.0720
30757W        W46374   1.863  11.185   5.671  0.0705  0.2124 -0.3412
30758W        W46375   0.448   6.452   5.823 -0.2980  0.0082  0.0490
30759W        W46376   2.810   5.101  12.833  0.0086 -0.0280 -0.2598
30760W        W46377  10.876   8.323  15.888  0.0939 -0.1598 -0.5025
30761W        W46378  12.370  14.357  12.791  0.0633 -0.4474  0.3152
30762W        W46379  12.658  12.843   2.583  0.2204 -0.1625  0.1640
30763W        W46380   3.553   7.703   2.162 -0.0416  0.2320  0.2379
30764W        W46381  10.777  13.751   4.548  0.1016  0.1535  0.0746
30765W        W46382   4.457   6.195  16.483 -0.0846  0.2648 -0.0161
30766W        W46383   1.558   0.531   1.202 -0.3802 -0.4133  0.0888
30767W        W46384   2.143   3.806   5.118  0.0590  0.2308  0.1649
30768W        W46385   3.662   8.220   2.368  0.0073 -0.2453  0.1791
30769W        W46386  14.403  13.132  11.739  0.0129 -0.2094 -0.2602
30770W        W46387   0.939  16.971   2.928  0.1370 -0.1565 -0.3223
30771W        W46388   8.375   3.633  12.733 -0.0622  0.2651 -0.2409
30772W        W46389   1.079   5.304  16.209  0.1897 -0.1215 -0.0573
30773W        W46390  14.090   6.678   4.867 -0.0024 -0.3616 -0.0932
30774W        W46391  13.552   3.738  13.958 -0.1737 -0.2667 -0.0041
30775W        W46392  14.421  12.270   0.592  0.1653 -0.1393  0.1936
30776W        W46393  12.015   9.755   3.900  0.0630  0.1385  0.0334
30777W        W46394   1.824   3.837   2.307  0.0084  0.1208 -0.1021
30778W        W46395   1.597  17.792  11.992  0.1154 -0.0706  0.2906
30779W        W46396   0.744  16.310   5.484 -0.0316 -0.0865  0.0546
30780W        W46397  15.088  14.510  14.446  0.1478  0.0453  0.1824
30781W        W46398  10.266  12.338  13.863  0.0023 -0.2320  0.0850
30782W        W46399  17.257   0.991   3.623 -0.1490  0.0182  0.0355
30783W        W46400   5.626  13.722   4.520 -0.1399  0.3737  0.0752
30784W        W46401  14.334   1.949   1.749 -0.0887  0.0177  0.1070
30785W        W46402  10.484  11.028  12.665 -0.0370  0.1660  0.2779
30786W        W46403   2.489  15.910  16.396  0.0405 -0.1073 -0.0510
30787W        W46404   8.083  14.218   0.107  0.2040  0.1863  0.1957
30788W        W46405   7.210   6.538   5.790  0.0303  0.0748 -0.2043
30789W        W46406  14.119   5.068  16.181  0.2045  0.0317  0.2328
30790W        W46407   3.247   3.514   5.276  0.0254  0.1124  0.0866
30791W        W46408  15.703   9.965  15.631  0.1705  0.0884 -0.2517
30792W        W46409  13.625  17.320  12.359  0.0615 -0.0681  0.2924
30793W        W46410  13.545   7.116   4.073  0.0745  0.1441  0.0278
30794W        W46411   7.966  15.160   2.655 -0.1481 -0.2663  0.3438
30795W        W46412   5.494   0.126   0.358  0.0028 -0.1370  0.0072
30796W        W46413   6.671   0.976  16.721 -0.0680  0.2001  0.0031
30797W        W46414   6.963   0.578   1.961 -0.1841 -0.3215  0.1984
30798W        W46415  11.885   3.099   1.487  0.2701  0.0813  0.0355
30799W        W46416   6.194   3.036   4.554 -0.2854 -0.0949  0.4305
30800W        W46417  15.966   5.241  14.586  0.2080  0.3872 -0.2630
30801W        W46418   3.986  11.204  16.547 -0.0119  0.1295 -0.1656
30802W        W46419  14.198  17.539   5.488  0.0920  0.0952  0.3554
30803W        W46420   0.834   1.131   0.872  0.0881  0.0875 -0.2442
30804W        W46421   3.226   8.116  15.387  0.0823 -0.1735  0.1000
30805W        W46422  15.497   3.352  13.989  0.2383  0.0140 -0.2162
30806W        W46423   7.306  16.741   2.488 -0.2781  0.1396 -0.1407
30807W        W46424   8.908   8.102  12.797  0.0058 -0.0816  0.4334
30808W        W46425   8.257  17.602   4.644  0.0969  0.0187 -0.0185
30809W        W46426  14.871  14.968  14.404 -0.1588  0.2921 -0.0418
30810W        W46427   4.523  15.720   3.104  0.0657  0.1354  0.2483
30811W        W46428   9.836   3.156   5.958  0.2133  0.0045 -0.0952
30812W        W46429  10.848   5.510  14.451  0.1258  0.1746  0.4486
30813W        W46430  11.485  11.172  10.886 -0.0517  0.0324 -0.0107
30814W        W46431   4.514  15.864  14.244  0.2162 -0.2200  0.2411
30815W        W46432   9.662   2.338  16.592  0.0168 -0.2837  0.0755
30816W        W46433   4.168  10.982   1.447  0.0961 -0.0178 -0.2531
30817W        W46434   1.410   8.221  16.006 -0.1790  0.0524 -0.0035
30818W        W46435  11.767  12.603   4.146  0.2298 -0.0367  0.1883
30819W        W46436  10.380   0.414   3.130 -0.1970 -0.1134  0.0645
30820W        W46437  12.187  13.551  13.016 -0.3182  0.1954  0.0735
30821W        W46438   0.341   9.546   4.419 -0.3470  0.0098 -0.0556
30822W        W46439  11.075  10.424   1.932  0.0443  0.1112  0.0645
30823W        W46440   9.986  17.858   0.375 -0.2394 -0.2630 -0.2032
30824W        W46441  12.428   5.752   3.585 -0.0859 -0.0751 -0.2553
30825W        W46442  13.231  15.371   3.301  0.3158  0.1994 -0.1105
30826W        W46443   4.859   7.698  13.438 -0.1739  0.2760 -0.1909
30827W        W46444   7.171   5.417  11.199  0.3838 -0.0109  0.0895
30828W        W46445   7.152   1.342   4.937 -0.1886  0.2100 -0.0386
30829W        W46446   3.030  15.925  12.977 -0.2646 -0.0850  0.1688
30830W        W46447  17.169  10.667   1.665  0.0338  0.0099  0.3082
30831W        W46448   6.961   0.463  15.122 -0.3419 -0.0825 -0.4406
30832W        W46449  10.295   7.585  16.074  0.1910 -0.2543  0.0169
30833W        W46450   7.320   3.052  12.075 -0.3323 -0.0462  0.1003
30834W        W46451   5.873  17.306  14.904  0.3160 -0.1152 -0.0585
30835W        W46452   6.869   7.774  16.017 -0.1209  0.1482  0.3041
30836W        W46453   4.126   3.506  14.392  0.0556 -0.2298  0.1369
30837W        W46454  10.773  13.195  10.381  0.1457  0.1627 -0.0814
30838W        W46455  13.941   4.652  15.262 -0.1624 -0.2566 -0.0225
30839W        W46456  10.253   7.098  16.374 -0.0877  0.4052  0.0379
30840W        W46457  11.185   4.441   2.630 -0.1696 -0.2280 -0.1121
30841W        W46458   5.428  16.217  12.490 -0.1819  0.1812  0.5663
30842W        W46459   2.410   9.241   3.727 -0.0022  0.1219  0.2587
30843W        W46460  11.079   4.153   1.696 -0.0939  0.0455  0.0185
30844W        W46461   3.164  11.581   4.334 -0.0922  0.0357  0.0796
30845W        W46462  16.788   5.122  14.764  0.3168  0.1564 -0.3105
30846W        W46463   5.020   4.561  16.591 -0.0942  0.4027 -0.0354
30847W        W46464   0.103  12.698  16.347  0.1710 -0.0040  0.1535
30848W        W46465   1.975  16.608  12.400 -0.3701  0.2230 -0.1566
30849W        W46466  16.396   0.895   3.392 -0.0799 -0.2313 -0.0257
30850W        W46467   5.681  10.745   2.269  0.0570 -0.0765 -0.0684
30851W        W46468   6.128  15.592  12.853  0.1741  0.3132  0.2587
30852W        W46469   6.207  14.124   0.859  0.0024 -0.2503  0.2626
30853W        W46470   1.189   8.745   3.252  0.0827  0.0024 -0.1184
30854W        W46471   3.324   0.081   0.707 -0.2637  0.3943 -0.1528
30855W        W46472   6.228   1.617  10.461  0.2487  0.0281 -0.2126
30856W        W46473  10.070   1.862  15.300 -0.0177  0.0437 -0.0330
30857W        W46474   0.978  15.184  15.498 -0.2474 -0.2577 -0.2463
30858W        W46475  10.483   3.593   3.462  0.0480  0.0820  0.1587
30859W        W46476   4.873   6.894  11.798 -0.1063 -0.0796 -0.4864
30860W        W46477   8.946   7.736  12.089 -0.2527  0.3239  0.0691
30861W        W46478  11.393   1.742   1.229  0.2089 -0.0052 -0.2069
30862W        W46479   3.081  16.366  12.688  0.2965  0.0348 -0.3552
30863W        W46480   4.921   5.665   0.276 -0.0764  0.0653 -0.0332
30864W        W46481   6.620   0.435  16.714 -0.1985 -0.0810  0.0947
30865W        W46482   8.917   0.076   4.243  0.4425 -0.0860  0.2048
30866W        W46483   7.212   5.902  11.443  0.0864  0.1352 -0.0051
30867W        W46484   7.983  12.604  13.666 -0.2967  0.0826 -0.2060
30868W        W46485   9.634   0.479  11.696 -0.2152 -0.0397  0.0976
30869W        W46486  14.571  14.925  15.801  0.2038 -0.0365  0.0354
30870W        W46487   1.484  17.611   0.899  0.4609 -0.1510  0.3248
30871W        W46488  10.709  16.997   2.600 -0.0519 -0.2912  0.2297
30872W        W46489   2.100   6.330   3.790  0.2286 -0.0648 -0.4475
30873W        W46490   9.830   8.840   5.927  0.0262 -0.3893 -0.1074
30874W        W46491  12.640  11.144   4.437  0.0510  0.2715 -0.1365
30875W        W46492   0.680   5.472   1.401  0.0028 -0.1301 -0.1188
30876W        W46493  12.129  14.701   5.491 -0.0855  0.0126  0.0643
30877W        W46494   4.508   1.131   5.408  0.1974  0.1663  0.2359
30878W        W46495  15.327   8.620   2.876 -0.0395  0.0635  0.0564
30879W        W46496   9.799   1.130  15.970  0.2495  0.2244 -0.1891
30880W        W46497   8.477  12.548  14.049  0.0543  0.3266 -0.0174
30881W        W46498  16.176   1.161  16.563 -0.2293  0.0175  0.0501
30882W        W46499  16.321  14.711   3.804 -0.0267 -0.0381  0.1512
30883W        W46500  17.138  10.746  12.564  0.1137 -0.3209 -0.0487
30884W        W46501   5.574  14.740   3.044 -0.2218 -0.2974  0.0333
30885W        W46502  10.789  10.239  16.667 -0.0586  0.3469  0.3087
30886W        W46503  14.467   4.970   4.489  0.2292  0.4312  0.0393
30887W        W46504   5.219   1.486   1.885 -0.0428 -0.0240  0.0306
30888W        W46505   0.290   7.918   5.655 -0.1362 -0.1130 -0.1333
30889W        W46506   1.771  11.165   4.259  0.2185 -0.1808  0.3270
30890W        W46507   5.843   6.584   3.154 -0.0887  0.0499 -0.1095
30891W        W46508   1.055   8.235   5.495 -0.0982  0.4345 -0.0670
30892W        W46509  16.173   3.998   3.849  0.1636 -0.2679  0.0373
30893W        W46510   6.149  14.418   0.440 -0.1162  0.6116 -0.0730
30894W        W46511   7.580  10.919  16.790 -0.0798 -0.1061 -0.2007
30895W        W46512  15.462   7.833   0.074  0.1212  0.0155 -0.0366
30896W        W46513   1.029  15.909  15.135 -0.3944  0.0638 -0.1247
30897W        W46514   9.859   2.742  15.593 -0.0659 -0.3577 -0.0094
30898W        W46515  13.817   9.004  16.118  0.0698 -0.0155 -0.1799
30899W        W46516   1.185  11.417   2.438  0.0936  0.0632  0.1860
30900W        W46517   0.732   2.631  15.868 -0.1764 -0.2909 -0.1572
30901W        W46518  16.128   6.619   5.615 -0.0492 -0.0889 -0.1839
30902W        W46519  17.360  15.446  15.790  0.1863  0.1049 -0.0734
30903W        W46520   2.948   9.581   3.787 -0.0266  0.0502  0.2958
30904W        W46521   8.804   7.359   2.965 -0.1047 -0.0132 -0.0787
30905W        W46522   9.259   8.660  13.376  0.0270  0.0180 -0.4226
30906W        W46523   7.533   0.010   4.029  0.2029 -0.0520  0.3326
30907W        W46524   4.818   6.492   4.717 -0.4594 -0.1466 -0.1546
30908W        W46525  15.444   9.349  13.759 -0.0534 -0.1312 -0.1030
30909W        W46526   8.733  11.847   2.208  0.0304 -0.1475 -0.1313
30910W        W46527  12.184   9.673  14.871  0.0410 -0.2512  0.0080
30911W        W46528   5.531  15.822   1.943  0.0068 -0.0392  0.0126
30912W        W46529   2.982   4.639  13.572  0.0985 -0.1020 -0.4406
30913W        W46530  15.139   3.121  13.675 -0.3017  0.1531 -0.0847
30914W        W46531  13.727  11.559   2.555 -0.1828 -0.3296  0.0443
30915W        W46532  17.046   0.152   4.634  0.0179 -0.2620 -0.1286
30916W        W46533   3.215   3.397  11.941 -0.0101 -0.0424 -0.1252
30917W        W46534  11.409   8.997   0.166 -0.1674 -0.1648  0.3758
30918W        W46535   4.976   7.336  13.019  0.0620 -0.1392  0.1544
30919W        W46536   1.302  14.848  16.771  0.1653 -0.0619  0.1582
30920W        W46537   1.282   1.438   0.283  0.0267 -0.2853  0.0199
30921W        W46538  15.799  13.223  14.173 -0.1307  0.1884  0.4314
30922W        W46539   8.463  13.076   2.696 -0.1671  0.1061 -0.1067
30923W        W46540   8.590   7.546   4.614  0.0744  0.3937  0.0195
30924W        W46541  14.279  17.794   6.033  0.1614  0.0059  0.0282
30925W        W46542   8.734  15.120  10.529  0.1631 -0.1687 -0.2587
30926W        W46543   9.949  12.539  15.439 -0.1542 -0.1334 -0.1289
30927W        W46544   2.040  10.004   5.179 -0.1649 -0.2762 -0.2683
30928W        W46545   3.653   9.135   2.215 -0.1324 -0.1294  0.1713
30929W        W46546  16.520   1.084  13.321  0.0381 -0.2792 -0.1395
30930W        W46547  16.226   8.570  12.467 -0.0699 -0.1383  0.0424
30931W        W46548   8.658  10.087   5.595  0.0417 -0.1404  0.1275
30932W        W46549  15.412   1.301  14.655  0.1717 -0.0204 -0.0807
30933W        W46550  10.729  15.835  15.686 -0.1435  0.0518 -0.2523
30934W        W46551   2.555  14.618   3.504  0.1602  0.4893 -0.0884
30935W        W46552  13.561   5.191  16.013 -0.2246  0.4693 -0.0068
30936W        W46553  16.124   7.156   0.516  0.0523  0.0325 -0.0379
30937W        W46554  10.618  11.907  13.290 -0.0241  0.0227  0.3395
30938W        W46555   0.382   5.036  15.208  0.0812  0.1338 -0.2199
30939W        W46556   1.044  14.052   1.313  0.0158  0.0564 -0.2431
30940W        W46557   9.394   0.585   1.959  0.1036  0.1055 -0.0709
30941W        W46558   0.898   6.034   3.313 -0.0098 -0.0667  0.3619
30942W        W46559   1.921   6.509   1.187  0.1461  0.0652 -0.2474
30943W        W46560   9.013  16.918  12.584 -0.0889  0.2149 -0.0198
30944W        W46561   0.219  16.395   3.948 -0.2337 -0.2058  0.2653
30945W        W46562  13.236  12.459   5.850 -0.1963 -0.1612  0.2027
30946W        W46563   8.680   0.018  11.776 -0.0612  0.1109  0.2562
30947W        W46564  10.501  14.319  15.796 -0.0527 -0.0989 -0.0375
30948W        W46565   2.211  14.185  15.977 -0.2622  0.1198  0.0898
30949W        W46566  15.970   0.881   1.858  0.0380 -0.1735 -0.0255
30950W        W46567  14.000   4.624   0.592 -0.0111  0.0353 -0.1425
30951W        W46568   9.441  15.532  15.293 -0.3808  0.0271  0.1419
30952W        W46569   9.031   0.659   1.557  0.4546 -0.1005 -0.2613
30953W        W46570  11.075   3.281   5.852 -0.1267 -0.1027  0.1563
30954W        W46571   0.505  12.685   2.720  0.1661 -0.1036 -0.2455
30955W        W46572  16.123   2.826  11.315  0.0115 -0.0848  0.2027
30956W        W46573   5.555  10.037   0.040 -0.0350  0.0561  0.0767
30957W        W46574   2.375  17.083   3.258  0.1496 -0.3000  0.0131
30958W        W46575   9.990  16.196  11.728  0.1842  0.4722  0.1894
30959W        W46576   4.082   6.525  16.718 -0.3756  0.0082 -0.2107
30960W        W46577   2.994  13.043  11.928 -0.1030 -0.0541 -0.1065
30961W        W46578   5.974   0.081  13.192 -0.2445  0.0214 -0.1550
30962W        W46579   2.818  14.630   2.974  0.0788 -0.1277  0.1341
30963W        W46580  15.441  15.641   4.825  0.0934 -0.0554  0.0433
30964W        W46581  11.033  11.149  15.635 -0.0930  0.2543  0.0435
30965W        W46582   6.002   6.901   2.780 -0.1339 -0.1171 -0.1327
30966W        W46583  14.650   2.605   4.209 -0.0528  0.0351 -0.3925
30967W        W46584   7.125  15.108  13.014 -0.1639  0.0983 -0.0938
30968W        W46585   2.386   6.322   0.054 -0.2284 -0.1489  0.0963
30969W        W46586   8.764   7.788   0.689 -0.0697  0.5054  0.1432
30970W        W46587  15.968   6.780  13.445 -0.0079  0.1703  0.0361
30971W        W46588  10.043  11.735   4.672 -0.0921  0.0665  0.1345
30972W        W46589  15.919   9.355  14.855  0.0217 -0.1011 -0.1208
30973W        W46590  12.036   4.974   2.356 -0.0427  0.0618  0.1133
30974W        W46591   5.995   8.331   3.930 -0.0010  0.0894  0.1148
30975W        W46592  12.311   4.719   2.690 -0.1017 -0.2811  0.0375
30976W        W46593  10.907  17.338   4.780 -0.2198  0.1054  0.3570
30977W        W46594   0.618   1.394   1.691 -0.0824  0.4059  0.2160
30978W        W46595   4.996   2.460   2.086 -0.2981  0.1864 -0.0274
30979W        W46596   2.562  12.044  15.621  0.0718 -0.2372  0.0401
30980W        W46597   6.792   8.661   3.550 -0.1734 -0.2201 -0.1926
30981W        W46598   9.594   1.953   1.465  0.0460 -0.0569 -0.2964
30982W        W46599   1.356   3.849  13.939 -0.2675 -0.0677 -0.2074
30983W        W46600   0.279  16.130   0.158 -0.0162 -0.0054  0.2378
30984W        W46601  12.113  17.793  15.035 -0.2661 -0.2221  0.2017
30985W        W46602   6.413   7.062   0.186  0.2309 -0.2163  0.0699
30986W        W46603   7.369   3.646  14.831 -0.0473 -0.0001  0.1557
30987W        W46604  16.323   0.987   4.414 -0.1713  0.0226 -0.2147
30988W        W46605   1.801   2.454  11.757 -0.1334  0.0501  0.1746
30989W        W46606   2.590  12.675   5.192 -0.0573 -0.3074 -0.0089
30990W        W46607  13.013   1.747   1.064 -0.2692  0.3952  0.0844
30991W        W46608   8.431  12.818   4.491 -0.1330 -0.0146  0.0290
30992W        W46609   6.021   6.439   0.041  0.0040 -0.3317 -0.2774
30993W        W46610   5.771   1.921   0.058  0.0874  0.1397 -0.0072
30994W        W46611   6.283   5.503  14.148  0.0989 -0.0818 -0.4235
30995W        W46612  17.754   4.411  11.725  0.0958  0.1381  0.0687
30996W        W46613  13.121   5.429  15.960  0.1714  0.1573 -0.2391
30997W        W46614  13.975  11.064   1.251 -0.1395 -0.1534 -0.2018
30998W        W46615   3.381  10.911   3.781 -0.1969 -0.1017  0.0349
30999W        W46616  11.425  16.442   3.658  0.1718 -0.4461 -0.2517
31000W        W46617   3.034   8.174  14.468  0.1068 -0.0802 -0.2741
31001W        W46618   3.022  16.119   4.886 -0.4769  0.1764 -0.0690
31002W        W46619   2.114  13.388   0.777 -0.2487  0.1210 -0.0338
31003W        W46620  14.820  10.798   5.484 -0.1903  0.3530 -0.0962
31004W        W46621  16.066  17.032  13.181  0.0724 -0.0256  0.0189
31005W        W46622   5.168   7.915   4.520  0.2881  0.0419  0.0538
31006W        W46623  14.046  15.946  13.863 -0.0704  0.0531  0.3891
31007W        W46624   3.536   0.079  12.362 -0.1500  0.2199 -0.4270
31008W        W46625  10.106   3.812  11.107 -0.0396 -0.0860 -0.1302
31009W        W46626  11.278   7.744   0.584  0.1166  0.0749  0.1146
31010W        W46627   1.453   2.945  15.174 -0.1093  0.1639  0.0456
31011W        W46628   8.904   6.839  14.605  0.0640 -0.0441  0.0196
31012W        W46629   3.032   0.635   0.643  0.0088 -0.0508  0.1104
31013W        W46630  16.986   9.248   3.773  0.0077  0.0292  0.0188
31014W        W46631   3.223  15.013  13.252  0.0693 -0.0455  0.2752
31015W        W46632   2.275   9.771  13.250 -0.0594 -0.1592 -0.0447
31016W        W46633   4.158  16.067   4.697  0.2093  0.1665  0.0658
31017W        W46634  11.155   4.968   3.383  0.0165  0.1180 -0.0156
31018W        W46635   1.159   3.994  15.335  0.3147  0.4594 -0.0848
31019W        W46636   4.425  13.661   2.214 -0.1522  0.3674 -0.1066
31020W        W46637  14.881  16.006  13.630 -0.1179 -0.2461 -0.1301
31021W        W46638   3.477  16.726   4.373 -0.2511 -0.2503  0.0256
31022W        W46639  11.356  17.663   1.507 -0.2021  0.3482  0.0159
31023W        W46640   9.808  11.029  12.066  0.0330  0.0809  0.0615
31024W        W46641   6.284  15.941   2.199 -0.0305  0.0666  0.1449
31025W        W46642  16.629   6.942   1.309  0.0447 -0.1703  0.0465
31026W        W46643   3.000  11.208   3.943  0.1180 -0.0210 -0.1153
31027W        W46644   5.883  12.843   4.343 -0.1666  0.0275  0.2454
31028W        W46645   3.457  16.206  12.961  0.2143  0.1411  0.2110
31029W        W46646   5.254   2.067   5.229  0.0945 -0.0450  0.0895
31030W        W46647  11.775  15.638  12.024  0.0509 -0.2546  0.2878
31031W        W46648   0.705   6.300  15.703 -0.1208 -0.0519 -0.0104
31032W        W46649  16.015  10.682  11.720  0.3236  0.1580  0.1304
31033W        W46650  10.170  11.642  11.654  0.2638  0.0969  0.2410
31034W        W46651   2.056   6.736  12.174  0.0537  0.1996  0.0982
31035W        W46652   5.299  13.021   4.999 -0.3505  0.3166 -0.1945
31036W        W46653   8.734  11.405   0.919 -0.0529  0.2808 -0.1673
31037W        W46654   5.922   1.192  15.800  0.2591 -0.0182  0.1439
31038W        W46655  15.462   4.811  13.410 -0.1773  0.0726  0.2929
31039W        W46656   3.006  10.185  11.622 -0.4855  0.1805  0.0724
31040W        W46657   8.035  10.443   2.888  0.3061  0.0934  0.0669
31041W        W46658  17.091   0.349  13.963 -0.0644  0.1053  0.2073
31042W        W46659   8.198   1.927   5.061 -0.0986 -0.0636  0.0894
31043W        W46660  15.888   6.726   2.784  0.0474 -0.1135  0.1221
31044W        W46661  10.391  11.923   2.079 -0.0794  0.1282  0.2877
31045W        W46662  12.114   2.033  16.374  0.2359  0.0401  0.1322
31046W        W46663   5.267   4.488   0.820 -0.0160 -0.2043  0.0440
31047W        W46664   7.594   9.054  14.485  0.1365 -0.1334  0.1760
31048W        W46665  16.221   8.723   1.827 -0.0018  0.0863 -0.0315
31049W        W46666  13.959  13.647  13.348 -0.1780  0.2507  0.1190
31050W        W46667  13.701  14.869   0.337  0.3751  0.0992 -0.3113
31051W        W46668  14.611   7.122   4.801 -0.3756 -0.1023 -0.1622
31052W        W46669  11.228   3.834  12.387  0.1278 -0.4961  0.1803
31053W        W46670   6.522   1.592   3.741  0.1599 -0.1240  0.1822
31054W        W46671   1.952  10.488  16.826  0.1786 -0.2398  0.1891
31055W        W46672  16.964  12.316  15.507  0.3334  0.0447  0.2357
31056W        W46673   8.165   7.848   0.107  0.0330  0.0279  0.0164
31057W        W46674   0.016   3.900   3.834 -0.0686 -0.1355 -0.2493
31058W        W46675   6.840  16.413  11.381 -0.1530 -0.0366  0.0711
31059W        W46676  12.911   9.707  14.548 -0.0886 -0.0411 -0.1947
31060W        W46677  13.453  14.277  14.428 -0.0744 -0.0970 -0.0506
31061W        W46678   8.261   7.807   1.298  0.0990 -0.0583  0.2462
31062W        W46679  11.994  15.897   3.353  0.1039  0.0003  0.2683
31063W        W46680  15.492  13.996   0.043  0.1705 -0.0639  0.1999
31064W        W46681  14.073   7.382  14.729  0.0655 -0.2044  0.1678
31065W        W46682  11.414   8.870  12.242 -0.0818  0.2774 -0.2668
31066W        W46683   9.901   3.068   5.230 -0.1096 -0.0065 -0.0432
31067W        W46684   2.020   2.099   1.363  0.1452 -0.2902 -0.0133
31068W        W46685  15.036  16.121   0.133 -0.0793 -0.0180  0.0402
31069W        W46686   7.214   1.801  15.618  0.2278 -0.1481 -0.0304
31070W        W46687  10.443  17.655   2.724 -0.1543 -0.1070 -0.0229
31071W        W46688   6.506  14.660   4.004 -0.1292 -0.2652  0.1465
31072W        W46689   4.383  10.603  14.810 -0.1052 -0.2130 -0.3492
31073W        W46690  12.862   5.425  14.967 -0.0891 -0.1215 -0.2628
31074W        W46691  14.896   7.764   3.006 -0.0400 -0.2870  0.0442
31075W        W46692  12.721   9.203  12.581 -0.1796  0.0905  0.1402
31076W        W46693  13.835   1.286  14.647  0.0351  0.0767 -0.2655
31077W        W46694  11.145  13.049   1.457 -0.0538  0.0270 -0.3310
31078W        W46695  10.877  15.524   4.015  0.0061 -0.1655  0.1693
31079W        W46696   9.459  11.203   4.495 -0.1786  0.2189 -0.0065
31080W        W46697   4.942  12.684   2.521  0.2316  0.2423  0.2921
31081W        W46698  10.134  15.622  10.742 -0.3323 -0.1249  0.0212
31082W        W46699  17.747  17.532  12.347  0.2177 -0.1708  0.3155
31083W        W46700   6.962   3.249  12.458 -0.0934 -0.3114  0.0914
31084W        W46701   1.501   7.478  12.129 -0.0717 -0.0642 -0.0365
31085W        W46702   3.575   5.599  14.259 -0.2206  0.2615 -0.1692
31086W        W46703   3.901   4.442   1.774  0.0176  0.1254  0.0697
31087W        W46704   2.984   5.959   5.579 -0.1434  0.0690 -0.1734
31088W        W46705  16.213  15.329  13.901  0.0240 -0.0362 -0.1994
31089W        W46706   3.848   7.074  16.259 -0.1985  0.1437 -0.0430
31090W        W46707  12.507   1.240   4.164 -0.0971  0.2239  0.1098
31091W        W46708  17.390   7.446  13.959 -0.3057 -0.2720 -0.3021
31092W        W46709  14.440   3.805   1.356 -0.4680  0.2584  0.0946
31093W        W46710   7.637   2.828   4.284 -0.2228 -0.1476  0.1625
31094W        W46711   0.872   7.731  14.561  0.1421 -0.0411 -0.0523
31095W        W46712  10.771  16.810   0.426 -0.0529 -0.2020 -0.1345
31096W        W46713  15.772   0.646   1.162  0.3230  0.1514  0.0928
31097W        W46714  12.421  11.978  12.107 -0.3598  0.1691 -0.2757
31098W        W46715   2.265  16.994  11.897 -0.2970  0.1383 -0.4372
31099W        W46716  15.239   1.712   5.110 -0.1793  0.4124 -0.5688
31100W        W46717  12.426  12.513  14.790 -0.0844 -0.0441 -0.3268
31101W        W46718   3.485  12.138   2.057 -0.1132 -0.4108  0.1552
31102W        W46719   6.012   5.929   4.138  0.2156  0.0122  0.1229
31103W        W46720   7.934  17.333   5.062 -0.0767  0.0144  0.1141
31104W        W46721  10.178   5.171  15.519 -0.0719  0.1084 -0.2928
31105W        W46722  15.824  13.890  11.788  0.1074  0.2649  0.0521
31106W        W46723   5.285   4.691   2.840 -0.1023 -0.0901  0.1505
31107W        W46724   6.691  10.002   1.810  0.0211  0.4085 -0.0906
31108W        W46725  17.514  11.598   4.918 -0.1881  0.3289 -0.0557
31109W        W46726  11.957  10.617   4.394  0.2484 -0.1906  0.0379
31110W        W46727   4.270   6.488   4.664  0.0297 -0.1839 -0.1480
31111W        W46728   3.071  10.366  14.058  0.1019 -0.0105 -0.0019
31112W        W46729   2.480   7.474  16.253 -0.0063  0.2527  0.0093
31113W        W46730   6.902   8.774   0.993  0.0379 -0.3228 -0.1124
31114W        W46731  17.814   1.341   0.005 -0.2144 -0.0572 -0.3127
31115W        W46732   4.954  15.240   4.597 -0.1855 -0.0478 -0.2377
31116W        W46733   9.612   7.936   6.120  0.0139 -0.2525 -0.1980
31117W        W46734  14.130  13.656   4.791 -0.0600  0.0541  0.2087
31118W        W46735   3.291   8.295  12.207 -0.1864 -0.0417 -0.1719
31119W        W46736  16.146   8.877   3.319  0.2496  0.0924 -0.0244
31120W        W46737   9.548  15.675  16.552  0.0907 -0.0605 -0.0230
31121W        W46738  16.027   7.989  13.699 -0.0408 -0.2029  0.0780
31122W        W46739   4.357  16.704   4.552 -0.0962  0.2453  0.0358
31123W        W46740  15.999   2.151  15.691  0.0523 -0.2935  0.0318
31124W        W46741   9.761  17.213   2.609  0.1867  0.2109  0.1543
31125W        W46742  17.301   8.403   2.188  0.1814  0.0581  0.4429
31126W        W46743   4.605   9.195   1.925 -0.1606 -0.5089 -0.0321
31127W        W46744   0.789   6.872  14.059 -0.1220 -0.0345 -0.1390
31128W        W46745  14.029   4.547   2.134 -0.1221 -0.1165  0.3237
31129W        W46746   0.136  12.456   2.455 -0.1470 -0.0386 -0.2574
31130W        W46747   4.998  12.494   4.308 -0.1007  0.2783 -0.1517
31131W        W46748   9.044   4.632   2.571  0.0251  0.0369 -0.0177
31132W        W46749   6.075   1.294  12.639 -0.1035  0.0967  0.0191
31133W        W46750  11.007  14.665  15.872 -0.1051  0.1412 -0.2454
31134W        W46751   1.581   4.913   5.361 -0.1847  0.3784 -0.0525
31135W        W46752  14.699   3.333   3.160 -0.1111 -0.0463 -0.0459
31136W        W46753  15.068   9.804  14.983  0.2022 -0.0744  0.1155
31137W        W46754  16.314   5.099  14.946  0.0314  0.2521  0.0307
31138W        W46755   7.231  12.308  14.630 -0.0470 -0.3169 -0.2255
31139W        W46756   6.517   4.812   0.406  0.1048 -0.0730 -0.2394
31140W        W46757   2.712   9.027  12.271  0.0400  0.3432  0.3609
31141W        W46758   4.477   7.100   1.167  0.3162  0.0431  0.1064
31142W        W46759  14.582   6.426  16.303  0.2534 -0.2040 -0.1866
31143W        W46760   5.350   2.956  15.065 -0.1261 -0.1548 -0.1353
31144W        W46761  10.897  15.659   1.226 -0.1025 -0.0077  0.1405
31145W        W46762   5.446   6.290  12.086 -0.0445  0.0893  0.0007
31146W        W46763   0.160   8.943  14.861 -0.3950  0.0387 -0.2091
31147W        W46764   9.358   4.687   5.179  0.2505 -0.1537  0.1167
31148W        W46765   4.740  13.033  15.605  0.0707  0.0183 -0.0147
31149W        W46766  16.035  12.324  15.334 -0.0997  0.0265 -0.0954
31150W        W46767  12.652  16.526   1.886 -0.0204  0.0867  0.0131
31151W        W46768   5.729   3.873  16.549 -0.1765 -0.0132  0.1422
31152W        W46769  11.550   6.778  15.045 -0.1779 -0.0176 -0.2205
31153W        W46770  17.528   4.003  14.992  0.2206  0.1242  0.1283
31154W        W46771  13.445  11.312   0.618  0.0407 -0.0828 -0.1618
31155W        W46772   2.172  15.903   0.004  0.4057 -0.0113  0.0571
31156W        W46773  15.533   3.319  13.359  0.3196  0.1370  0.0559
31157W        W46774  13.509  11.672  14.367 -0.2306 -0.5616  0.1374
31158W        W46775   4.382  15.024   2.216  0.3440  0.0209  0.2091
31159W        W46776   3.030   3.442   2.120  0.3743  0.1154 -0.0051
31160W        W46777   7.626   2.891  14.316  0.0113 -0.0148  0.2449
31161W        W46778  16.864  15.357   0.285 -0.2001  0.0364  0.0698
31162W        W46779   0.477  12.561  16.008 -0.2069 -0.1424  0.1648
31163W        W46780  14.797  13.207  16.026 -0.1195 -0.2080 -0.0709
31164W        W46781   5.074  14.796   5.418  0.2803  0.0386 -0.0584
31165W        W46782  11.761  14.173   0.601 -0.0846 -0.0170  0.1607
31166W        W46783   0.197  17.745   5.402  0.3138 -0.0231  0.0916
31167W        W46784   2.476  15.342   5.418  0.2328 -0.4283  0.0878
31168W        W46785  12.279   2.285   4.954 -0.1344  0.1917  0.0352
31169W        W46786   8.987  13.109  14.555 -0.0598  0.1642  0.0372
31170W        W46787   2.770   4.040  11.712 -0.0967  0.0561  0.0546
31171W        W46788  17.278   9.895   2.697  0.0902 -0.0158 -0.3571
31172W        W46789   2.660   0.311   3.133 -0.1564  0.2756 -0.1747
31173W        W46790   4.561   7.382  15.784 -0.0307  0.1489 -0.2921
31174W        W46791  13.852   6.064   2.116  0.0173 -0.2162  0.1409
31175W        W46792   2.355   9.630  12.785 -0.2214  0.0913 -0.1777
31176W        W46793   5.482   4.295   3.211  0.2170 -0.0947 -0.0483
31177W        W46794   9.912   3.399  13.088  0.3149  0.1727  0.2504
31178W        W46795   4.429  12.161  15.026  0.3104 -0.0004 -0.0381
31179W        W46796   8.950   5.195  13.648  0.2964  0.0932 -0.1047
31180W        W46797  17.818   1.475  15.621 -0.1118  0.1806 -0.1293
31181W        W46798  17.392  10.582  12.977  0.2381 -0.1246  0.0103
31182W        W46799  10.304   4.000   3.130  0.0919  0.1291  0.0632
31183W        W46800   7.281   3.199   0.967  0.0353 -0.1330 -0.0870
31184W        W46801   3.406   9.069  14.587  0.3270 -0.0469  0.2161
31185W        W46802   7.989   5.128   2.747  0.1160  0.1217  0.1461
31186W        W46803   6.369   7.661   3.208  0.1269  0.0437 -0.2116
31187W        W46804   8.495  10.870   2.078 -0.0569  0.0663  0.2417
31188W        W46805   7.808  12.548  12.790  0.0048 -0.1648  0.0915
31189W        W46806   2.401   9.483  14.527  0.2307  0.3095  0.0376
31190W        W46807   7.462  12.691  14.821 -0.2404  0.0450  0.2891
31191W        W46808   4.429  10.400  14.282  0.1428 -0.0965  0.2331
31192W        W46809  16.538   2.051  14.312  0.0890 -0.1901  0.3623
31193W        W46810   6.120   9.306   4.388 -0.1686  0.1707  0.0451
31194W        W46811  14.784   9.044   5.824  0.4141  0.0306 -0.0306
31195W        W46812  13.427  12.498   3.210 -0.1157 -0.4278  0.1235
31196W        W46813  12.240  14.420   3.089  0.0579 -0.2813  0.0792
31197W        W46814   1.963   2.568  15.918 -0.2426  0.1012 -0.3892
31198W        W46815   0.790  13.478  14.413 -0.2271 -0.0598  0.2974
31199W        W46816  10.664   1.829   3.196 -0.0903 -0.0429 -0.0186
31200W        W46817  10.055  12.855  12.408 -0.0452  0.0170  0.1459
31201W        W46818   5.101   5.959   6.698  0.2410 -0.1421 -0.0898
31202W        W46819  12.468  15.741   1.461 -0.0399  0.3466  0.0397
31203W        W46820   4.228  14.676   0.380  0.0991 -0.0026 -0.0368
31204W        W46821  10.571  17.101   0.008  0.1042 -0.0203  0.1243
31205W        W46822  14.007  11.957   4.106  0.3241  0.1901  0.1328
31206W        W46823  13.631   4.709   0.160 -0.2064  0.1102 -0.0799
31207W        W46824   7.473   9.474   3.811  0.0101  0.2952  0.0204
31208W        W46825   7.714   9.719  13.039  0.2176 -0.2235 -0.1923
31209W        W46826   7.706   6.502  14.210  0.0771 -0.0616 -0.0202
31210W        W46827  14.567   0.613  11.892 -0.2473  0.2267  0.2587
31211W        W46828  15.978  11.337   2.062 -0.0304  0.0196  0.0206
31212W        W46829  13.433   5.700   5.736  0.2433 -0.3975  0.0310
31213W        W46830  10.106   9.726   3.894 -0.1977  0.1691 -0.4029
31214W        W46831   9.186   7.939   5.696  0.1401  0.0819 -0.1128
31215W        W46832   3.355   5.430  16.288 -0.0924  0.4306 -0.2504
31216W        W46833   6.217   0.304  16.126 -0.1937  0.0336 -0.1131
31217W        W46834  15.443   8.766   2.111  0.4435 -0.0140 -0.2387
31218W        W46835  15.472   0.613  14.064  0.1392 -0.2466 -0.0389
31219W        W46836   5.483   6.293  16.769 -0.2019  0.0519 -0.0473
31220W        W46837   2.149  12.586  11.583 -0.2238 -0.4710 -0.2716
31221W        W46838   1.617  13.337  13.077 -0.0195  0.0833  0.0069
31222W        W46839   6.507  11.852  16.542 -0.2346 -0.4338  0.3233
31223W        W46840   1.225   1.515  16.014 -0.1121 -0.2052  0.0193
31224W        W46841  13.076  10.643   1.414 -0.0110  0.0157 -0.1454
31225W        W46842  10.450   8.459  15.671  0.3151 -0.0669 -0.1058
31226W        W46843   7.608   7.921  13.962  0.1473 -0.3197 -0.4231
31227W        W46844   1.397  13.789  14.364  0.1902 -0.0987  0.1046
31228W        W46845   0.094   9.854   2.224 -0.1216 -0.0138 -0.0527
31229W        W46846   8.005   9.812   0.116 -0.2254  0.2072  0.2082
31230W        W46847  15.902   0.648   4.646 -0.3130 -0.1672 -0.1693
31231W        W46848   1.211   3.601   3.218 -0.0630  0.0755  0.2332
31232W        W46849  11.310   3.106   1.794  0.3505  0.1868  0.0919
31233W        W46850   9.464  16.497   4.657  0.3565  0.3493 -0.0604
31234W        W46851   6.056  10.009   3.883  0.0764  0.0859  0.0132
31235W        W46852  10.402  15.567   4.230  0.0103 -0.1433 -0.0325
31236W        W46853  15.242   5.452   2.936  0.0440 -0.2715 -0.0036
31237W        W46854   3.542   9.702  16.248 -0.1863 -0.0867  0.0216
31238W        W46855   0.992  15.762   3.119 -0.0319 -0.0815 -0.3618
31239W        W46856  12.761  11.243   2.543 -0.1596 -0.1872 -0.1461
31240W        W46857   8.156  15.251   0.868 -0.3050 -0.4048  0.0725
31241W        W46858  15.668  15.536  13.899  0.0850  0.1130 -0.2268
31242W        W46859   8.232  16.031   3.613 -0.1107 -0.1415 -0.1456
31243W        W46860   5.910   7.424   1.253  0.1095 -0.0827 -0.1063
31244W        W46861   4.481   9.214   4.815 -0.0149 -0.2518  0.0020
31245W        W46862  11.948   0.222  12.876  0.1234 -0.2117  0.1233
31246W        W46863  16.845   3.062   5.376  0.0892 -0.1036 -0.0718
31247W        W46864  10.146  16.136  15.206 -0.0904 -0.1838 -0.0506
31248W        W46865  13.459   6.766  14.556  0.2380 -0.1236  0.2054
31249W        W46866  11.059  13.982  13.297  0.2399  0.1264 -0.2120
31250W        W46867   2.130  15.414  15.672 -0.0281 -0.1440  0.1721
31251W        W46868   0.763   8.893  13.137  0.0499  0.1180  0.2053
31252W        W46869  17.159  16.780  12.978  0.2575  0.0982  0.2065
31253W        W46870  11.874  14.585   2.822  0.0379 -0.0624 -0.1943
31254W        W46871  14.229   4.842  14.896  0.2388  0.1439 -0.1393
31255W        W46872   1.910   5.550   4.351 -0.0743 -0.1721 -0.0265
31256W        W46873   9.024   0.620   0.745  0.1722  0.0358  0.2606
31257W        W46874  11.697  13.399  15.634  0.1442 -0.0950  0.0241
31258W        W46875   0.149   7.221   0.798  0.0799 -0.1440 -0.1005
31259W        W46876   9.554   7.308   4.171  0.0737  0.2502 -0.0906
31260W        W46877  11.034   0.246   4.519 -0.0516  0.0115 -0.1590
31261W        W46878   7.304  12.263   3.010  0.2802  0.0359  0.1646
31262W        W46879   9.869   5.448  15.768 -0.2690  0.1590  0.0495
31263W        W46880   5.707  13.932   2.675  0.0480 -0.0812 -0.1137
31264W        W46881  12.352  14.726   2.714  0.0061 -0.1151  0.3036
31265W        W46882   1.162  16.406   3.067  0.3496 -0.1063  0.0359
31266W        W46883   2.778   2.529  15.063  0.2780 -0.0118 -0.4106
31267W        W46884  13.984  13.012  12.588 -0.0112  0.1645  0.1616
31268W        W46885  16.486  13.739   0.073 -0.0085  0.1741 -0.2281
31269W        W46886   3.512   9.362  14.222  0.1177  0.1285 -0.1393
31270W        W46887   2.054  16.502  15.038  0.0740 -0.1191  0.2008
31271W        W46888   8.961  17.035  13.121 -0.2142 -0.1098  0.5539
31272W        W46889   0.154   9.364  15.167 -0.1173  0.1199 -0.1866
31273W        W46890  12.590   7.129   0.613 -0.1300 -0.1219 -0.2369
31274W        W46891   9.079  16.915   3.120  0.1059  0.1773  0.3357
31275W        W46892   7.709  12.769  12.361 -0.0926  0.0837 -0.0056
31276W        W46893  14.696  11.588  16.622 -0.0846 -0.1686  0.1191
31277W        W46894   4.667  14.914   3.456  0.0582  0.0484  0.1696
31278W        W46895  14.339  17.264   3.497  0.1880  0.1171 -0.2860
31279W        W46896   1.515   6.733  14.430 -0.1317  0.0640  0.0621
31280W        W46897  14.366   9.064   3.214 -0.1196 -0.0286  0.0355
31281W        W46898   5.942  16.899  16.484  0.1566  0.0652  0.0803
31282W        W46899   5.258  10.426   4.896  0.1233 -0.3799 -0.1945
31283W        W46900   7.146  11.541  12.806 -0.0471  0.2667  0.1823
31284W        W46901   0.685  15.462  13.366  0.0741 -0.1213  0.1221
31285W        W46902   5.592   0.556  11.388  0.0260  0.1863  0.1839
31286W        W46903   2.329   1.565   3.231  0.0093  0.1358 -0.0124
31287W        W46904   8.898   9.525  12.365 -0.1818 -0.0188  0.1424
31288W        W46905   4.225   1.954   4.527  0.2218  0.0353 -0.0006
31289W        W46906   5.579   9.530   0.135  0.0352 -0.0394  0.0895
31290W        W46907   2.332  13.641  12.895  0.0654 -0.1751 -0.0641
31291W        W46908   9.096   2.861  13.035  0.3510  0.0717  0.0555
31292W        W46909   7.325   5.439  12.110 -0.1608  0.0931 -0.2380
31293W        W46910   8.939  14.213  14.799  0.0261  0.1686 -0.0218
31294W        W46911   2.959  10.615   3.787  0.1820 -0.0328  0.2602
31295W        W46912   0.141  12.934   4.993 -0.1649 -0.2160 -0.3104
31296W        W46913   1.941  13.441  12.541 -0.2732 -0.2835 -0.0343
31297W        W46914   6.250   0.579   1.778  0.0240  0.2982  0.0278
31298W        W46915  12.227   2.736   3.992  0.2536  0.0597 -0.1224
31299W        W46916  16.530  12.235  15.187 -0.0511 -0.0234  0.4236
31300W        W46917   4.703   5.305   5.434  0.0147 -0.0125 -0.0768
31301W        W46918   0.808   6.847  15.634  0.0445  0.0170  0.0784
31302W        W46919   6.687   0.142   3.647 -0.0272  0.0668 -0.3044
31303W        W46920   7.795   0.854   3.067 -0.1833 -0.2808  0.2806
31304W        W46921  14.019   2.315   1.015  0.0725 -0.0786  0.0836
31305W        W46922   8.655   9.150   5.372 -0.1695  0.2128 -0.2441
31306W        W46923   5.748   1.114   4.263 -0.1757  0.0428 -0.4280
31307W        W46924   9.400   5.371  13.470  0.0651 -0.1340  0.1281
31308W        W46925   1.612  13.765  15.923  0.1148  0.1198  0.1625
31309W        W46926   0.500   4.227   2.119 -0.3615 -0.0003  0.1494
31310W        W46927   1.205  15.541  13.322  0.1036 -0.1722 -0.0390
31311W        W46928  10.306  15.811  14.787 -0.0300 -0.0454  0.0625
31312W        W46929   6.948   6.154  15.363 -0.0614  0.1173  0.1568
31313W        W46930  11.426   7.674  15.054 -0.0480 -0.0147 -0.2880
31314W        W46931  16.329   0.275   1.897  0.0850 -0.2080  0.2899
31315W        W46932  14.063  14.198   4.864  0.1555  0.2339 -0.0524
31316W        W46933   8.126   0.098   2.427 -0.1152 -0.1240  0.0911
31317W        W46934  14.546  13.473   3.326  0.0891  0.1811  0.3083
31318W        W46935   8.617  13.446  14.416 -0.0912  0.2104 -0.0528
31319W        W46936   4.772   1.519  14.401  0.0506 -0.0171  0.2510
31320W        W46937  14.443   8.092   3.211  0.0445 -0.1002 -0.0585
31321W        W46938   4.811  10.845   2.245  0.0940 -0.1052  0.1475
31322W        W46939   4.607   9.160   1.416  0.1110 -0.0416 -0.1078
31323W        W46940  17.479  13.305   5.678 -0.1319  0.0282 -0.2533
31324W        W46941  14.518  16.024   0.642 -0.2369 -0.1668  0.0535
31325W        W46942   0.089  14.704   5.716  0.1685 -0.1836 -0.3567
31326W        W46943   4.695   7.550   0.999  0.2535  0.2506  0.0249
31327W        W46944   0.841  14.552   1.740 -0.0149  0.2640 -0.2586
31328W        W46945   7.582   1.691   4.369 -0.1729  0.2130  0.3483
31329W        W46946   4.259   7.831   4.679 -0.2582  0.2690  0.2970
31330W        W46947  17.826  15.658   2.810  0.3139  0.4566  0.0419
31331W        W46948   4.937   2.056  13.579 -0.1885  0.2790 -0.1702
31332W        W46949  12.804   3.327  14.842  0.0244 -0.0718 -0.3774
31333W        W46950   3.414   8.639   3.012  0.1341 -0.1685  0.1422
31334W        W46951   9.754  12.057  15.301  0.1849  0.2274 -0.0975
31335W        W46952   8.314  15.562  12.583  0.0407  0.0358  0.0808
31336W        W46953  15.245   7.330   1.987 -0.0410 -0.2770  0.0577
31337W        W46954   2.846  17.336  12.424  0.0157 -0.0839  0.0209
31338W        W46955   8.386  17.852   1.800  0.1416 -0.1161 -0.1903
31339W        W46956   3.913  13.074  12.194 -0.1402  0.1198 -0.0662
31340W        W46957  16.723   1.268   3.909 -0.2885 -0.4050  0.1401
31341W        W46958   8.352  11.459  14.794 -0.0149  0.2058 -0.4369
31342W        W46959   1.666   7.081   0.667 -0.1685 -0.1596 -0.1548
31343W        W46960  10.343   6.355   0.519 -0.0790  0.2780  0.1407
31344W        W46961   6.469   1.041   0.373 -0.0684  0.1696 -0.1205
31345W        W46962  12.790  16.943   1.094 -0.2209 -0.1915  0.1949
31346W        W46963  12.951   9.974   5.562 -0.0651  0.1208  0.2438
31347W        W46964   9.426   3.669   0.834 -0.0960  0.0676 -0.0226
31348W        W46965  16.567  12.841  16.562 -0.3467  0.3558 -0.1761
31349W        W46966  17.558   4.296   2.702  0.1004 -0.3218 -0.4338
31350W        W46967   3.361   5.498   2.761 -0.0469  0.0652  0.0496
31351W        W46968  13.170   7.068  12.164  0.0762  0.0215  0.0075
31352W        W46969   4.489   2.850   1.170  0.3188 -0.1610 -0.0692
31353W        W46970   2.196   0.602  11.810  0.2475 -0.2587 -0.0405
31354W        W46971   2.815   9.327  12.735 -0.4168  0.1258 -0.0009
31355W        W46972  17.782  16.807  14.995  0.2367  0.0878  0.1328
31356W        W46973   2.951   7.112   4.813 -0.3917 -0.1684  0.0642
31357W        W46974   5.753   1.694  15.748 -0.2185  0.3779  0.1199
31358W        W46975   0.240   9.438   1.502 -0.0258 -0.1758  0.0261
31359W        W46976   8.852  11.972   3.568 -0.1143  0.2934 -0.1000
31360W        W46977  14.705  10.381   0.907 -0.3140 -0.3408 -0.0517
31361W        W46978  13.394   8.298   4.835 -0.0582  0.1220 -0.0143
31362W        W46979   8.363   1.616  15.003  0.0240 -0.2030 -0.0971
31363W        W46980   7.723  15.638   5.155 -0.3573  0.0284  0.3241
31364W        W46981   1.909   7.636   0.332  0.3118 -0.1720 -0.2365
31365W        W46982   2.520   4.848  11.411 -0.1088  0.0369 -0.0836
31366W        W46983   8.106  15.253   0.382  0.0108  0.1245 -0.0378
31367W        W46984   3.583  17.526  14.879  0.0492  0.3375  0.1776
31368W        W46985  13.771   0.506  13.044  0.2552 -0.4389 -0.2894
31369W        W46986   4.648  12.449  11.928  0.0947  0.1050 -0.0877
31370W        W46987   0.651  12.009   4.946  0.0512 -0.0895 -0.1402
31371W        W46988   5.632   6.651  15.382 -0.1487  0.0783  0.1461
31372W        W46989   0.786  15.804   5.357 -0.2827 -0.2122 -0.1491
31373W        W46990   1.627   8.387  12.209 -0.2257  0.2290  0.0963
31374W        W46991  14.971   0.321   0.420 -0.1609 -0.3552 -0.0139
31375W        W46992   7.638   6.202  14.713  0.5028 -0.1855 -0.0700
31376W        W46993   9.992   8.099   0.079 -0.2063  0.0021  0.2537
31377W        W46994   1.376  13.189  11.766  0.2071  0.0885 -0.1850
31378W        W46995   3.996   5.127  11.576  0.2116 -0.3986 -0.0030
31379W        W46996   8.271   8.808  13.745  0.0260 -0.0275 -0.0277
31380W        W46997   0.298  16.687  13.591 -0.0279  0.1565  0.0124
31381W        W46998  16.907   2.177   5.152 -0.1239 -0.0666 -0.1509
31382W        W46999   6.595  11.344  12.658  0.1274 -0.2177  0.1641
31383W        W47000   8.039   0.792  12.160 -0.1966 -0.1382 -0.0363
31384W        W47001  10.835   9.090   1.702  0.0973  0.0764 -0.0259
31385W        W47002  14.046   2.135   0.488 -0.0569  0.0046 -0.0137
31386W        W47003   3.360   9.848   1.519  0.1785 -0.1610  0.0494
31387W        W47004  11.331  10.303  15.918 -0.0444  0.0173 -0.0511
31388W        W47005  10.236   5.215  13.816 -0.0543  0.0683  0.0913
31389W        W47006   4.345  11.032  15.146 -0.1542 -0.3860  0.0757
31390W        W47007   1.736   6.838  16.670  0.1805 -0.0680 -0.0245
31391W        W47008   2.093  16.301   2.269 -0.0674 -0.0998  0.0353
31392W        W47009   0.920   5.047   2.141 -0.0253 -0.0685 -0.0648
31393W        W47010  16.072  17.464   5.701  0.2520 -0.1869 -0.1497
31394W        W47011  10.897  16.694   5.651  0.1549  0.1964 -0.0576
31395W        W47012   3.626  17.789   2.454 -0.0802 -0.0236  0.5855
31396W        W47013  10.823   7.771  12.306 -0.2222 -0.4711 -0.1714
31397W        W47014  11.770  13.650   2.880 -0.0134  0.2402  0.0426
31398W        W47015  12.565   0.166  14.593  0.0712 -0.0429 -0.1396
31399W        W47016   8.878   2.117  14.244 -0.0128  0.3154 -0.1323
31400W        W47017   9.987  15.339   3.062 -0.2470 -0.1886 -0.1204
31401W        W47018  11.410   8.085   5.009 -0.0120 -0.3199 -0.0331
31402W        W47019  13.349  11.594   3.070 -0.1263 -0.0451  0.1304
31403W        W47020  16.844   9.269  12.646  0.0748  0.0969  0.2860
31404W        W47021  15.383   1.113   0.669  0.2366 -0.0264 -0.1556
31405W        W47022   8.396   4.873   1.307  0.0985 -0.0424 -0.0886
31406W        W47023  14.689  13.981  12.819  0.0356 -0.1610  0.0623
31407W        W47024   6.818  16.423  13.618  0.2681 -0.4923 -0.1932
31408W        W47025  15.149   0.818  15.522  0.0745 -0.1342  0.2129
31409W        W47026   7.068   5.237   0.032 -0.0087  0.0480  0.2701
31410W        W47027  15.140  13.887   3.839 -0.1504 -0.2813  0.1398
31411W        W47028   2.696  12.559   0.954 -0.1470  0.0545 -0.0821
31412W        W47029  11.336   1.729   5.916 -0.3422 -0.1201 -0.0158
31413W        W47030   7.439   0.470  15.399  0.2427  0.1395 -0.0535
31414W        W47031   2.586   7.106   1.724  0.1809 -0.1766  0.4222
31415W        W47032   8.733  10.848   0.120 -0.2413 -0.1311 -0.0363
31416W        W47033  13.907   3.070   2.329 -0.4268 -0.0510 -0.0969
31417W        W47034  17.339   2.255  13.759 -0.0004  0.0268 -0.1171
31418W        W47035   5.905  11.142   3.260 -0.0416 -0.0414  0.0851
31419W        W47036  10.545  15.166   3.740 -0.3393 -0.1650  0.0832
31420W        W47037   0.941   9.933   5.570 -0.1031  0.0266 -0.0205
31421W        W47038   7.443   0.525   4.060  0.0848 -0.0402  0.1080
31422W        W47039   8.709   8.452   0.166  0.0783 -0.4992  0.0142
31423W        W47040   9.263  17.235   2.594 -0.0639 -0.1909 -0.0473
31424W        W47041   8.914   3.972   4.762  0.1167  0.0166 -0.1104
31425W        W47042   6.761   8.763   5.343 -0.0115  0.1768  0.0171
31426W        W47043   6.830   9.421  15.943 -0.0358 -0.1301 -0.0390
31427W        W47044   9.131   3.557  15.438 -0.1295  0.1673  0.2642
31428W        W47045  15.765   9.689   3.584 -0.1854 -0.2777 -0.1537
31429W        W47046   8.391   3.923   4.783  0.0318  0.2443  0.0879
31430W        W47047  11.693   5.641   3.375 -0.1451 -0.0476 -0.0817
31431W        W47048   2.445  11.599   0.548 -0.0658  0.3134  0.2220
31432W        W47049  15.019   7.103   6.338 -0.1510  0.0628 -0.0212
31433W        W47050  17.132  16.340   4.793 -0.2007  0.0784  0.0256
31434W        W47051   3.072   7.182  12.908 -0.0780  0.1883  0.2058
31435W        W47052  14.614  11.362   5.981  0.2004  0.2646  0.1636
31436W        W47053  16.265   9.391   5.898  0.0890  0.0166 -0.2804
31437W        W47054  16.579   4.889   2.167  0.0040  0.1484 -0.1390
31438W        W47055   3.876  10.798  16.826  0.2446 -0.0719  0.1476
31439W        W47056   8.164  17.543   0.284  0.1911 -0.0721 -0.2498
31440W        W47057  13.024   6.811   3.946  0.1371 -0.0649  0.1844
31441W        W47058  14.948   8.066   2.558  0.1852 -0.2779  0.1832
31442W        W47059   7.133  14.662  11.225 -0.1966 -0.3407  0.0112
31443W        W47060  11.754   7.082   1.667  0.2591 -0.0468  0.1126
31444W        W47061   9.174  17.231   1.986  0.0461  0.1777  0.0698
31445W        W47062   1.251   8.383  11.549  0.1498 -0.0436  0.2449
31446W        W47063   4.995   7.641  15.751 -0.0454 -0.0038 -0.0164
31447W        W47064  16.809   2.702  11.802  0.3942 -0.2594 -0.2652
31448W        W47065   6.118   4.142   3.808  0.1900 -0.0169 -0.2252
31449W        W47066  16.129   8.949   1.211  0.2603  0.0130 -0.0765
31450W        W47067   6.550  15.963   1.120 -0.2104  0.3088 -0.0102
31451W        W47068   5.632  10.840   1.671  0.0799 -0.1710 -0.1351
31452W        W47069   5.758   4.460   4.114  0.1030  0.1663  0.0378
31453W        W47070   7.497   6.869   2.743 -0.0097  0.1125  0.0341
31454W        W47071   5.637   1.343  15.417 -0.0087  0.2836 -0.1524
31455W        W47072  12.406   4.278   3.661 -0.1191 -0.0555 -0.1574
31456W        W47073   8.490   7.105   1.002  0.0764 -0.0441 -0.1669
31457W        W47074   4.242   1.547   1.950 -0.3172 -0.0487  0.2226
31458W        W47075  16.217   5.291   5.371  0.1369  0.1415  0.0590
31459W        W47076   7.598  16.833   4.589  0.1748  0.0920  0.0815
31460W        W47077   9.278  12.229  12.364  0.0700 -0.0799 -0.0825
31461W        W47078   0.790   4.349   5.575  0.1070  0.3375 -0.0472
31462W        W47079   5.861  17.128   3.181  0.1362 -0.0791 -0.3145
31463W        W47080  10.784  16.346   5.320 -0.0397 -0.0605  0.0513
31464W        W47081   0.654   8.923  16.611  0.0033 -0.0789  0.2241
31465W        W47082   1.754  11.114  12.189 -0.2016 -0.0197  0.0499
31466W        W47083   6.633   0.940  15.282  0.0806 -0.0213  0.1994
31467W        W47084   2.006   9.075   0.402  0.0447  0.0313 -0.0225
31468W        W47085  17.288   1.777  13.601 -0.0469  0.2930  0.1574
31469W        W47086  12.300  15.057   3.118 -0.1796  0.2174  0.1831
31470W        W47087  11.817   3.502   1.742 -0.1710  0.0447 -0.3381
31471W        W47088  16.363   9.527  12.575  0.1615 -0.1366 -0.0638
31472W        W47089  11.330  16.844  15.172 -0.1295  0.1469  0.0174
31473W        W47090   4.247   6.662   1.340 -0.0681 -0.1372  0.2265
31474W        W47091   3.921  13.597   0.175 -0.0651  0.1969  0.0273
31475W        W47092  10.405  16.853  11.401 -0.3775  0.1159  0.0568
31476W        W47093  15.946   0.600   4.115 -0.0767 -0.1539  0.0316
31477W        W47094  11.729   0.754  13.974  0.1620  0.1196  0.1719
31478W        W47095  13.356  17.293   6.373 -0.1206  0.0120 -0.0831
31479W        W47096   6.003   0.657  15.239  0.1109  0.0625  0.0711
31480W        W47097   6.115  13.052  15.310  0.0340 -0.2286  0.1683
31481W        W47098  13.965   3.033  11.846  0.0276  0.1769 -0.0269
31482W        W47099  11.237   3.676   4.734  0.0864 -0.0990  0.1189
31483W        W47100  17.614   3.746   3.411  0.0435 -0.0499  0.0968
31484W        W47101   8.648   2.478   5.877  0.1534 -0.0866  0.6335
31485W        W47102   0.415   3.331  16.643 -0.0035  0.0359 -0.0070
31486W        W47103   7.320   4.935  12.367  0.1051 -0.1596  0.3124
31487W        W47104   6.323  17.810   3.957 -0.2696  0.0198  0.0172
31488W        W47105   8.536  12.756   1.561  0.0350  0.1774  0.0603
31489W        W47106  16.330  11.312   1.027  0.0631  0.1592  0.1479
31490W        W47107  11.409  16.506  13.306 -0.4489 -0.0483 -0.1166
31491W        W47108   5.404  14.575   5.095  0.1421 -0.1554  0.1313
31492W        W47109   8.699  17.784  15.205  0.2197  0.0486  0.2345
31493W        W47110   0.517  11.782   3.116  0.0745 -0.2716  0.0171
31494W        W47111  13.825  17.359   1.837 -0.2847  0.0774 -0.3903
31495W        W47112   1.631   9.636   5.250  0.0496  0.3591  0.2918
31496W        W47113  14.352   5.470   2.623  0.0264 -0.1897  0.2794
31497W        W47114   3.091  10.057  13.228 -0.0032  0.1098  0.3117
31498W        W47115   5.376   1.787  11.009 -0.3513  0.3490  0.0452
31499W        W47116  11.739  15.579  14.909  0.0883  0.1594 -0.3532
31500W        W47117  12.309   1.623   6.127 -0.0512 -0.0800 -0.0594
31501W        W47118   6.100  15.489   2.133  0.0937  0.0113  0.0304
31502W        W47119  16.154   1.342  13.714  0.2777  0.1679  0.1206
31503W        W47120  17.421  15.276   3.373 -0.1869 -0.0062 -0.0574
31504W        W47121  10.722   0.563   0.490 -0.2111  0.0526  0.3381
31505W        W47122   4.448   5.925  15.445  0.0466 -0.0997 -0.2764
31506W        W47123   2.665  16.744  16.824 -0.2772 -0.0710  0.0195
31507W        W47124  15.066   4.179   3.512  0.1914 -0.0737 -0.2417
31508W        W47125   1.638   7.402   1.775 -0.1976  0.0343 -0.3260
31509W        W47126   1.467   8.623  12.970  0.1185 -0.0352 -0.0066
31510W        W47127   7.474  13.338  16.444  0.1211 -0.0981 -0.2013
31511W        W47128   7.015  15.791   0.554  0.0084  0.2324 -0.0841
31512W        W47129   1.385  12.144  16.552 -0.0755 -0.0873  0.1067
31513W        W47130  10.523   7.693   1.850 -0.0475  0.1057 -0.1394
31514W        W47131  13.424  10.027   5.647 -0.2325  0.0017 -0.0546
31515W        W47132   8.883  10.831   1.672  0.2732 -0.0036 -0.0902
31516W        W47133   7.836  13.818   5.793  0.1178  0.0558 -0.1854
31517W        W47134   8.676   2.701  16.226 -0.2100  0.1559 -0.1725
31518W        W47135  10.103   4.457   5.472 -0.0005  0.1375  0.0737
31519W        W47136   5.669   3.244  15.394  0.3087  0.2573 -0.1873
31520W        W47137  13.780  11.183   4.215 -0.0846 -0.1217  0.0128
31521W        W47138  13.676  16.666   4.076 -0.3373 -0.2443 -0.1535
31522W        W47139   0.329   5.026   6.213  0.1853  0.2043  0.1934
31523W        W47140  13.359   5.199   3.576  0.0460  0.2754 -0.0455
31524W        W47141   7.072   5.899   0.619  0.1678 -0.3105  0.0772
31525W        W47142   1.801   8.460  13.882  0.0828  0.2886  0.3883
31526W        W47143  10.259  14.539  13.327  0.1573  0.1401  0.0952
31527W        W47144   2.385   2.216  14.436  0.1212 -0.1359 -0.1199
31528W        W47145  10.236   3.383   1.087 -0.0991  0.2326  0.0064
31529W        W47146  10.775  14.444  16.224 -0.1070 -0.0202  0.1669
31530W        W47147  13.446  10.819   5.589  0.0318 -0.5336 -0.0695
31531W        W47148   3.296   6.723   5.007 -0.5123 -0.0642  0.1345
31532W        W47149  16.249   9.377   6.418  0.0822  0.1201  0.1002
31533W        W47150  14.357  11.543  13.500  0.2228  0.0130  0.2355
31534W        W47151   8.699  15.932   4.804  0.3079  0.1053  0.1281
31535W        W47152  16.579   2.584   5.396  0.0121  0.3685  0.0792
31536W        W47153  12.535   0.582   3.216 -0.0156 -0.0460  0.1156
31537W        W47154   9.336   1.165  12.198 -0.1466  0.1170 -0.0663
31538W        W47155   0.248  10.204  12.113 -0.1082 -0.1060 -0.0919
31539W        W47156   5.048  14.058   3.819 -0.3126  0.0708 -0.2123
31540W        W47157   7.681   9.081   0.662  0.0510 -0.0834  0.0305
31541W        W47158  13.786   4.818   2.425 -0.4266 -0.1587  0.0310
31542W        W47159   8.144   3.577  13.223 -0.2281 -0.2675 -0.1299
31543W        W47160  16.375   6.247  16.551 -0.0579 -0.3189 -0.1582
31544W        W47161  16.671  14.844   3.003 -0.1245 -0.2494  0.0945
31545W        W47162   4.065  11.896  11.766 -0.1874  0.0058  0.0802
31546W        W47163   5.298   4.248   4.080  0.0565 -0.0330  0.0077
31547W        W47164   2.590   6.767  12.432  0.3502 -0.2350 -0.0434
31548W        W47165  11.757   9.688  14.558  0.0957 -0.1357 -0.0727
31549W        W47166  14.041  10.452   3.469  0.3509 -0.0327  0.2164
31550W        W47167   4.718   3.186  13.463 -0.1371  0.0735 -0.2999
31551W        W47168   7.725   0.987  14.507  0.0427  0.1440  0.1487
31552W        W47169  12.850  12.237  13.057  0.0439  0.0727  0.0118
31553W        W47170  13.856   2.088   4.626 -0.1239  0.2248  0.1603
31554W        W47171   4.648   2.845  15.703 -0.2254  0.1128 -0.0301
31555W        W47172  17.076   0.825   0.378  0.0025  0.2420 -0.0868
31556W        W47173   9.728   2.232   4.458  0.3375  0.2342  0.0909
31557W        W47174   6.054   0.965   2.045 -0.1105  0.1657  0.1132
31558W        W47175  16.488   2.404  16.600 -0.0756  0.2388  0.0793
31559W        W47176  16.871   4.994   0.581  0.2070  0.1171  0.0743
31560W        W47177  16.313  13.698  12.153 -0.1755  0.1394  0.0455
31561W        W47178  10.091   8.906   2.653  0.2413  0.0860  0.1041
31562W        W47179   2.686  15.784   5.738 -0.1878  0.1211 -0.0578
31563W        W47180  10.275   0.128   3.550  0.2094  0.2154 -0.1689
31564W        W47181  12.940  16.147  12.239  0.3447  0.1688  0.0906
31565W        W47182   6.238  14.708  14.423  0.0741  0.1711  0.0352
31566W        W47183  10.523  13.355   0.068  0.3861 -0.1943 -0.0153
31567W        W47184  15.657   2.622   5.368 -0.5282  0.0658  0.0701
31568W        W47185   4.892   1.365   3.042  0.2167 -0.2564 -0.0539
31569W        W47186   7.788  13.775  16.742  0.0373 -0.3239 -0.0364
31570W        W47187   7.528   6.154   5.532  0.1235  0.3532  0.3807
31571W        W47188   7.738  15.409  11.409  0.0412  0.1219 -0.1249
31572W        W47189   6.020   6.101  13.604  0.3431 -0.0053 -0.1332
31573W        W47190  13.976  17.506  12.700  0.0136  0.0473 -0.3950
31574W        W47191  11.971  16.360  13.981  0.1369  0.1233  0.2281
31575W        W47192   3.485   9.964   5.375  0.0484 -0.0758 -0.0825
31576W        W47193  10.603  17.809   3.172  0.2132  0.2032 -0.0507
31577W        W47194  10.021  13.802  16.452  0.2024  0.0104  0.0915
31578W        W47195  16.787  15.653  10.300  0.1447 -0.1975 -0.1098
31579W        W47196   6.083   9.991   5.377  0.0544  0.5378  0.0366
31580W        W47197   0.298  15.180  14.234  0.3738  0.1741  0.2648
31581W        W47198   4.085  12.371   2.590  0.3015 -0.0990 -0.1929
31582W        W47199   7.256  14.050   3.509  0.1737 -0.1647 -0.0182
31583W        W47200  15.126  15.803   2.137  0.0900 -0.1670 -0.1866
31584W        W47201  15.818   6.737   5.183  0.3006 -0.0494 -0.3036
31585W        W47202  13.651   3.519   4.695 -0.0303  0.0599 -0.1962
31586W        W47203   9.201   0.152   2.356  0.0669  0.1764  0.0036
31587W        W47204  13.617  14.813  16.661  0.0151 -0.0104 -0.0781
31588W        W47205  13.803   9.472  15.743 -0.1924  0.0060  0.1540
31589W        W47206   0.326   8.641  13.136 -0.1496 -0.1700 -0.0065
31590W        W47207   5.813  10.842  14.818 -0.1491  0.0110  0.0769
31591W        W47208  15.617   4.477   4.922 -0.0563 -0.0719  0.1818
31592W        W47209  15.572   6.956  15.199 -0.1601  0.0176  0.0895
31593W        W47210  12.182  15.581   5.999  0.2262 -0.0991  0.0416
31594W        W47211  14.056   6.471  12.784  0.0219 -0.0184  0.0800
31595W        W47212   8.369   1.983  14.264  0.0061  0.0570  0.0764
31596W        W47213  10.418  12.991  12.726  0.1763  0.1551  0.0121
31597W        W47214   0.120   1.059  16.424  0.1408  0.0481 -0.1341
31598W        W47215   1.430   5.592  15.848  0.2654 -0.0134 -0.0344
31599W        W47216  13.469   3.247   5.084  0.0736 -0.2241  0.0250
31600W        W47217  16.958  12.846  16.249  0.0412  0.0253 -0.1495
31601W        W47218   7.266   5.698   5.079  0.2192  0.1574  0.1154
31602W        W47219   3.799   2.732   5.304  0.0847  0.2278  0.1124
31603W        W47220   6.573   4.590   4.787 -0.1644  0.0092  0.0035
31604W        W47221   7.078   8.447   5.571 -0.2054  0.1879 -0.1592
31605W        W47222   8.580   4.705  14.082  0.0411 -0.4196  0.1135
31606W        W47223  17.468  17.829  13.276 -0.0915  0.4989 -0.0440
31607W        W47224   8.749  13.686  12.514  0.2183 -0.0800 -0.2906
31608W        W47225   2.923   1.600  15.388 -0.0130 -0.0774  0.3000
31609W        W47226  17.663   0.037   0.114 -0.6237  0.1710  0.2017
31610W        W47227  16.520   6.918  14.542 -0.1076 -0.1301  0.0608
31611W        W47228  10.263   4.357   1.599  0.1604  0.0673  0.0194
31612W        W47229   0.150  11.761   5.777 -0.2196 -0.2079  0.3343
31613W        W47230   9.146  11.551  14.608 -0.2498  0.0292 -0.1711
31614W        W47231  11.391  12.778   1.027 -0.1208 -0.2060  0.1637
31615W        W47232   2.021  10.178   4.673 -0.0599 -0.1326 -0.0732
31616W        W47233   1.228  14.073   3.786 -0.0320  0.1647 -0.1930
31617W        W47234  15.142   8.351  13.891  0.1481 -0.0676 -0.0077
31618W        W47235   9.834   9.061  16.294  0.0483  0.2842  0.3151
31619W        W47236  10.354  16.787   5.946  0.1149  0.0898  0.3066
31620W        W47237   3.477   1.416   2.456  0.4329 -0.1193  0.1273
31621W        W47238  10.266  16.061  15.700  0.0562 -0.0090 -0.1270
31622W        W47239   8.912   1.777  10.580 -0.0366  0.0271  0.1366
31623W        W47240  14.149   4.266   3.090  0.1633  0.2378 -0.3481
31624W        W47241  11.692   2.103  15.918 -0.0084  0.1304  0.1214
31625W        W47242  14.800  17.255   4.021 -0.2551 -0.0683  0.0163
31626W        W47243  16.872  14.877   3.472 -0.0397  0.0634  0.1231
31627W        W47244   0.780   6.818   2.886 -0.1053 -0.1229 -0.0179
31628W        W47245   3.782   5.266  12.944  0.0348  0.0406  0.0027
31629W        W47246   3.791  14.302   3.513 -0.0702  0.0545 -0.1525
31630W        W47247   8.265  15.000   1.718 -0.2710  0.1777 -0.0272
31631W        W47248  10.459  14.776   1.657 -0.1426 -0.2762 -0.1215
31632W        W47249   1.617   2.799  12.600  0.1453 -0.0753  0.1563
31633W        W47250   5.903  10.474   1.879 -0.2432  0.1614 -0.0698
31634W        W47251   4.733   1.885  15.971  0.0633 -0.4042 -0.1256
31635W        W47252   3.289   3.880  11.811 -0.0941  0.2730 -0.1023
31636W        W47253  14.330   3.184   2.665 -0.1655  0.0326 -0.1262
31637W        W47254  12.178   0.352   5.183 -0.1665 -0.0711 -0.2379
31638W        W47255  17.661   3.054  15.217  0.3138  0.0100 -0.3362
31639W        W47256  13.990   1.326  11.351  0.4481  0.0926  0.1138
31640W        W47257   1.081   1.438   5.056  0.1411 -0.2945  0.0464
31641W        W47258   6.595  16.111   3.925  0.1908 -0.1264  0.1153
31642W        W47259   3.174   5.971  16.261 -0.2403 -0.0046 -0.0930
31643W        W47260   4.090   1.489   1.489  0.0344  0.1241  0.2379
31644W        W47261  12.968   6.471   5.822 -0.2547  0.2750  0.1243
31645W        W47262  11.491  16.634   1.418  0.1185  0.1961 -0.0454
31646W        W47263   8.902  14.105  12.775 -0.0379 -0.0065  0.0936
31647W        W47264   2.609   1.416   2.816  0.0820  0.0399  0.0517
31648W        W47265   6.502   3.686   6.335  0.1267  0.0583  0.2323
31649W        W47266  16.198  15.660   3.596 -0.1702 -0.1195 -0.1024
31650W        W47267  16.642   7.910  14.297  0.0524  0.1344  0.0099
31651W        W47268  11.253   5.840   3.558  0.2410  0.0204 -0.1765
31652W        W47269  17.070   4.726   2.137  0.0351  0.1310 -0.0947
31653W        W47270   3.710  16.814   5.259 -0.0800 -0.2661 -0.2404
31654W        W47271   8.945  10.327   1.506 -0.1135 -0.3401 -0.1108
31655W        W47272   5.797  13.672  12.678  0.1347  0.1573 -0.0313
31656W        W47273   5.649   3.896   0.245 -0.0330 -0.0972 -0.1348
31657W        W47274   9.831  12.599  13.849 -0.2057  0.4297 -0.1807
31658W        W47275  12.043   0.296  16.065 -0.0806  0.0463 -0.3785
31659W        W47276   2.229  15.897   4.466  0.1680 -0.2117 -0.1380
31660W        W47277  10.294  16.304  13.414 -0.3406 -0.0870  0.5891
31661W        W47278   9.734   1.490  11.905 -0.3686 -0.0382  0.2843
31662W        W47279   0.938   2.595   4.675 -0.0906  0.0752 -0.0041
31663W        W47280  17.226   0.472  13.450 -0.0696 -0.0028  0.1840
31664W        W47281  15.396  14.029   2.269  0.1337  0.1768  0.0008
31665W        W47282  17.833  13.091  15.401 -0.1097 -0.0024  0.0312
31666W        W47283   8.800  10.045  12.110 -0.1296 -0.0936 -0.2304
31667W        W47284  12.382   8.435   0.903  0.2386  0.0567  0.2355
31668W        W47285  14.308   1.859  13.720  0.2419 -0.0311 -0.0370
31669W        W47286  14.958   4.301  12.733 -0.1495  0.2119 -0.4344
31670W        W47287   1.578  13.329   3.482  0.1413 -0.1026 -0.1690
31671W        W47288   9.768  16.349   1.199 -0.0868 -0.1092  0.1932
31672W        W47289  10.599   5.681   2.051 -0.0924 -0.1696  0.0402
31673W        W47290   6.929  10.165  13.432 -0.1524 -0.2796 -0.0670
31674W        W47291  11.834   3.739   2.918 -0.1343 -0.0286  0.1536
31675W        W47292  10.702  14.056  14.788 -0.0647 -0.2485 -0.2879
31676W        W47293   6.028   6.978  13.067  0.0101 -0.3683  0.1562
31677W        W47294  16.568  14.394  13.042  0.2748 -0.3425  0.2375
31678W        W47295  14.352  14.624  12.154 -0.0375  0.4285  0.1695
31679W        W47296  14.187   7.167   0.297  0.1272 -0.1731  0.2877
31680W        W47297   7.523   4.270   3.861  0.2000  0.1313 -0.1504
31681W        W47298   5.125  15.610  15.953  0.1171  0.3447 -0.0445
31682W        W47299  13.719   1.467   1.207 -0.1815  0.0371 -0.2823
31683W        W47300   3.986  10.484   5.982 -0.1409 -0.0453  0.1127
31684W        W47301   8.167  11.128   3.401  0.0228 -0.0592 -0.4576
31685W        W47302   5.168  15.366   3.787 -0.1629 -0.4387  0.1312
31686W        W47303   4.259   6.660  16.258  0.2961 -0.2368  0.0636
31687W        W47304   8.428   4.534   0.602 -0.0012  0.2199 -0.1678
31688W        W47305   4.798  16.800  14.061 -0.0666  0.2638 -0.1324
31689W        W47306   5.872   5.344   2.057 -0.1337  0.2549  0.1866
31690W        W47307  17.276  16.658  15.791  0.0833  0.3129  0.6001
31691W        W47308   5.848  17.522  12.979 -0.1524 -0.1540 -0.0382
31692W        W47309   3.957  15.100  13.981  0.1432  0.0151 -0.3116
31693W        W47310   7.833   9.093  13.155 -0.1714  0.1083 -0.0579
31694W        W47311   8.757   6.064  12.135  0.3831  0.0857 -0.6056
31695W        W47312   9.885   5.555   2.226 -0.0216 -0.1264  0.1957
31696W        W47313   7.605   2.072   2.514 -0.1347  0.2096  0.1081
31697W        W47314  11.440   7.483   5.212 -0.0377  0.1137 -0.1042
31698W        W47315   6.505   0.021  13.101 -0.1386 -0.1938 -0.0893
31699W        W47316   6.090   3.406   0.466  0.2891  0.0892  0.2486
31700W        W47317  15.837   4.174   3.497  0.0246 -0.2558  0.2482
31701W        W47318  16.706  14.409  11.778  0.1858 -0.0278 -0.3442
31702W        W47319   1.679  16.828  16.635 -0.1648 -0.2009 -0.0274
31703W        W47320   6.223   8.273   0.353  0.0602 -0.0656 -0.0002
31704W        W47321  10.149  10.501   4.526  0.3640  0.2044  0.0156
31705W        W47322   9.313   3.597  14.566  0.2016 -0.3648 -0.1239
31706W        W47323   9.182  15.511   1.897 -0.2228 -0.2050 -0.1075
31707W        W47324  14.712  11.086  11.797 -0.0490  0.0205 -0.1154
31708W        W47325  12.083   7.591  12.188  0.1269  0.2310 -0.1194
31709W        W47326  14.983  16.476  11.455  0.0781  0.1504  0.0320
31710W        W47327  11.535  14.881  15.553  0.1834 -0.1102 -0.1583
31711W        W47328   1.371   4.468   4.900 -0.0323  0.0273  0.1830
31712W        W47329   0.099   3.599  11.837 -0.0057  0.1922  0.0465
31713W        W47330  13.995   2.984   5.949  0.0342  0.1240  0.2403
31714W        W47331   9.294   2.076   5.100  0.2249 -0.4043 -0.1822
31715W        W47332   1.075  17.722  12.538 -0.0408 -0.3775  0.0739
31716W        W47333  11.887   5.248  12.115 -0.3303 -0.2480  0.3603
31717W        W47334  13.970   4.951   5.428  0.1680  0.1521  0.1859
31718W        W47335   9.834  13.327  12.273 -0.2523 -0.2227  0.0347
31719W        W47336  14.074  11.284   5.974 -0.1429 -0.0128 -0.0219
31720W        W47337   1.686  13.884  12.845 -0.1181  0.1954 -0.0326
31721W        W47338  17.498   9.264   2.155 -0.0646 -0.1777 -0.2436
31722W        W47339  15.807   8.459   2.453 -0.3702 -0.1486 -0.1962
31723W        W47340  16.449  16.021   3.999 -0.1391 -0.2870  0.0156
31724W        W47341  11.580   9.327   5.738 -0.0969 -0.1566 -0.0243
31725W        W47342  10.110  13.691   3.113 -0.1164 -0.2134 -0.0998
31726W        W47343   7.465   8.148   5.742  0.0641  0.0745 -0.0541
31727W        W47344   0.974  11.855  12.326  0.3275  0.0503 -0.0676
31728W        W47345  15.766   2.896  15.333  0.2853 -0.0620 -0.1630
31729W        W47346  15.372   9.255   4.580  0.4048 -0.0653  0.2053
31730W        W47347   1.942   7.939  15.055 -0.1274 -0.0032  0.4620
31731W        W47348  14.599  15.031  13.986  0.0435 -0.1258 -0.3896
31732W        W47349  14.474   8.536   3.923  0.0949  0.2168 -0.1992
31733W        W47350   5.821   5.265  15.487 -0.0955 -0.2812 -0.0380
31734W        W47351   9.861  15.140  12.577 -0.0970 -0.0287  0.2255
31735W        W47352   6.071   0.868   5.728  0.1763  0.0682  0.1573
31736W        W47353  13.389   8.439   1.911  0.1415  0.0400  0.0328
31737W        W47354  15.558   4.908  15.177 -0.0186 -0.0005  0.0390
31738W        W47355  10.732  15.665  13.985  0.0818 -0.2497  0.1344
31739W        W47356  16.279  14.128  12.624  0.5423 -0.1234 -0.0292
31740W        W47357   0.959   1.492   1.270 -0.2285  0.2155  0.0357
31741W        W47358  16.301   5.782  16.424 -0.1374  0.3248  0.0023
31742W        W47359  14.827  11.519  14.835 -0.0657  0.0158  0.0196
31743W        W47360   8.038   2.079  13.639  0.0584  0.1961 -0.2834
31744W        W47361  12.336   1.820  13.983 -0.2926  0.0585  0.1444
31745W        W47362  16.313  16.171  11.396 -0.1506  0.1496 -0.1949
31746W        W47363   0.465   3.274   4.954  0.0565  0.2007 -0.2963
31747W        W47364   5.424   3.808  13.487 -0.3481  0.1955 -0.0273
31748W        W47365   1.263   0.660   1.605  0.1266  0.0190 -0.0773
31749W        W47366  17.418  15.842  12.611  0.1790  0.0777 -0.2444
31750W        W47367   3.200   2.029   0.112  0.0359 -0.0316 -0.1415
31751W        W47368  11.742   1.643   5.378 -0.1487  0.0506  0.2403
31752W        W47369   4.676  17.431   3.140  0.2010  0.0589  0.4150
31753W        W47370  13.422   3.072   1.826  0.0285 -0.1935 -0.2424
31754W        W47371   2.018  16.220  14.206  0.1619 -0.1137 -0.0129
31755W        W47372  16.871   8.665   1.854  0.1500  0.0205  0.0203
31756W        W47373  12.473  14.164   4.034 -0.1745  0.1508 -0.0130
31757W        W47374   7.587  11.157  15.216  0.0019 -0.1058  0.1582
31758W        W47375  13.022  12.659   0.142 -0.0091 -0.2214 -0.1239
31759W        W47376  17.781   0.563   2.536  0.0133 -0.2001 -0.1382
31760W        W47377   9.351   6.311   2.444 -0.0115  0.1651 -0.0971
31761W        W47378   4.023  14.090  14.713  0.0758  0.0488  0.1829
31762W        W47379  14.272   1.642  12.590 -0.1194 -0.0610 -0.0920
31763W        W47380  11.764   3.988  12.669 -0.1902  0.2037 -0.0236
31764W        W47381  15.620   3.804   3.996  0.1195  0.1860 -0.1224
31765W        W47382   4.614  16.168   1.135  0.0241 -0.3111  0.3374
31766W        W47383   8.101   1.638   4.253 -0.0841  0.1539 -0.3482
31767W        W47384   8.341   0.159  14.375  0.1191  0.0144  0.0277
31768W        W47385   5.440   3.968   0.724  0.2864 -0.0888  0.0794
31769W        W47386   0.155  16.628   2.567  0.1635  0.0887 -0.3415
31770W        W47387   5.371   4.097  15.284  0.0779  0.2426 -0.1831
31771W        W47388   2.061   2.049   2.829  0.2189  0.0234  0.0605
31772W        W47389  14.739  11.466   4.192 -0.2705  0.2878  0.4735
31773W        W47390  17.603  15.716  14.753 -0.0590 -0.0443 -0.0021
31774W        W47391  12.440  10.484   1.984 -0.0816 -0.0971  0.1899
31775W        W47392   4.995   0.141  12.962  0.0009 -0.0329  0.1483
31776W        W47393  12.105   6.585   4.005  0.0367  0.2039  0.2457
31777W        W47394  16.778   8.690   6.421 -0.1224  0.0771  0.0304
31778W        W47395  16.337  12.516   0.582 -0.0983  0.0875 -0.2350
31779W        W47396  16.190  12.691  13.692 -0.1940 -0.3232 -0.1608
31780W        W47397  14.138   5.143   2.253  0.1854  0.0892 -0.1950
31781W        W47398  14.327   8.128  11.750  0.1209 -0.0007  0.0112
31782W        W47399  13.946   0.201   1.291  0.1543 -0.1979 -0.3417
31783W        W47400   0.665  11.702  12.698 -0.1258  0.2561  0.4511
31784W        W47401   9.148   3.153   0.645 -0.1437 -0.0124 -0.0698
31785W        W47402   8.433   7.734   3.762  0.0230 -0.1823 -0.0350
31786W        W47403   1.046   1.424   3.945  0.0048 -0.2653  0.1605
31787W        W47404   9.262   9.687   3.166 -0.2644 -0.1448  0.5050
31788W        W47405   5.045   7.198  14.803  0.1431 -0.1319 -0.1293
31789W        W47406  16.067   9.500   3.974  0.0431 -0.2899 -0.0414
31790W        W47407   6.627   8.540  13.002 -0.0623  0.0193 -0.3504
31791W        W47408   6.259   1.570   4.997 -0.0205  0.0778 -0.0579
31792W        W47409  14.009  11.907  14.419  0.2086 -0.0216  0.3086
31793W        W47410   7.661  13.430   2.182 -0.0959  0.0172  0.0103
31794W        W47411   1.562  13.499   4.840 -0.0079 -0.0816 -0.1642
31795W        W47412  13.682   7.913   1.860  0.0735 -0.4679  0.0077
31796W        W47413   7.340   5.149  12.908  0.3509  0.2376  0.0892
31797W        W47414  10.276  16.673   2.509  0.3921 -0.0321 -0.1219
31798W        W47415   8.985  17.583   2.410  0.2833 -0.1803 -0.1554
31799W        W47416   7.787   8.092   0.276 -0.0097 -0.0342  0.0186
31800W        W47417   4.760  13.114  14.578  0.0112 -0.1825 -0.2587
31801W        W47418   3.603   5.220  13.453  0.3779 -0.5292 -0.0520
31802W        W47419   1.428   0.422   6.092  0.0777  0.0003 -0.1130
31803W        W47420   5.637   8.315   5.299 -0.2291  0.0628  0.0216
31804W        W47421   4.191  12.848  11.450 -0.3519 -0.0795 -0.1575
31805W        W47422   3.409  13.932  15.356  0.0203 -0.0293 -0.0324
31806W        W47423   5.027   6.976   0.914  0.0608  0.3769 -0.1108
31807W        W47424   8.920   9.735  14.363 -0.0480  0.1901 -0.0734
31808W        W47425  11.811   3.949  12.177  0.4314  0.0141  0.1137
31809W        W47426  17.768   6.944  14.675  0.1066  0.0074 -0.2027
31810W        W47427  15.995   9.546  16.329  0.1822 -0.2057 -0.1572
31811W        W47428   0.146   1.460  16.108  0.1400  0.0185  0.1160
31812W        W47429  12.673  12.872  16.603  0.0537  0.2508  0.0930
31813W        W47430   1.828   6.304   4.729  0.1164  0.0708 -0.1887
31814W        W47431   4.675   4.819  12.778 -0.1187 -0.2357 -0.1500
31815W        W47432  14.670  10.496  11.683  0.3034 -0.1548  0.0208
31816W        W47433   9.887   6.905   5.698  0.1302  0.0517  0.1728
31817W        W47434  16.303  10.898  15.840 -0.0568  0.2246  0.1242
31818W        W47435  14.696   4.082  12.380 -0.0222  0.0654  0.0624
31819W        W47436  13.087  17.310   4.674  0.2962  0.0074 -0.0273
31820W        W47437  12.933  16.962  13.806  0.0249  0.2673 -0.1699
31821W        W47438  13.208  14.737  11.648 -0.2748 -0.1261 -0.2411
31822W        W47439  14.134  15.801  14.332 -0.1604 -0.1605 -0.1079
31823W        W47440   5.346   0.161  13.384  0.0734  0.0559 -0.0694
31824W        W47441  10.441   0.973   0.540  0.1341  0.2784  0.3865
31825W        W47442  15.657   8.757   3.240 -0.0487 -0.2659 -0.0919
31826W        W47443  15.985   3.071  15.817  0.3900  0.2118  0.0405
31827W        W47444   0.543   7.150  14.657  0.1651  0.0138 -0.2351
31828W        W47445   1.972   1.185  12.807  0.1134 -0.1145  0.2864
31829W        W47446   4.058  17.687   3.673 -0.1384  0.2231  0.4016
31830W        W47447  12.140  10.267  12.873 -0.0952  0.0693 -0.0999
31831W        W47448   1.151   2.808   0.438  0.1389 -0.1519  0.0964
31832W        W47449   2.114   9.061   2.913  0.2483  0.1572  0.0383
31833W        W47450   7.725  17.156  12.260  0.0502  0.0093 -0.0732
31834W        W47451  14.825   8.811   3.212 -0.2672  0.0077 -0.2626
31835W        W47452   3.441   0.525   2.441 -0.2033  0.1184  0.1618
31836W        W47453  14.480  13.414   2.218 -0.0578  0.0522  0.2235
31837W        W47454   2.735   6.489  15.619  0.2962  0.0399  0.2590
31838W        W47455   4.745   3.600   5.221  0.1797  0.1011  0.2153
31839W        W47456   9.281  17.011  13.589 -0.0872  0.1830 -0.1379
31840W        W47457   2.002   0.002  13.641 -0.0045 -0.1685 -0.0671
31841W        W47458   0.363  11.040   6.008  0.0415  0.1391 -0.1385
31842W        W47459  11.820   8.322   2.594  0.0308  0.2370  0.3178
31843W        W47460   1.915  10.634   3.896 -0.0239  0.0290 -0.0775
31844W        W47461  15.094   1.454  14.108 -0.0389 -0.0850  0.0908
31845W        W47462   2.757   1.971  14.198 -0.2614 -0.4311 -0.1647
31846W        W47463   6.304  14.321   1.920 -0.2942 -0.1413  0.0033
31847W        W47464  16.625   7.558  11.694 -0.2881  0.1243 -0.1930
31848W        W47465  16.103  17.204   1.752 -0.1340 -0.0573  0.2174
31849W        W47466   9.943   2.039   2.127  0.0610  0.2381 -0.0443
31850W        W47467  11.318  12.493   4.337 -0.0157 -0.3092  0.0406
31851W        W47468  12.905   0.762  14.007 -0.0737  0.0334 -0.1766
31852W        W47469   9.213   8.710  12.153  0.0012 -0.2269 -0.1814
31853W        W47470  15.475   7.185   5.326 -0.0331  0.4699 -0.0598
31854W        W47471  17.024  12.129   3.909 -0.2125 -0.3202  0.0637
31855W        W47472  14.316  15.828   1.646 -0.2612  0.1835  0.0423
31856W        W47473   8.810  16.081   1.086  0.1411 -0.1718  0.1561
31857W        W47474   2.572  10.370  11.810 -0.1906 -0.1862  0.2478
31858W        W47475   0.785   3.198   4.003 -0.1575 -0.0760  0.0661
31859W        W47476   4.442   8.051   2.833 -0.0032 -0.3152 -0.2488
31860W        W47477  14.943  12.738   6.096 -0.0757 -0.3200  0.1513
31861W        W47478   1.347   1.055   2.664  0.2666  0.2300 -0.3685
31862W        W47479  13.520   9.904   2.938  0.2392  0.2186  0.0631
31863W        W47480   9.574  13.775   2.273  0.2363  0.4843  0.0434
31864W        W47481   6.215   4.189   5.751  0.0163  0.0965 -0.0610
31865W        W47482   4.894   4.233   4.575 -0.0878 -0.0675 -0.1423
31866W        W47483  10.462  14.383   5.115 -0.0693  0.1112 -0.0669
31867W        W47484   1.513   5.310   5.061 -0.1125  0.3549  0.0004
31868W        W47485  17.101  10.376  15.391 -0.1287 -0.0424 -0.1445
31869W        W47486  10.029   8.977   0.718 -0.0974 -0.1716 -0.0244
31870W        W47487   8.542   9.523   1.811 -0.1239 -0.1358  0.1213
31871W        W47488   9.880  16.444   4.176  0.1212  0.1558 -0.0975
31872W        W47489  14.676  16.727   1.638 -0.0160 -0.1154  0.1802
31873W        W47490   8.932   7.416   5.051  0.1379 -0.0367  0.0015
31874W        W47491   7.877  15.027   2.121  0.1119  0.1772  0.2666
31875W        W47492   7.849  11.177  16.436  0.0049  0.2566 -0.0204
31876W        W47493  12.345   6.232   3.525  0.1365 -0.1570 -0.1274
31877W        W47494  10.257   2.264   4.492  0.0736 -0.0165 -0.4953
31878W        W47495  15.136   4.332   1.276  0.0811 -0.0863 -0.2629
31879W        W47496  17.264  16.984  11.262 -0.3106 -0.2696  0.0195
31880W        W47497   1.461   3.103  14.168 -0.1772  0.0695  0.1103
31881W        W47498   5.383   7.137  13.909 -0.0487  0.1841  0.2828
31882W        W47499   8.572   7.400  13.521  0.1363 -0.1381  0.0195
31883W        W47500   4.207  15.194  16.202  0.3871  0.1222  0.2043
31884W        W47501   6.740   4.518  11.997 -0.0615  0.2717  0.2058
31885W        W47502   7.861   1.735   2.899  0.1475 -0.2767 -0.0027
31886W        W47503  11.041   2.644   1.676  0.0302  0.0422  0.4270
31887W        W47504   4.508   2.797  16.607 -0.0658 -0.2148  0.1740
31888W        W47505   0.005   1.886   1.142 -0.1341  0.0276  0.1228
31889W        W47506   0.720   2.521  14.155 -0.3089 -0.1523  0.3088
31890W        W47507   5.412   4.354  13.279 -0.0183 -0.1882 -0.0678
31891W        W47508  10.754   5.747   4.792  0.1745 -0.0450  0.1589
31892W        W47509  14.391   2.139  16.245 -0.2593  0.0985  0.0434
31893W        W47510   6.164   1.301  12.131  0.0190 -0.2310  0.1351
31894W        W47511  13.933  17.169   5.792  0.2119  0.0714 -0.0233
31895W        W47512   6.347  11.790  14.830  0.1124  0.0343 -0.0196
31896W        W47513  10.134  15.483   2.134 -0.1782 -0.1051 -0.0342
31897W        W47514  10.714  12.385  13.465  0.3563  0.0204  0.0178
31898W        W47515  14.042   3.151   3.750 -0.4863 -0.0157 -0.0478
31899W        W47516   3.041   5.000  16.386  0.0347 -0.2674  0.1591
31900W        W47517  11.384  16.625  16.043  0.0553  0.1289 -0.1934
31901W        W47518   5.879   5.283  12.922 -0.2118  0.1288  0.1287
31902W        W47519  14.521   7.606   3.538 -0.1828  0.0973  0.1041
31903W        W47520  15.277  10.541  12.428 -0.0031  0.2076 -0.2117
31904W        W47521  10.707   7.144   2.602  0.2667 -0.1121  0.4013
31905W        W47522  13.865   6.285   1.217 -0.0876 -0.1952  0.1988
31906W        W47523  15.654  16.860   0.131 -0.0499  0.4055  0.0364
31907W        W47524   3.416   1.394  15.873 -0.0001 -0.3098 -0.1819
31908W        W47525   3.709   9.413  14.701  0.0964 -0.2535 -0.0519
31909W        W47526   2.183   7.870   0.912  0.1140  0.1643 -0.0892
31910W        W47527   6.915   3.113   0.585  0.1610 -0.0399  0.2017
31911W        W47528   5.006   9.510   3.173  0.2261  0.1392  0.1553
31912W        W47529   6.524  10.272   5.543 -0.1757  0.0848 -0.1227
31913W        W47530   6.377   6.005   4.449 -0.1855 -0.2844  0.0430
31914W        W47531   9.376  12.616  14.019  0.0032 -0.2219 -0.1728
31915W        W47532  11.564  11.585  11.184  0.0865 -0.0640 -0.1336
31916W        W47533  16.682  14.386   2.343  0.1713  0.1074 -0.2572
31917W        W47534  14.593   8.936   2.273 -0.1161  0.1007  0.1205
31918W        W47535   2.964  16.657   2.809  0.1906 -0.1200 -0.2308
31919W        W47536  13.512   4.144   5.564  0.0188 -0.0569  0.0280
31920W        W47537  16.039   4.728  15.197  0.1870  0.0487  0.0359
31921W        W47538   6.464  16.938  16.519  0.1107 -0.2423  0.0352
31922W        W47539  13.411   8.069   3.839 -0.2469  0.1637  0.1064
31923W        W47540  10.459  12.807  13.230 -0.1840 -0.0336  0.1329
31924W        W47541  16.712  10.285  14.326  0.0803  0.1137 -0.1350
31925W        W47542  12.813   0.107  12.204  0.0703 -0.0290  0.2406
31926W        W47543  11.850  12.218   5.535 -0.2300 -0.1740 -0.1932
31927W        W47544   4.237   9.655  12.304 -0.1629 -0.2153  0.0431
31928W        W47545   8.211   8.445   4.852  0.0551 -0.2301 -0.2835
31929W        W47546  11.709  14.960   5.414 -0.1869 -0.2185 -0.0413
31930W        W47547  16.751   3.854   1.525 -0.2267 -0.0090 -0.2878
31931W        W47548  12.085  10.121  10.881  0.0139  0.1587  0.0948
31932W        W47549  16.969   9.010  15.548  0.0091 -0.1458  0.0853
31933W        W47550  11.582   4.070   3.595 -0.2234  0.1043  0.2519
31934W        W47551   0.526   7.362   0.247  0.2783  0.1121 -0.1721
31935W        W47552   9.981   2.394  14.022 -0.0836 -0.0346 -0.0399
31936W        W47553  13.955   4.097  12.091  0.1134  0.0746 -0.1342
31937W        W47554   4.784   5.166   4.991 -0.0452 -0.2299 -0.2050
31938W        W47555  17.032  13.457  12.653  0.1343 -0.1131 -0.0750
31939W        W47556  17.388  11.043  15.573 -0.0659 -0.0361 -0.0476
31940W        W47557  16.442   2.814  15.894 -0.0747 -0.1098  0.2256
31941W        W47558   1.238  11.246   6.273 -0.1580 -0.0767  0.1186
31942W        W47559   8.105   0.318   1.515  0.2958  0.2567 -0.0544
31943W        W47560   9.217  17.178  11.784 -0.1249  0.1187  0.5133
31944W        W47561   8.058  14.900  13.677 -0.0850  0.1633 -0.2907
31945W        W47562   5.022   8.284   6.455 -0.1894  0.0236 -0.0725
31946W        W47563  11.238  16.223   1.749 -0.0545  0.0843  0.0028
31947W        W47564  17.453   8.484  12.737 -0.1403  0.2810 -0.0323
31948W        W47565   7.727   5.846  14.252  0.0706 -0.0924 -0.1259
31949W        W47566   8.317  16.333   4.100  0.2509  0.0033  0.1894
31950W        W47567  16.013   6.250  16.200 -0.2638  0.1868  0.3182
31951W        W47568  14.449   3.185   5.513  0.1498 -0.0782  0.1806
31952W        W47569   4.522   8.809  15.784 -0.2532 -0.1573 -0.1681
31953W        W47570  14.323  15.300  11.364 -0.2751 -0.0811  0.1039
31954W        W47571  16.323   5.809   2.768 -0.1857 -0.2165  0.0408
31955W        W47572   2.227   1.407  15.294  0.0152  0.2364 -0.1728
31956W        W47573  11.046   1.106   1.182  0.2937 -0.0336  0.1543
31957W        W47574   3.127   8.422  11.674  0.0785  0.2651  0.1037
31958W        W47575  13.283   0.191  16.107 -0.0777  0.0084  0.0353
31959W        W47576  12.455   4.140   4.661 -0.0960 -0.0290  0.1339
31960W        W47577  16.460  13.950  15.923 -0.0244  0.1133 -0.1718
31961W        W47578   5.283   9.837  11.920 -0.0463 -0.2425  0.0407
31962W        W47579   8.385  11.998   4.700 -0.0917 -0.1138  0.1768
31963W        W47580  11.883   1.475   6.473 -0.0470 -0.0668  0.1801
31964W        W47581  15.959  17.859  13.751 -0.1232 -0.2559  0.2433
31965W        W47582  13.697  14.601  15.254  0.2919 -0.2819  0.1441
31966W        W47583   7.562   2.668   4.836 -0.1787  0.1295  0.1240
31967W        W47584  16.220   0.574   0.467 -0.0655 -0.0105  0.4588
31968W        W47585   2.764  14.951  13.414  0.0022  0.0342 -0.0592
31969W        W47586  17.796   5.999  11.045  0.1388 -0.1166 -0.2727
31970W        W47587  13.462  13.667   0.877 -0.1629  0.5290  0.0290
31971W        W47588   0.879   5.151  12.970  0.0836 -0.2820  0.0165
31972W        W47589  17.148  15.061   4.808 -0.4443 -0.2169 -0.1053
31973W        W47590  16.343   5.799   1.015 -0.2477  0.0733  0.3001
31974W        W47591  13.567  10.098   3.525  0.0917 -0.2304  0.2162
31975W        W47592   4.041   6.079   4.886  0.0276  0.4888  0.1219
31976W        W47593   3.973   5.130   4.720  0.1587  0.0265  0.0446
31977W        W47594   7.302  13.117  13.948  0.0226  0.2313 -0.0246
31978W        W47595   8.013  15.398   4.587  0.1824 -0.0002 -0.1624
31979W        W47596   9.567   2.140  14.316  0.1471 -0.0141 -0.5481
31980W        W47597  12.356  13.745  16.825 -0.2573  0.1336  0.0839
31981W        W47598  11.612   2.913   6.524  0.2416  0.4227  0.0735
31982W        W47599   3.141  13.620  16.679 -0.3602 -0.1728 -0.1832
31983W        W47600   4.063  11.646   5.113  0.2022 -0.2581  0.0343
31984W        W47601  17.023   7.674   3.763 -0.3303 -0.1177 -0.2664
31985W        W47602   4.502  10.917   4.709 -0.2414 -0.3955  0.2438
31986W        W47603  10.345   1.806   2.551 -0.1103  0.0060  0.1257
31987W        W47604  16.912   8.224   5.606 -0.0497 -0.1148  0.0947
31988W        W47605   6.549   6.688  12.788 -0.1172 -0.2552 -0.1542
31989W        W47606  14.151   1.178   4.201 -0.0351 -0.1248 -0.0188
31990W        W47607   7.045   0.725  13.023 -0.0735  0.4289  0.0919
31991W        W47608  17.610  13.239  13.316  0.1476  0.0252  0.4720
31992W        W47609   1.029  15.744   4.900 -0.1302  0.1468 -0.2806
31993W        W47610   0.329   2.458  16.095  0.2159  0.2845 -0.0986
31994W        W47611   8.279   1.016  14.540 -0.1454  0.0292 -0.1298
31995W        W47612   9.346   4.429   1.141 -0.2561  0.4497 -0.0398
31996W        W47613   4.515   1.948   0.619  0.0535 -0.0815  0.0945
31997W        W47614  13.277   0.068   2.632  0.0784 -0.0372  0.0013
31998W        W47615   3.153  15.136   1.910 -0.1425  0.0841 -0.2166
31999W        W47616  10.932  11.203   3.505  0.0734  0.2571 -0.0050
32000W        W47617  13.783   4.192  15.322  0.0497 -0.0584  0.2976
32001W        W47618  11.562  12.896  11.489 -0.2230  0.1213  0.1724
32002W        W47619  17.392  13.910   3.265  0.1651 -0.1078 -0.1819
32003W        W47620   1.929   3.007   0.282  0.5216 -0.1241 -0.0360
32004W        W47621  16.289   7.801  15.044 -0.1067  0.2482 -0.1798
32005W        W47622  13.594   4.011  14.451  0.0703 -0.0955 -0.2278
32006W        W47623   7.258   5.591   6.005  0.2431 -0.3618  0.1364
32007W        W47624   4.883  17.223   1.383  0.3189 -0.1148 -0.0071
32008W        W47625  10.152   1.441   1.595  0.1085  0.3947 -0.0783
32009W        W47626  10.895  13.223  12.856 -0.2144 -0.0657 -0.1204
32010W        W47627   0.687  17.012  11.289  0.0883  0.2656 -0.0618
32011W        W47628  12.574   1.187   5.805  0.0696 -0.0305 -0.3586
32012W        W47629   2.806  16.211  15.647 -0.1844  0.0101  0.0876
32013W        W47630   2.383  15.853   1.771 -0.0426 -0.1735 -0.1751
32014W        W47631   1.317   6.878   3.691  0.0431 -0.1834 -0.1589
32015W        W47632   9.798   1.700   4.335 -0.1934 -0.0739  0.1198
32016W        W47633  10.459  10.664  13.704  0.0062  0.0637  0.1361
32017W        W47634   8.345   4.023   3.945 -0.1080  0.1324 -0.4100
32018W        W47635   6.161   9.108  16.340  0.2383 -0.2098  0.0902
32019W        W47636  15.876  13.431   0.684 -0.0683  0.1067  0.1676
32020W        W47637   3.823  10.086   3.747  0.1794  0.1581 -0.0908
32021W        W47638  12.434  16.277  12.011 -0.2945 -0.0141  0.0714
32022W        W47639  14.480   5.929  14.279 -0.6365 -0.1973  0.3618
32023W        W47640  13.367  10.994   1.573  0.3588  0.5855 -0.2379
32024W        W47641  16.086  14.975   1.258 -0.3205  0.2544 -0.1282
32025W        W47642   9.094   1.207   2.910  0.0731 -0.0573  0.0598
32026W        W47643   2.741   7.045  16.251  0.0361  0.1531  0.0215
32027W        W47644  12.856   1.508   2.457 -0.2249  0.1322 -0.1298
32028W        W47645  16.672   8.153   5.134 -0.1483 -0.0640 -0.2243
32029W        W47646   1.316   3.288   4.119  0.1742 -0.0200  0.0338
32030W        W47647   8.226   3.404  16.734 -0.0029 -0.3359 -0.2283
32031W        W47648  14.450   2.567  11.346 -0.3443  0.1903 -0.1328
32032W        W47649   7.253  16.289  16.660 -0.2870 -0.1999 -0.0201
32033W        W47650  12.552   9.939  13.104  0.1332  0.0623  0.1367
32034W        W47651  10.164   0.082   2.127  0.1595 -0.1278 -0.1669
32035W        W47652   5.386   7.006  14.381  0.0070  0.0116  0.2043
32036W        W47653   8.128  11.953   0.029  0.1553 -0.1256 -0.0670
32037W        W47654   7.710  16.821   4.101  0.0636  0.2571 -0.0228
32038W        W47655  12.092   1.704   0.848  0.2666 -0.0746 -0.1353
32039W        W47656   3.860  16.858  14.919 -0.4520  0.2313 -0.2027
32040W        W47657   1.969   2.617  13.588  0.0440  0.0113  0.1332
32041W        W47658  10.429   5.473   3.298  0.2365  0.1551  0.2550
32042W        W47659   1.898  11.978   3.631  0.1518 -0.0852 -0.2460
32043W        W47660  10.270   9.010   1.222 -0.5085 -0.0358  0.0492
32044W        W47661  15.771   5.350   0.253  0.2800 -0.1642  0.1255
32045W        W47662   3.711   5.434   1.918 -0.1021  0.2579  0.3545
32046W        W47663   4.444   0.884   3.318 -0.0111  0.2132 -0.1205
32047W        W47664   4.325  17.682   5.906 -0.2225  0.0999 -0.0941
32048W        W47665  15.693   4.611  15.563  0.0245  0.2269  0.0754
32049W        W47666   7.768   5.073   6.562 -0.1245  0.3127 -0.1229
32050W        W47667  15.110   8.050   4.583 -0.0699  0.1761  0.0829
32051W        W47668  11.665   6.698  14.058  0.1041  0.2470  0.0471
32052W        W47669   3.135   2.846  13.943 -0.0760 -0.1682  0.1810
32053W        W47670  13.323   5.364  13.483  0.1820  0.1694  0.1981
32054W        W47671   3.455   0.311   5.500 -0.0485  0.2070 -0.0277
32055W        W47672   4.683   0.252   0.124 -0.0287  0.2620 -0.2640
32056W        W47673   3.910   8.308  12.201  0.2602  0.0439 -0.3416
32057W        W47674   3.054   4.505   1.084 -0.1479 -0.1698 -0.1048
32058W        W47675  11.488   5.953   0.564 -0.2487  0.0963 -0.2982
32059W        W47676   4.357  17.526  16.369  0.1336 -0.0095  0.0032
32060W        W47677  16.497   4.816  13.900  0.0208  0.0061 -0.1117
32061W        W47678  15.937   2.157   2.179 -0.1544  0.2922 -0.1187
32062W        W47679  16.756  11.066   1.073  0.1663 -0.0667  0.1905
32063W        W47680   6.833  17.022   2.587  0.0473 -0.1009  0.0620
32064W        W47681   1.674   9.939   6.065  0.2581 -0.2982 -0.0199
32065W        W47682  14.322  17.743   3.272  0.1008  0.2247  0.1959
32066W        W47683  11.630   1.698   0.590 -0.0890  0.5530 -0.2594
32067W        W47684  13.715   0.933   5.297 -0.1523 -0.0940  0.3317
32068W        W47685   8.915   5.198  16.312  0.0308  0.2175 -0.2772
32069W        W47686   9.630   9.268   5.813 -0.0342 -0.2824  0.3035
32070W        W47687   5.318   8.569  13.261  0.0755 -0.1329 -0.1753
32071W        W47688  15.964   6.347  11.421 -0.2072 -0.0754  0.0750
32072W        W47689  15.510  13.709   5.223 -0.0224 -0.1033  0.0530
32073W        W47690  11.982   5.438  11.666  0.0056  0.1781  0.2882
32074W        W47691  13.850  17.840  11.872  0.0472 -0.0227  0.0115
32075W        W47692   2.444   6.859  14.530  0.3159 -0.1175 -0.0189
32076W        W47693   5.257   9.774   0.409  0.2118  0.0681  0.2517
32077W        W47694  17.026   9.214   4.688  0.1713 -0.0807 -0.1443
32078W        W47695   0.417   6.556  11.429  0.1664  0.1312  0.0180
32079W        W47696  16.881  13.430   6.264  0.2425 -0.1513 -0.2409
32080W        W47697   5.131   3.517  12.954  0.2489 -0.1631  0.1400
32081W        W47698  16.162   2.844   0.946  0.0642 -0.3293  0.1044
32082W        W47699   5.505   1.857  12.903 -0.1442  0.0168 -0.0506
32083W        W47700   4.993  16.549   3.236  0.0093 -0.1054 -0.3743
32084W        W47701   4.064  16.899   2.922 -0.0635  0.0545 -0.2355
32085W        W47702  14.681  12.267   3.444  0.0357  0.3498 -0.0783
32086W        W47703   4.710   6.876  12.332  0.0950 -0.0305 -0.0583
32087W        W47704   1.001   3.590   3.885 -0.1114 -0.0171  0.0709
32088W        W47705   9.683   2.751   2.990  0.0100  0.0906  0.0775
32089W        W47706  13.655   6.648   0.449  0.0774 -0.0824 -0.0895
32090W        W47707  17.726  14.667  14.854  0.1870  0.1757  0.2017
32091W        W47708  12.743   6.145  14.494 -0.1030 -0.3031 -0.0286
32092W        W47709   4.671   3.509  11.659  0.1904  0.1242  0.0682
32093W        W47710   1.537  16.362   0.020 -0.0712 -0.0760  0.0178
32094W        W47711   7.276  17.507   1.464 -0.1024 -0.2996 -0.2305
32095W        W47712   0.861  13.478  15.567  0.2147  0.0125 -0.2306
32096W        W47713  11.260  13.473  12.578  0.0220 -0.0693 -0.1258
32097W        W47714   1.696  13.662   0.564 -0.0218  0.2467  0.0300
32098W        W47715   5.336   1.423  15.893 -0.0912 -0.1279 -0.2861
32099W        W47716  13.525  13.264  14.215 -0.1091  0.1522  0.0130
32100W        W47717  17.433  14.985   5.639 -0.1444 -0.1111  0.3767
32101W        W47718   9.999  10.861  12.473 -0.0128 -0.1119 -0.1015
32102W        W47719   1.331   1.703   5.466 -0.0417 -0.0498 -0.1356
32103W        W47720  16.502   1.605   2.594 -0.0167  0.1194 -0.1312
32104W        W47721   1.796  13.864   3.536  0.0262  0.2663 -0.1036
32105W        W47722  11.042   6.721  15.123 -0.0387 -0.2579 -0.2308
32106W        W47723   7.975  10.939  15.424 -0.0973  0.2169 -0.0280
32107W        W47724  15.056   1.551   3.511  0.1658  0.0465  0.2276
32108W        W47725   8.307   9.434  15.216 -0.0690 -0.3295  0.0794
32109W        W47726   9.718  16.238   2.537  0.1424  0.2742 -0.1233
32110W        W47727  14.925  17.302   4.996  0.0430  0.3507 -0.0874
32111W        W47728   2.809   1.499  14.902  0.0788 -0.1200 -0.2936
32112W        W47729  11.755   2.926   5.227 -0.2876 -0.5587  0.2214
32113W        W47730  10.090   3.408  14.770  0.1459  0.0155 -0.1840
32114W        W47731   1.879   8.557   3.107  0.3360  0.5437  0.2434
32115W        W47732  13.920   8.565   5.923 -0.0933  0.0115  0.2196
32116W        W47733  16.978  11.795   0.410 -0.1042 -0.2130  0.1230
32117W        W47734   5.658   8.057  16.333  0.1402  0.1531  0.1415
32118W        W47735  12.656  11.004  13.451 -0.0207 -0.0091 -0.1739
32119W        W47736   9.388  15.592  16.078  0.1216  0.0550  0.0533
32120W        W47737   5.755   3.982  15.717 -0.0815  0.0320  0.2362
32121W        W47738   2.636   8.125   0.750 -0.0046 -0.1101 -0.2433
32122W        W47739  15.956   9.635  14.342 -0.1719 -0.0968  0.0546
32123W        W47740   2.389   9.098  13.628 -0.0058  0.0446 -0.1491
32124W        W47741   9.423  16.063  14.336 -0.2653  0.2754 -0.1860
32125W        W47742  17.044   8.524  14.823  0.0773  0.1491  0.3135
32126W        W47743   0.282  10.838   4.856  0.1877  0.4014  0.1314
32127W        W47744   5.549  12.556  14.882  0.2321  0.0630  0.0787
32128W        W47745  16.547   1.790   2.118 -0.0430  0.2831 -0.2500
32129W        W47746   1.027   7.107  12.998 -0.2123 -0.4118 -0.1022
32130W        W47747   5.844   1.978  16.419  0.5717  0.2788 -0.3942
32131W        W47748  16.359  16.140   5.215  0.3123  0.0430  0.0136
32132W        W47749   0.034  17.790  14.225 -0.0321 -0.1966 -0.2670
32133W        W47750   8.019   3.284   5.198  0.3328  0.2732 -0.0024
32134W        W47751  11.706   5.870   4.749  0.0574 -0.0400  0.4774
32135W        W47752   2.859   7.494  15.890  0.2637  0.0468  0.0038
32136W        W47753   4.248   0.999   4.307 -0.0804 -0.3240  0.0010
32137W        W47754   8.117  15.170  15.326  0.2395  0.2446  0.0090
32138W        W47755   1.144   0.076  15.683 -0.2202  0.1988  0.0296
32139W        W47756   0.312  13.228  11.979  0.2626 -0.1464  0.3708
32140W        W47757  16.444  17.325  16.665 -0.2495  0.1065  0.1349
32141W        W47758  16.198  17.439   4.846  0.3009  0.0491  0.0678
32142W        W47759  10.992   6.292   2.223 -0.0965 -0.1876 -0.0174
32143W        W47760  15.486   4.795   2.888  0.1664 -0.1740  0.0363
32144W        W47761   2.883   7.493  13.261  0.1490 -0.0329 -0.5228
32145W        W47762   8.084  17.728  11.899 -0.1131  0.0290 -0.0882
32146W        W47763   4.774  11.455  13.349 -0.0259 -0.0684 -0.1697
32147W        W47764  11.865   1.301   1.048  0.0630  0.1318  0.2918
32148W        W47765  10.462   3.932  13.365 -0.1378  0.2768 -0.2949
32149W        W47766  12.479   9.390   1.140 -0.0039 -0.2641 -0.4377
32150W        W47767   7.479  14.332   2.644  0.3523 -0.1609 -0.2013
32151W        W47768   1.841  17.211   2.617  0.1327  0.0207  0.0166
32152W        W47769   5.954   0.518  14.641 -0.0132  0.2512 -0.1421
32153W        W47770  14.214   3.209  13.279 -0.0138  0.2496 -0.2829
32154W        W47771  13.866   7.459   5.802 -0.0532 -0.1600 -0.1164
32155W        W47772   6.576  11.370  13.984 -0.0157  0.1976 -0.0294
32156W        W47773  11.594   2.202  15.240  0.0945 -0.4003  0.1146
32157W        W47774   7.900   0.279   4.171  0.0243  0.0908  0.2573
32158W        W47775  16.911   7.907   3.332  0.1889  0.3458 -0.2637
32159W        W47776   1.623   3.501   4.762  0.0987 -0.3817 -0.2262
32160W        W47777  11.764   6.794  12.721 -0.2560 -0.0386  0.0394
32161W        W47778   0.137  15.589  14.508  0.1235 -0.1222  0.1860
32162W        W47779   1.377   1.243  14.509 -0.3060  0.0515 -0.0172
32163W        W47780  17.414  15.970   5.472 -0.0559  0.0964  0.0889
32164W        W47781   8.780   1.535  15.454  0.1688 -0.0464  0.0671
32165W        W47782   8.342  11.013  13.365  0.0949  0.0167 -0.3620
32166W        W47783   6.928  17.150  14.800  0.0870  0.1450  0.0585
32167W        W47784   6.534  14.050  10.437  0.0417 -0.0667  0.2045
32168W        W47785   7.483   3.276  15.740 -0.0401  0.2510  0.2195
32169W        W47786   5.537  10.833   4.629 -0.4013  0.1492  0.4509
32170W        W47787   0.242  15.568   5.394  0.0518  0.3191  0.1982
32171W        W47788   4.940  10.373  13.334 -0.1220 -0.1895 -0.1789
32172W        W47789   1.895  12.745  13.013 -0.1946 -0.1949  0.1592
32173W        W47790  14.661   0.272  14.413 -0.1851  0.3258 -0.0341
32174W        W47791  10.648  11.535  12.414  0.0499  0.1556 -0.1775
32175W        W47792  11.785  14.625  14.299  0.3420 -0.0566  0.0667
32176W        W47793  13.020   2.684  15.434 -0.0026 -0.0880 -0.1096
32177W        W47794  10.776  16.286  13.280  0.0306  0.1524  0.1192
32178W        W47795  17.361   1.670  14.103  0.3035 -0.5087 -0.2992
32179W        W47796   4.684   9.200   6.000 -0.2099  0.2694 -0.1868
32180W        W47797  14.882   8.913   5.359 -0.0205  0.0174 -0.1087
32181W        W47798   7.821  17.715   4.453 -0.0454  0.2351  0.2261
32182W        W47799  12.049  10.208   2.747  0.0929 -0.5134  0.0367
32183W        W47800  12.463   2.695   1.903  0.0210  0.0386  0.0522
32184W        W47801   8.194  16.804   4.355 -0.3217  0.0428  0.0465
32185W        W47802   4.500   2.322  16.574  0.1582  0.0068 -0.0294
32186W        W47803   9.333  11.808   4.181 -0.2127  0.0864 -0.1216
32187W        W47804  11.462   5.152  16.348  0.0325 -0.0302 -0.0742
32188W        W47805  11.768   7.352  14.863  0.0732  0.2751 -0.1172
32189W        W47806   0.306   9.061   2.018  0.0284  0.0276 -0.3417
32190W        W47807   4.109   4.781   5.467 -0.0720 -0.0034 -0.3949
32191W        W47808   6.589  15.681  16.077 -0.0715  0.2606 -0.0928
32192W        W47809   1.585  16.599  11.474  0.1295 -0.1820  0.2586
32193W        W47810   5.513  17.382   3.588  0.0733  0.0961 -0.2744
32194W        W47811   3.740   4.812  15.566 -0.1638  0.1199 -0.1034
32195W        W47812   9.214   6.391   0.043  0.2754  0.2086  0.0476
32196W        W47813  15.729   5.624   2.923 -0.0054 -0.1762  0.4597
32197W        W47814   7.712  17.563   2.383  0.2748  0.2358  0.2357
32198W        W47815   8.464   7.822  14.435  0.0608 -0.0956  0.0875
32199W        W47816  10.411   1.073  11.507 -0.0746 -0.0989  0.3767
32200W        W47817   5.260   9.108   1.033 -0.0789  0.0069  0.4567
32201W        W47818  15.144   5.027   2.630 -0.1186 -0.2872 -0.2661
32202W        W47819   1.170  11.197   4.917 -0.1452 -0.0996 -0.1070
32203W        W47820   6.091  14.008   3.529  0.2200  0.5208  0.1851
32204W        W47821   8.696   1.047   4.530 -0.0366  0.1844 -0.1175
32205W        W47822  16.065  16.998   3.515  0.2170  0.1921 -0.4095
32206W        W47823   3.745   9.847  11.505 -0.2878 -0.1991  0.2158
32207W        W47824   4.576   0.961   2.864 -0.2341 -0.0022 -0.1062
32208W        W47825   7.579   2.259  13.750 -0.0747  0.1603  0.1652
32209W        W47826   9.421   7.829  13.881  0.2882  0.0587 -0.2377
32210W        W47827   8.815  10.460   4.102 -0.0428 -0.2978 -0.2385
32211W        W47828  10.394  16.011  12.568 -0.3067  0.0518 -0.3354
32212W        W47829   0.765   9.701  11.743 -0.1930  0.1114  0.2081
32213W        W47830  11.284  13.921   0.530 -0.0461  0.0806  0.1240
32214W        W47831  11.116   7.475   3.585 -0.0766 -0.4966  0.2872
32215W        W47832   1.488  14.971   1.092  0.1749  0.1242 -0.2518
32216W        W47833   7.071   4.114   5.962 -0.2970 -0.2199  0.0798
32217W        W47834  12.414  17.250  14.529  0.0859 -0.5077 -0.0751
32218W        W47835   5.022  17.249   0.004  0.1150  0.1871  0.1349
32219W        W47836   6.947  17.626  13.096  0.0316 -0.2638  0.0793
32220W        W47837   7.639   5.675  12.949 -0.3823 -0.0112 -0.0100
32221W        W47838   2.245   7.283   2.674 -0.3236  0.1535  0.1454
32222W        W47839   6.001   3.452   2.083 -0.1460 -0.0435 -0.0905
32223W        W47840   4.601  12.318   2.330  0.4287 -0.1244 -0.0508
32224W        W47841   4.142   5.699  12.947 -0.0609  0.3221 -0.1265
32225W        W47842   7.444   2.414  14.390  0.2175 -0.0742 -0.1486
32226W        W47843   5.451  17.610   2.468 -0.1519 -0.0630 -0.2054
32227W        W47844  17.829   2.938   2.691 -0.1118  0.2004  0.1058
32228W        W47845   1.955   6.985  14.684  0.2241  0.0699 -0.1881
32229W        W47846   7.422   8.857  15.719  0.2925  0.0562  0.1276
32230W        W47847  12.108   5.804   4.992  0.3475 -0.0647 -0.2967
32231W        W47848  11.851   1.536  12.001 -0.0565 -0.0871  0.1999
32232W        W47849  10.528   1.841  13.526 -0.2021  0.3821  0.1154
32233W        W47850   2.162   1.894  16.521 -0.0436 -0.2171  0.0699
32234W        W47851   5.471   0.961  16.050  0.0942  0.0007  0.0288
32235W        W47852   8.284   2.116   4.083  0.0315 -0.3194 -0.0200
32236W        W47853   1.992  13.043   2.859 -0.0566  0.2399  0.0675
32237W        W47854   0.496  13.649   2.277 -0.0110  0.1468  0.3650
32238W        W47855  10.874   4.133  14.718  0.1334  0.0048  0.4940
32239W        W47856   4.805  10.609   2.684 -0.3268  0.1146  0.1450
32240W        W47857  10.825  12.940   0.377  0.0609 -0.1519 -0.1239
32241W        W47858  14.848   2.884   1.295 -0.1016  0.1035  0.0360
32242W        W47859   0.677   8.195   2.125  0.3003 -0.1167 -0.0390
32243W        W47860   7.165   4.291  14.050 -0.0670  0.2077  0.1201
32244W        W47861  16.340  15.360  12.854 -0.2512 -0.0315 -0.0585
32245W        W47862   1.141  17.652   4.382 -0.1610 -0.2499 -0.0486
32246W        W47863  10.173   6.636   2.997  0.1199  0.3274  0.2642
32247W        W47864  13.819   9.412   1.815  0.0732 -0.2760 -0.2262
32248W        W47865  11.496   9.589   1.984  0.1530 -0.0413 -0.0623
32249W        W47866   2.347  13.893  15.240 -0.0951  0.0368 -0.1299
32250W        W47867   4.371   2.073  13.511  0.2010  0.4933 -0.2416
32251W        W47868   3.134   9.884  16.492  0.0377 -0.4395  0.2810
32252W        W47869  11.830   3.671  16.278  0.0610  0.0105  0.3295
32253W        W47870   1.943   2.538   1.744 -0.0301  0.1123  0.0786
32254W        W47871   0.787   4.836   1.237  0.2855  0.0770  0.1955
32255W        W47872  10.865  13.755   4.033  0.0147  0.1035  0.2929
32256W        W47873  14.547   1.810  11.769  0.0383  0.1138  0.0286
32257W        W47874   4.170   7.794  16.538 -0.0087 -0.1738 -0.3029
32258W        W47875   4.569  16.562  12.594  0.0330 -0.0295 -0.2070
32259W        W47876   0.862  12.131   3.074 -0.1828 -0.2270 -0.3024
32260W        W47877  10.686   6.323   4.309 -0.2281  0.1344  0.1578
32261W        W47878  17.739   2.494   4.894  0.2247 -0.0826  0.0079
32262W        W47879  17.337   3.554  15.048  0.3884 -0.0552 -0.0309
32263W        W47880  11.110   3.415   5.331  0.1587 -0.4386  0.0866
32264W        W47881   5.089   4.639   1.331  0.1309 -0.0403 -0.0040
32265W        W47882  12.533  16.667  11.210  0.0157  0.1457 -0.1275
32266W        W47883   6.685   3.495  12.179 -0.2740  0.1758 -0.0697
32267W        W47884  10.406  10.270  15.404  0.0300 -0.1283  0.1001
32268W        W47885  11.886   9.373  15.630  0.0971  0.0310 -0.0450
32269W        W47886   7.764   6.470   2.129  0.0057  0.1972 -0.0057
32270W        W47887   3.119  10.179  14.561 -0.2270  0.0568 -0.0997
32271W        W47888  11.227  12.607  13.351 -0.1092 -0.0805 -0.2122
32272W        W47889  13.206  12.706  15.852 -0.2002 -0.2034  0.1338
32273W        W47890   8.081  12.814  13.138  0.2616 -0.0616  0.2703
32274W        W47891  14.592   4.970  16.299  0.3168 -0.3543 -0.1602
32275W        W47892   4.253   9.921   0.127  0.0761 -0.2029  0.3235
32276W        W47893  14.933  15.037   4.390 -0.1279 -0.2380  0.2946
32277W        W47894   5.849  10.184   2.331 -0.0537 -0.1931 -0.0040
32278W        W47895   8.396   7.003  13.761 -0.1567 -0.3401  0.2548
32279W        W47896   3.397  10.774  16.080  0.1369 -0.0113  0.2775
32280W        W47897   9.965  11.853   1.648  0.3373 -0.0182 -0.1712
32281W        W47898  16.838  17.115   4.221 -0.0821 -0.1570 -0.0467
32282W        W47899   5.358  16.104   0.181 -0.0036  0.1048 -0.3573
32283W        W47900  13.848  11.216   5.471  0.3935 -0.2969  0.2813
32284W        W47901  14.330   4.650  15.960 -0.0400 -0.3969  0.3497
32285W        W47902   6.758  11.500  13.140  0.0944 -0.0501  0.0223
32286W        W47903   3.603   4.866   5.382 -0.0821  0.0899 -0.1371
32287W        W47904  13.756  16.790   5.530  0.1601  0.0893  0.0870
32288W        W47905   0.860   4.353   6.058  0.1242 -0.0274 -0.1272
32289W        W47906   1.933   2.249   3.265  0.0167 -0.1615 -0.1219
32290W        W47907   5.432   6.139  11.440  0.0845  0.0932 -0.3096
32291W        W47908   0.392  11.031  13.712 -0.2197 -0.0145  0.1129
32292W        W47909  15.599   3.763   0.392 -0.5823 -0.1277 -0.0039
32293W        W47910   0.359   0.866   2.429 -0.2050 -0.0187  0.0545
32294W        W47911   7.992   0.283   4.714  0.2791  0.2674  0.1060
32295W        W47912   8.630   1.241   3.175  0.2657  0.0087  0.2370
32296W        W47913  15.232   4.625  12.984 -0.0532  0.0404  0.0987
32297W        W47914  15.578   0.034  12.338  0.1169 -0.3008  0.0037
32298W        W47915   0.464   5.640   4.994 -0.0279  0.0463 -0.2858
32299W        W47916  17.560   4.884  13.424  0.1604 -0.3615  0.0883
32300W        W47917  16.500  17.593  14.406  0.0441  0.1621  0.1033
32301W        W47918  17.820   9.516  16.138 -0.0713  0.1441 -0.0741
32302W        W47919  17.478  15.047  12.183  0.0522 -0.0266  0.2199
32303W        W47920  13.683  17.143  14.863  0.0200  0.0104 -0.1997
32304W        W47921  12.382  16.632   0.255 -0.4896 -0.0466 -0.1632
32305W        W47922  16.216   1.136   0.374 -0.2409 -0.0974 -0.1362
32306W        W47923   7.312   1.711   3.353 -0.0788  0.0972 -0.2127
32307W        W47924   3.799  16.956  16.002 -0.0517  0.0266 -0.0844
32308W        W47925   9.264   4.718   2.116 -0.0335  0.2134  0.0095
32309W        W47926   6.067  10.168   4.350 -0.0997 -0.0321 -0.3113
32310W        W47927   6.526  16.129   4.865 -0.1105 -0.1483  0.1149
32311W        W47928  13.377   7.264  15.413 -0.1546  0.0615  0.0360
32312W        W47929  14.850   9.175  13.741  0.0599  0.2440  0.1135
32313W        W47930   8.481  11.992  13.499 -0.0763 -0.0905 -0.0671
32314W        W47931  10.555  12.157   3.947 -0.0959 -0.0331 -0.2221
32315W        W47932  13.903  13.571  15.151  0.0923  0.3694  0.0533
32316W        W47933   1.101  14.559  13.462  0.3151  0.2117 -0.0331
32317W        W47934  16.462   3.807   0.100 -0.0769 -0.0139  0.1346
32318W        W47935   2.538   1.362  15.705  0.1397 -0.0463  0.0548
32319W        W47936   6.297   0.007   3.400 -0.3748  0.0066 -0.2020
32320W        W47937  15.479   2.082  15.685 -0.1970  0.2404  0.1311
32321W        W47938   8.249  12.193   1.177  0.1085  0.0887  0.0882
32322W        W47939   3.715   6.834   2.756  0.2685  0.1733  0.0083
32323W        W47940   9.172   9.411   4.581 -0.1395 -0.0143 -0.1805
32324W        W47941   4.476   4.408  11.487 -0.1141  0.0537 -0.0547
32325W        W47942   1.278   5.514  14.334  0.0340  0.1688  0.0333
32326W        W47943   0.931  10.873  16.295  0.2259 -0.1882  0.2692
32327W        W47944  16.431   6.936  15.756  0.0695 -0.1232 -0.2070
32328W        W47945   0.407   9.318  13.997  0.2500  0.0283 -0.0018
32329W        W47946   3.709   6.933  12.472 -0.0958 -0.2283  0.0108
32330W        W47947  12.907   2.410   1.935  0.0237 -0.0014  0.0964
32331W        W47948   5.551  13.952  14.595 -0.0329 -0.2004  0.0432
32332W        W47949   0.203   0.789  13.156  0.5010  0.2961 -0.1968
32333W        W47950   1.951  10.081   5.665 -0.1873  0.4532 -0.1912
32334W        W47951  13.677  13.666  16.374 -0.1549  0.1782 -0.3265
32335W        W47952   2.502   8.724   2.592  0.1240 -0.0123  0.2800
32336W        W47953   1.484   7.000   2.281  0.3558 -0.2897  0.1438
32337W        W47954  13.733   0.446   0.371  0.2095  0.2210  0.3172
32338W        W47955  15.924  10.622  15.092 -0.0362  0.0287  0.1742
32339W        W47956   8.801   9.002   4.648 -0.0774 -0.0713  0.0956
32340W        W47957   2.743  14.274   1.332 -0.0109 -0.1476  0.0650
32341W        W47958   3.260  12.189  13.548  0.2004  0.3738  0.3019
32342W        W47959  16.685  12.264   0.854  0.1297 -0.2364  0.3872
32343W        W47960   0.197   4.064  16.146  0.0111  0.1646  0.0489
32344W        W47961   0.229  13.163   3.608  0.1621  0.0599  0.1540
32345W        W47962   9.547  15.042   0.452  0.0715 -0.2077  0.0150
32346W        W47963   3.314  12.231   1.115  0.0068  0.0700 -0.5067
32347W        W47964  10.365   3.400  11.854  0.0165 -0.2077 -0.1880
32348W        W47965   3.546  14.058  12.010  0.0655  0.3433  0.1116
32349W        W47966   6.286   8.691   6.205 -0.0392  0.0260  0.0929
32350W        W47967  13.606  14.130   5.194  0.0786 -0.1853 -0.1712
32351W        W47968   5.824   6.016   1.708 -0.3770 -0.2200 -0.2066
32352W        W47969  12.472  11.572   1.230  0.1648 -0.4877 -0.0349
32353W        W47970  16.816  13.383   4.738 -0.2989  0.2141 -0.1228
32354W        W47971  10.417  17.735  12.339 -0.0542  0.0688  0.1787
32355W        W47972  13.525   1.804   5.337  0.1427  0.1022  0.0431
32356W        W47973  13.741   0.325   2.677  0.2095 -0.1582  0.2373
32357W        W47974  11.334  12.828  16.549  0.1012 -0.1878 -0.2713
32358W        W47975  14.760   8.796  16.061 -0.0061 -0.0162 -0.1140
32359W        W47976   0.267  14.568   6.352  0.1769 -0.1313  0.1345
32360W        W47977   9.559   7.322   1.851  0.0363  0.3244 -0.3054
32361W        W47978   2.046  15.613  12.323 -0.3145  0.0327  0.5157
32362W        W47979   8.604   1.015  14.942  0.0987 -0.1279  0.0935
32363W        W47980   8.381  10.619   3.780  0.0766  0.1126  0.1849
32364W        W47981  12.872  13.045   3.083  0.1826  0.0770 -0.2453
32365W        W47982   4.932   0.943   3.277 -0.5504  0.0392  0.3679
32366W        W47983   4.734   8.138  13.856  0.1788 -0.1423 -0.0016
32367W        W47984  16.875  12.076  14.086 -0.1861 -0.1647 -0.0414
32368W        W47985   7.412  16.502   0.930 -0.0688  0.1701  0.4026
32369W        W47986   5.738   8.754  15.134  0.1733 -0.1143  0.3203
32370W        W47987  16.811   3.088   0.463  0.1617 -0.3356 -0.2292
32371W        W47988   5.190   8.932   3.739  0.3216 -0.0286 -0.1091
32372W        W47989  11.042   0.179  11.124 -0.3278  0.2009 -0.0874
32373W        W47990   3.466  14.417  16.812 -0.2497 -0.0380  0.3146
32374W        W47991   6.076   2.585   0.534  0.1162 -0.2468  0.0216
32375W        W47992   5.134  13.013  12.951 -0.1367 -0.0290 -0.0625
32376W        W47993  14.893   5.602   2.498  0.1130 -0.0227 -0.0300
32377W        W47994   2.650   3.345   2.978 -0.0525  0.2093  0.1600
32378W        W47995  13.849  16.779   2.144 -0.1751 -0.0769 -0.0528
32379W        W47996  15.087   9.013   2.517 -0.4520 -0.1094  0.1046
32380W        W47997  11.238  11.563   1.559  0.2386  0.0559 -0.0916
32381W        W47998   6.771   0.649   3.698  0.0814  0.1125 -0.2901
32382W        W47999   4.112   6.288  14.268  0.0105 -0.1495 -0.0362
32383W        W48000   5.588  11.494   3.061  0.0409 -0.2229  0.0899
32384W        W48001   7.035  10.321   1.990 -0.2060 -0.0768 -0.0478
32385W        W48002  15.837  13.557  13.762  0.0177 -0.1340  0.0484
32386W        W48003  13.310   7.302   5.426  0.1432  0.1960  0.1076
32387W        W48004  12.293  14.315   2.267  0.0453 -0.0440 -0.1341
32388W        W48005  16.086   9.057  16.476 -0.2786  0.1750 -0.0044
32389W        W48006  10.048   0.978   1.273 -0.1901 -0.1803 -0.0631
32390W        W48007  12.018  14.757   4.438  0.1046  0.0760  0.1116
32391W        W48008  13.974  10.307  12.831 -0.1091  0.3092  0.0884
32392W        W48009   1.397  16.463  11.977 -0.2656 -0.0236  0.1470
32393W        W48010   4.582  12.615   1.372  0.0540  0.0885  0.1140
32394W        W48011  10.597   3.110   0.793  0.2621 -0.0510 -0.0315
32395W        W48012  16.023   1.413  14.176  0.2352  0.1894  0.0724
32396W        W48013  11.845  12.063  13.713 -0.0131  0.2310  0.2691
32397W        W48014   5.415   5.707  16.268 -0.0948  0.4940 -0.0404
32398W        W48015   7.005   2.751  11.673 -0.0559  0.1316 -0.3296
32399W        W48016  17.817  13.030   4.580 -0.2795  0.2156 -0.0125
32400W        W48017  10.420   2.299   2.312 -0.0420 -0.1339  0.2247
32401W        W48018  17.601   3.688  16.172 -0.2273 -0.0469  0.0957
32402W        W48019   6.995   1.708   0.108 -0.0055  0.1821  0.1540
32403W        W48020   4.923   5.879   0.724  0.1596  0.0047  0.0078
32404W        W48021   2.851  15.515  16.351 -0.1763 -0.0173  0.0615
32405W        W48022  15.745  15.998  16.476 -0.2263 -0.2261  0.1569
32406W        W48023   9.154   3.045   3.804 -0.3934  0.2848  0.2106
32407W        W48024  10.852  16.511   3.643 -0.1601  0.2200  0.0096
32408W        W48025   2.290  16.787  14.232  0.0766  0.0695 -0.3024
32409W        W48026   6.835   7.001  13.999 -0.1353  0.0110  0.0259
32410W        W48027   3.691   0.086   4.645  0.0518  0.2523 -0.3447
32411W        W48028   4.352  16.955  15.831 -0.0430 -0.0550  0.1534
32412W        W48029   5.616   4.906   0.853  0.1037 -0.2706 -0.2658
32413W        W48030  13.293  16.970   1.107 -0.1172 -0.0249  0.2138
32414W        W48031   9.442   6.885   2.228 -0.2564  0.1204  0.0567
32415W        W48032   6.855  13.581   5.625  0.2033 -0.1927 -0.0799
32416W        W48033  15.220   9.622   1.923  0.1526  0.3244  0.0357
32417W        W48034   0.705   3.791   3.439  0.0370 -0.0059  0.0408
32418W        W48035   3.394   7.438   0.129  0.1864  0.1160 -0.2220
32419W        W48036   9.813   9.546   4.413  0.2632 -0.3134 -0.2430
32420W        W48037  17.525   9.875   5.085  0.1104  0.1713 -0.0055
32421W        W48038   5.119   2.189   1.341  0.2213  0.0418  0.0055
32422W        W48039  11.904   1.305   3.590 -0.2039  0.0614  0.0870
32423W        W48040   4.924   6.271  14.289  0.0996 -0.0261 -0.1584
32424W        W48041  15.055   1.689  14.957 -0.0604  0.2579  0.1524
32425W        W48042  14.767   4.452   1.835 -0.0479  0.0085  0.0751
32426W        W48043   5.470   8.500  16.697  0.1897 -0.1506 -0.1299
32427W        W48044  17.073   5.509  12.813 -0.2133  0.1018  0.0651
32428W        W48045   2.576  14.022   4.901  0.0340 -0.0371  0.0141
32429W        W48046  10.371  10.559   2.022  0.3450 -0.0105  0.0766
32430W        W48047   6.194  17.207  15.224  0.3984  0.0661 -0.0267
32431W        W48048   0.234  10.059  13.520  0.2603  0.0220 -0.1099
32432W        W48049   4.871  13.062   1.434 -0.0706 -0.1852  0.2363
32433W        W48050  11.292  10.252  12.581 -0.2592  0.1972 -0.1396
32434W        W48051  11.664  15.053   6.066  0.0204  0.0775  0.0674
32435W        W48052  11.629  12.640   5.234  0.0198  0.2329 -0.2372
32436W        W48053  17.077   7.089   1.376  0.0823 -0.1324  0.2478
32437W        W48054   8.984   1.850   2.296  0.0412  0.0958 -0.1048
32438W        W48055  10.379   2.936   0.193 -0.0204 -0.2254  0.1814
32439W        W48056  16.828  14.343  12.566 -0.0181  0.1834 -0.1139
32440W        W48057   3.155  14.537  13.348 -0.3722  0.0274 -0.0068
32441W        W48058   1.465   0.633   0.167 -0.1353 -0.3563  0.0905
32442W        W48059   6.681  13.199   2.066  0.0328 -0.2569 -0.3002
32443W        W48060   0.164   2.888  16.524  0.1986  0.2989 -0.1453
32444W        W48061   4.653  12.312  12.419  0.1077 -0.1568  0.0623
32445W        W48062  17.021  13.601  14.480 -0.2127  0.2572  0.0131
32446W        W48063  14.735   3.956   4.732 -0.1886 -0.0390  0.0390
32447W        W48064  13.139   8.643   2.314  0.1428  0.2878  0.1037
32448W        W48065   8.363   5.442   4.462 -0.2803 -0.1116  0.0133
32449W        W48066  10.087   2.634  16.749  0.1300 -0.2409  0.1696
32450W        W48067   0.398   6.294   1.726 -0.1035  0.0448  0.1521
32451W        W48068   9.405   6.504  13.142  0.3233  0.1420  0.2681
32452W        W48069  16.155  11.063   2.431 -0.0998  0.4899  0.3346
32453W        W48070   3.852  15.296  11.391  0.1673  0.0674  0.0078
32454W        W48071   7.393  13.673   3.099 -0.1751  0.3143  0.0034
32455W        W48072   3.015  10.116   4.668  0.2339  0.2381  0.3324
32456W        W48073   4.268   8.645  12.072  0.0941  0.3021 -0.2255
32457W        W48074   7.434   5.033  11.773 -0.0704 -0.0592  0.0951
32458W        W48075  14.370   9.534   2.972  0.1492  0.1907  0.3032
32459W        W48076  12.279  15.549  11.848 -0.1355 -0.1342 -0.0380
32460W        W48077  11.545  10.078  12.226 -0.2015  0.0884 -0.3708
32461W        W48078   0.608  13.666   4.276 -0.0197  0.0038  0.1065
32462W        W48079   1.668  10.470  11.709  0.1196 -0.0930  0.0668
32463W        W48080  17.358  17.614  14.101  0.0356  0.1507 -0.2515
32464W        W48081   6.130  12.663  12.520 -0.0122 -0.1158  0.1143
32465W        W48082   6.150  17.120   2.231 -0.0501 -0.1809  0.3409
32466W        W48083  14.842  13.606   0.576 -0.2020 -0.3323 -0.1656
32467W        W48084   2.791  12.699   1.842 -0.0027 -0.0392 -0.0027
32468W        W48085   7.616   4.292   2.914  0.0262 -0.2592 -0.0246
32469W        W48086   1.368   3.435  13.642  0.3035  0.1448  0.2412
32470W        W48087   4.930   4.218   5.161  0.2044 -0.2289 -0.2118
32471W        W48088   1.049  15.294   5.183 -0.0093 -0.2544  0.1048
32472W        W48089   6.519   8.577  15.804 -0.2567 -0.0457  0.0245
32473W        W48090  10.397  14.707   2.544 -0.0997 -0.0479  0.2106
32474ION     NA48091  12.130   3.303  10.939  0.0902 -0.3006  0.2152
32475ION     NA48092  16.092   2.154   5.827 -0.2329 -0.3193 -0.1827
32476ION     NA48093   9.869  17.013  10.490 -0.1478  0.2220  0.0626
32477ION     NA48094   5.099  13.006  10.552  0.0656  0.1172  0.0235
32478ION     NA48095   0.235   3.250  10.623 -0.3188 -0.1159  0.2519
32479ION     NA48096   4.205   7.766   5.954  0.3745 -0.1126 -0.1404
32480ION     NA48097   0.458  17.749   5.874  0.3878  0.1457  0.0187
32481ION     NA48098   6.027   6.803   6.224 -0.1570  0.2146 -0.0762
32482ION     NA48099  10.579  11.365  10.765  0.0769  0.0030 -0.0488
32483ION     NA48100  11.564   2.614  10.984 -0.0692 -0.1099  0.2462
32484ION     NA48101   9.818  15.569   3.472  0.1370  0.1316  0.3470
32485ION     NA48102  11.549   8.068  11.039 -0.2507 -0.3081  0.5424
32486ION     NA48103   6.211  16.555  10.274 -0.6830  0.3118  0.1398
32487ION     NA48104  13.811   0.986  11.016 -0.1560 -0.0575 -0.1391
32488ION     NA48105  13.989  17.111  10.998 -0.2430  0.1579 -0.3315
32489ION     NA48106  10.990   0.500  13.294  0.0151 -0.1526  0.0875
32490ION     NA48107   6.015  15.553  10.120  0.0599  0.0950 -0.1151
32491ION     NA48108   2.087   1.385   5.935  0.1548 -0.0176  0.0425
32492ION     NA48109   8.830  11.328   6.337  0.2244  0.1208 -0.1827
32493ION     NA48110   8.528  17.060  10.563  0.0361 -0.0992  0.0614
32494ION     NA48111  10.345  15.607   5.269  0.3870  0.1201 -0.0572
32495ION     NA48112  10.002   8.740  12.605  0.1677  0.2677  0.1550
32496ION     NA48113  13.391  14.694  13.081 -0.0994 -0.0764  0.1242
32497ION     NA48114   8.407  13.775  10.687  0.1159 -0.3338 -0.1254
32498ION     NA48115   4.768   9.385  10.794 -0.0150 -0.0784 -0.0463
32499ION     NA48116   0.796  14.384  11.039  0.0123 -0.1219  0.0592
32500ION     NA48117   8.001   1.577  13.472 -0.1001  0.0936 -0.0190
32501ION     NA48118  16.791  11.210   6.433 -0.2960  0.1878  0.4709
32502ION     NA48119  11.311  13.989  10.743  0.0672  0.4409  0.2586
32503ION     NA48120  10.037  12.554   6.192 -0.2327  0.2023 -0.1035
32504ION     NA48121  13.025   9.831  11.209 -0.0953  0.0310 -0.0295
32505ION     NA48122   1.920  10.006  10.788 -0.0851 -0.4410 -0.0038
32506ION     NA48123  10.978   1.426   5.973  0.0946 -0.0020  0.4563
32507ION     NA48124   8.047   6.558   6.443  0.1251  0.2531 -0.0399
32508ION     NA48125   7.707   3.216   0.584 -0.1250  0.1020 -0.1049
32509ION     NA48126  11.493   4.028  10.999  0.0460  0.0926  0.0939
32510ION     NA48127   6.546  14.835  10.351 -0.0231 -0.3066  0.1040
32511ION     NA48128  16.752   8.804  11.137  0.2268 -0.0224 -0.2004
32512ION     NA48129  14.096  12.035  10.727  0.0573 -0.0433 -0.1407
32513ION     NA48130   1.383   7.878  10.790 -0.0410  0.0288 -0.1209
32514ION     NA48131   4.178   3.126   2.088  0.1894 -0.0299 -0.0776
32515ION     NA48132  13.249   9.357  12.537  0.1094 -0.0593 -0.0647
32516ION     NA48133  16.716   5.834  10.931  0.0341 -0.0004 -0.4296
32517ION     NA48134  15.982   9.025  11.173 -0.2080 -0.1072  0.0956
32518ION     NA48135   6.948   7.362  11.329 -0.1236 -0.2399 -0.1271
32519ION     NA48136   5.213   4.820   5.969 -0.6112 -0.1295  0.0877
32520ION     NA48137  15.823   0.144  10.722 -0.1943  0.0784 -0.1250
32521ION     NA48138  17.778   9.421  15.637  0.1111 -0.0064  0.1223
32522ION     NA48139  16.043   7.177  10.877  0.1436  0.0955 -0.1217
32523ION     NA48140   7.456   2.035  11.797 -0.0381 -0.1083 -0.1695
32524ION     NA48141   7.294   4.033  10.866 -0.0148 -0.2919  0.1238
32525ION     NA48142   8.992   9.336  10.957 -0.0684  0.3345  0.3482
32526ION     NA48143   7.834   9.206  11.052 -0.2278 -0.2997  0.0143
32527ION     NA48144   4.741  11.923  10.617 -0.0921 -0.1079 -0.1072
32528ION     NA48145   8.175   7.819  11.060  0.0529 -0.3142  0.0226
32529ION     NA48146  17.047  10.389  10.792  0.0136 -0.0831 -0.0077
32530ION     NA48147   2.986   9.421  14.266 -0.0279 -0.0726 -0.0792
32531ION     NA48148  12.397   7.045  11.144 -0.4511  0.0355  0.2672
32532ION     NA48149  14.789   8.405   4.387  0.1280 -0.3686 -0.0564
32533ION     NA48150  15.661  13.522  10.664  0.0381  0.0473  0.0501
32534ION     NA48151  10.342   2.908   4.410  0.1435  0.1238 -0.0898
32535ION     NA48152  14.310   6.464   6.396 -0.0283  0.1146 -0.0078
32536ION     NA48153   7.836   2.342  10.575 -0.1785  0.0014 -0.1196
32537ION     NA48154   6.363  10.469  10.785 -0.1002  0.3637 -0.3221
32538ION     NA48155   6.837  17.344  10.347  0.2208 -0.0287 -0.0268
32539ION     NA48156   2.095   8.247  12.169 -0.0486 -0.1008  0.0999
32540ION     NA48157  14.067  16.130   6.287  0.0853 -0.0297 -0.2546
32541ION     NA48158   5.663   8.378  10.909 -0.1924 -0.1271 -0.1613
32542ION     NA48159  12.578  11.375  10.877  0.3786 -0.1289  0.0690
32543ION     NA48160   7.201  12.119  10.900 -0.1890 -0.0852 -0.2400
32544ION     NA48161   7.318   9.031  11.652  0.0198  0.0167 -0.0096
32545ION     NA48162   2.170  16.486  10.747  0.1540 -0.0074  0.1288
32546ION     NA48163   0.870   1.668  10.851  0.2442 -0.0407 -0.0725
32547ION     NA48164  15.277  12.816   5.291 -0.0407 -0.3508 -0.0334
32548ION     NA48165  13.626   7.619  11.129 -0.0288  0.3538  0.2345
32549ION     NA48166  11.261  10.001  11.342  0.0240  0.0582 -0.0027
32550ION     NA48167  12.964   3.113   2.419  0.0714  0.0444 -0.1444
32551ION     NA48168   0.109   1.748  10.648 -0.2791 -0.1475 -0.4182
32552ION     NA48169   7.205  11.054  10.803  0.1197 -0.0027 -0.0120
32553ION     NA48170  17.784   2.495  10.671 -0.0135 -0.1227  0.0515
32554ION     NA48171   1.004   0.460   5.772 -0.0457 -0.1199 -0.0233
32555ION     NA48172  13.441  10.945  14.366 -0.2151 -0.1394  0.0310
32556ION     NA48173   9.001  11.291   5.280  0.1219  0.1439 -0.1197
32557ION     NA48174   0.853   3.461   5.436 -0.3060  0.1260  0.0444
32558ION     NA48175  15.928   7.320  12.471 -0.3809  0.2028 -0.1114
32559ION     NA48176  10.825   2.285  10.748  0.1290 -0.3242  0.3873
32560ION     NA48177   0.872  12.036  10.676 -0.3395  0.2240  0.1547
32561ION     NA48178   7.552  14.613  11.459 -0.0440  0.0261 -0.0253
32562ION     NA48179  10.522   5.610  12.070 -0.0550 -0.3715  0.1276
32563ION     NA48180   2.051   4.741   5.614  0.2189  0.4389 -0.1278
32564ION     NA48181   5.890  12.024   5.663 -0.1474 -0.2225 -0.2773
32565ION     NA48182   9.197   8.369   4.735  0.4594 -0.3754 -0.0970
32566ION     NA48183   5.314   7.373  10.734  0.1241  0.1527  0.3321
32567ION     NA48184  14.486  10.426  11.169 -0.2649  0.2932  0.0494
32568ION     NA48185   8.578   8.587  10.980  0.4194 -0.0393  0.0763
32569ION     NA48186  10.099   1.275  10.319 -0.3212  0.1445  0.0363
32570ION     NA48187   9.879  13.045  10.936  0.0104  0.0345 -0.0812
32571ION     NA48188   3.574  14.333  10.862  0.0636 -0.1736  0.0142
32572ION     NA48189  13.303  17.636  10.682 -0.2219 -0.0472  0.1075
32573ION     NA48190   4.937  14.579  10.556  0.2696  0.0331  0.0191
32574ION     NA48191  12.027   1.168  15.204  0.1081 -0.1940 -0.0387
32575ION     NA48192   2.253   8.993  10.981 -0.0477  0.1790 -0.0485
32576ION     NA48193   4.969  14.998  10.114 -0.0681  0.0532 -0.0282
32577ION     NA48194  16.597  17.029   1.431  0.1553 -0.0787 -0.2930
32578ION     NA48195   3.504   1.565  10.586 -0.0360 -0.1948 -0.0780
32579ION     NA48196   6.374   8.076  11.195 -0.0975  0.1505 -0.0319
32580ION     NA48197  14.669   1.585  10.889 -0.1321 -0.0570 -0.0111
32581ION     NA48198   8.182  12.047  10.954  0.1465  0.0999 -0.1340
32582ION     NA48199   5.753  14.692  10.126 -0.3271  0.3260 -0.0429
32583ION     NA48200   1.028   4.733  10.722 -0.1340  0.2015 -0.1366
32584ION     NA48201   6.754   5.675  11.305 -0.0221  0.0605 -0.1358
32585ION     NA48202   5.583  17.332  10.226  0.1139  0.4665  0.2179
32586ION     NA48203  13.287  10.381   2.736  0.1094 -0.1694  0.0021
32587ION     NA48204  13.834  12.204  11.692 -0.0990  0.3152  0.0985
32588ION     NA48205   1.563  15.826  10.391 -0.2787  0.0689  0.1896
32589ION     NA48206   2.006   6.207  11.127 -0.0242  0.0242  0.0186
32590ION     NA48207   8.014  13.450  10.719 -0.0379  0.2101  0.1033
32591ION     NA48208   7.016  14.910   2.987  0.1413 -0.0242 -0.1604
32592ION     NA48209  17.396   1.055  10.615  0.0864  0.0262 -0.0196
32593ION     NA48210   4.513  16.352  10.145  0.4428  0.0839 -0.0314
32594ION     NA48211  12.223  14.303   6.331 -0.1935  0.1393  0.1629
32595ION     NA48212   4.009   7.182  10.708 -0.0293  0.2373 -0.2374
32596ION     NA48213  11.941   9.743  11.210 -0.0214  0.1320 -0.0740
32597ION     NA48214   9.163   2.743  10.710 -0.0165 -0.0712  0.0738
32598ION     NA48215   7.604  16.709  10.285  0.1920 -0.0911  0.2745
32599ION     NA48216   2.472   5.751  10.551  0.0706 -0.0621 -0.0229
32600ION     NA48217  15.295   9.588   6.603 -0.1640  0.2502 -0.2477
32601ION     NA48218   5.668   5.062  10.836  0.3852 -0.1046  0.3578
32602ION     NA48219  14.131  14.839  10.729  0.2761 -0.1036 -0.1875
32603ION     NA48220  11.101   0.523  10.734 -0.1961  0.0646  0.0330
32604ION     NA48221   7.481   0.976   6.303  0.1197 -0.0917  0.2021
32605ION     NA48222  12.810   1.790  10.608 -0.1293 -0.0437  0.2745
32606ION     NA48223  15.873   2.872  10.919 -0.0637 -0.2486  0.0542
32607ION     NA48224   5.730  13.871   2.149  0.2675  0.0317  0.1259
32608ION     NA48225  10.400  12.577   4.221  0.0718  0.3646  0.0871
32609ION     NA48226  15.450  17.768   5.678 -0.0020  0.0247  0.2151
32610ION     NA48227  16.750  11.837  10.724 -0.1611  0.1088 -0.0402
32611ION     NA48228   9.703   8.813  15.897 -0.0210 -0.0030  0.0461
32612ION     NA48229  16.901  17.336  11.218  0.2583  0.1585 -0.0346
32613ION     NA48230  11.164   5.279   6.137  0.0249 -0.0997 -0.0503
32614ION     NA48231   0.261   6.746   2.989  0.2267  0.0120 -0.0410
32615ION     NA48232  14.602  13.576  10.542  0.2018  0.0330 -0.3533
32616ION     NA48233  13.746   2.580   6.146  0.1010  0.2635  0.0337
32617ION     NA48234  11.251  10.714  10.865 -0.0051 -0.0865 -0.2417
32618ION     NA48235  11.008  12.333  10.724  0.0222 -0.0009 -0.0281
32619ION     NA48236   4.308  13.059   1.405  0.0319 -0.2870 -0.1447
32620ION     NA48237   8.210  10.102   6.052  0.1697 -0.1060 -0.1964
32621ION     NA48238  14.030  14.821   3.198  0.0546  0.0071  0.1035
32622ION     NA48239  17.011  16.128  10.422  0.3750 -0.0938  0.0028
32623ION     NA48240  11.872   2.106   2.514 -0.0138  0.3028  0.3498
32624ION     NA48241  13.461   3.704   5.743  0.1530 -0.0618 -0.0974
32625ION     NA48242  15.950  10.901  13.149 -0.3769  0.1892  0.1347
32626ION     NA48243  16.356   3.717  10.746  0.0029 -0.1143 -0.0562
32627ION     NA48244   0.762   2.247  12.536 -0.0422 -0.0687 -0.0795
32628ION     NA48245   4.594  17.299  10.355 -0.0518 -0.1758 -0.2788
32629ION     NA48246   6.627   4.243   1.830  0.1375 -0.0469  0.5020
32630ION     NA48247   0.173   3.412  14.333  0.2583 -0.3396  0.1168
32631ION     NA48248  17.150   1.911  10.534 -0.1405  0.0842 -0.2010
32632ION     NA48249   2.639   7.772   6.178  0.0413  0.3670  0.0683
32633ION     NA48250   6.623   3.212   1.015  0.1646  0.1849  0.1815
32634ION     NA48251   1.700   3.863  10.758  0.0763  0.0792  0.1378
32635ION     NA48252   3.249   2.743   5.691 -0.1373  0.1213  0.0160
32636ION     NA48253   9.765   8.149   1.554 -0.0411  0.1183 -0.0235
32637ION     NA48254   2.343  12.874  10.543  0.0915 -0.2045 -0.1776
32638ION     NA48255   4.716   9.098   3.391 -0.1078 -0.3275 -0.0134
32639ION     NA48256   2.326  13.884  10.553 -0.1377 -0.0975  0.0550
32640ION     NA48257   5.588   8.909   6.160 -0.0070 -0.1096 -0.1441
32641ION     NA48258   4.660  10.977  10.593  0.0925  0.1215  0.1992
32642ION     NA48259  14.108   9.564   1.453  0.0958  0.2639  0.2419
32643ION     NA48260   4.091  11.435   5.978 -0.1464  0.1857  0.0506
32644ION     NA48261   3.956  11.472  10.401 -0.0474 -0.0950 -0.0238
32645ION     NA48262   2.045  16.360  16.678  0.2284  0.4059  0.3607
32646ION     NA48263   2.064   6.711  12.683 -0.0091  0.0508 -0.0054
32647ION     NA48264  14.713  11.456  10.992 -0.3073 -0.1070 -0.2957
32648ION     NA48265  12.590  12.254  10.701 -0.1173  0.0464 -0.1383
32649ION     NA48266  16.587   7.359   0.713 -0.2816 -0.0940 -0.2795
32650ION     NA48267  13.503  12.581   0.930  0.0634 -0.1020  0.1579
32651ION     NA48268   5.727  16.410  10.179 -0.2210  0.1471 -0.1326
32652ION     NA48269  17.525  11.242  10.995  0.0682 -0.0447 -0.2954
32653ION     NA48270   2.168  11.346  10.694 -0.2705  0.0628  0.0749
32654ION     NA48271  14.033   4.679  10.910 -0.1739  0.1648  0.0188
32655ION     NA48272  13.422   0.439   5.744 -0.0356 -0.0731  0.0599
32656ION     NA48273  16.439   6.724  13.529  0.0204 -0.0731 -0.0171
32657ION     NA48274   2.999  11.254  10.570  0.0455 -0.2702  0.1615
32658ION     NA48275  13.407   6.272   2.321 -0.3021  0.0707 -0.0881
32659ION     NA48276  13.465  13.930  16.035  0.2417  0.0395  0.2011
32660ION     NA48277  12.667   5.603   1.949  0.0878 -0.3158  0.0209
32661ION     NA48278   1.004   7.453   6.240  0.0706  0.0140 -0.2241
32662ION     NA48279  12.395  15.481   3.362  0.0622 -0.1401 -0.2756
32663ION     NA48280   6.441   0.292  10.278 -0.1576 -0.4105 -0.0894
32664ION     NA48281   8.000   0.784  10.659  0.0538 -0.2027  0.0132
32665ION     NA48282   4.759   6.607  10.402 -0.1800 -0.2461  0.3134
32666ION     NA48283  13.186   5.925  11.126  0.2768  0.2225 -0.0736
32667ION     NA48284   7.041  10.295   0.561 -0.2029  0.0819 -0.0142
32668ION     NA48285  14.289   8.423  15.378  0.2441  0.0148 -0.2452
32669ION     NA48286   8.942   8.491  15.525 -0.2968  0.1285 -0.1956
32670ION     NA48287   7.969   4.847   5.042  0.0281  0.2107 -0.0329
32671ION     NA48288   6.457   2.813  10.397  0.2838  0.2569 -0.2504
32672ION     NA48289   1.955   7.165  10.977 -0.2654  0.0834 -0.0763
32673ION     NA48290  15.484   2.669   5.871  0.1587  0.2463  0.0162
32674ION     NA48291   5.325  13.815  10.686  0.0691 -0.1479 -0.2120
32675ION     NA48292   7.399   1.385  15.349  0.0499  0.1454 -0.2267
32676ION     NA48293   1.867  17.605  10.415  0.3559  0.1655  0.0765
32677ION     NA48294  11.508  16.851  14.694  0.2107  0.2646  0.2191
32678ION     NA48295   7.340   0.076  10.508 -0.0226 -0.4519  0.2785
32679ION     NA48296   9.497  17.871  16.184 -0.1635  0.0608 -0.0423
32680ION     NA48297   7.180  10.301  10.983 -0.4523 -0.1746  0.0431
32681ION     NA48298  15.827  17.096   5.969  0.0636 -0.2187  0.1777
32682ION     NA48299   0.975   4.094   1.926  0.3369 -0.1290 -0.0711
32683ION     NA48300   4.978   0.050  16.605 -0.2341 -0.1564 -0.0524
32684ION     NA48301  13.095  11.615   5.773 -0.0265 -0.1160  0.0251
32685ION     NA48302   8.024   9.769  10.844 -0.2244  0.3290  0.2225
32686ION     NA48303   0.170   5.015  10.954 -0.1935 -0.2237  0.1719
32687ION     NA48304   9.111  12.001   6.360  0.0436  0.1704 -0.3524
32688ION     NA48305  10.047  15.728  11.792 -0.0740  0.4128 -0.3679
32689ION     NA48306   2.741  15.941  13.906  0.0341 -0.2649 -0.0232
32690ION     NA48307   2.213  13.483   6.067  0.0173  0.1944 -0.1294
32691ION     NA48308  17.119   6.533  11.065 -0.1256  0.2605  0.0073
32692ION     NA48309   1.701   0.721  10.740 -0.0467  0.0683 -0.1535
32693ION     NA48310  15.107  12.155  10.730 -0.0447  0.0970 -0.0353
32694ION     NA48311  11.799  12.914   2.181 -0.1483 -0.2310  0.0154
32695ION     NA48312  15.871   4.493  10.842 -0.2507 -0.0054 -0.1319
32696ION     NA48313   9.008  17.166  10.593 -0.1670 -0.0098  0.4218
32697ION     NA48314  17.758  15.438  10.681  0.2410  0.0635  0.0259
32698ION     NA48315   8.402  15.265   3.342 -0.1750  0.3381 -0.0943
32699ION     NA48316   3.330   4.675  12.110  0.0045 -0.2028 -0.2651
32700ION     NA48317  13.659   8.316   6.288  0.0057 -0.3150 -0.0138
32701ION     NA48318   0.915  15.352  10.908 -0.0266  0.1192  0.3401
32702ION     NA48319   9.874   6.903  12.513  0.1679 -0.2230 -0.3850
32703ION     NA48320  11.154  16.713   6.520  0.0748 -0.1031 -0.0651
32704ION     NA48321   2.927   1.673   6.327 -0.0041  0.0007 -0.0058
32705ION     NA48322   8.360   3.071  10.796  0.3298 -0.2357  0.0556
32706ION     NA48323  11.665   1.905   6.310 -0.0301  0.2546 -0.1554
32707ION     NA48324  17.398   5.754  15.919 -0.1798 -0.2320 -0.0233
32708ION     NA48325  10.001  14.343   4.885  0.1116 -0.1741 -0.0313
32709ION     NA48326  14.347   4.186   5.848  0.1812 -0.0214 -0.0258
32710ION     NA48327   9.424  13.870  14.172 -0.1323 -0.2627  0.0040
32711ION     NA48328   3.524   6.195  16.615 -0.1363  0.0463 -0.0627
32712ION     NA48329   6.897   4.551   5.777  0.0558  0.1764  0.1483
32713ION     NA48330   0.421   0.944  10.601  0.0039 -0.0527 -0.0432
32714ION     NA48331   2.181   4.142  12.502  0.0484 -0.1410  0.0640
32715ION     NA48332  10.148  17.484   1.840  0.0664  0.0294  0.3335
32716ION     NA48333   6.028   5.636  13.790  0.0335 -0.0913  0.0289
32717ION     NA48334   4.147   2.938  10.645  0.0724  0.4090  0.2234
32718ION     NA48335   8.339   3.891  11.015 -0.1457  0.1158  0.1761
32719ION     NA48336  12.766  13.274  10.723 -0.2483 -0.1102 -0.2175
32720ION     NA48337  11.955   5.219  11.185  0.1636 -0.0525 -0.0222
32721ION     NA48338  15.945  10.170   6.577 -0.0732 -0.1335  0.1379
32722ION     NA48339   0.075  15.324   2.440 -0.1658 -0.0162 -0.1475
32723ION     NA48340  16.037  14.044   5.865 -0.1306 -0.1798 -0.1423
32724ION     NA48341  15.476   8.971  10.938 -0.4083  0.1197  0.2436
32725ION     NA48342   3.699   5.188  16.736  0.1102  0.0585 -0.1597
32726ION     NA48343  13.350   1.135  10.970  0.1910 -0.1463 -0.1587
32727ION     NA48344  11.883  17.318   6.288 -0.0422  0.2344 -0.0388
32728ION     NA48345  10.754   5.102   6.392 -0.1692  0.0217 -0.0576
32729ION     NA48346   0.209   8.451   5.327 -0.1716 -0.0008  0.3112
32730ION     NA48347   8.602   5.033  12.334 -0.1452  0.1270  0.0651
32731ION     NA48348   2.589   4.769   6.299  0.0912  0.0720  0.2734
32732ION     NA48349   5.663  12.967   2.910  0.0559  0.0642  0.1899
32733ION     NA48350   8.298  16.276   0.323 -0.0916  0.2692  0.2248
32734ION     NA48351  16.347   8.055  10.962  0.0955  0.1924 -0.0496
32735ION     NA48352  17.060  15.234  10.524 -0.1022  0.0534 -0.1951
32736ION     NA48353   7.155  13.797   3.930  0.2196 -0.0515  0.1771
32737ION     NA48354   1.547   4.887  11.717  0.0097  0.4671 -0.1066
32738ION     NA48355   0.939  16.836   5.690  0.2285  0.1587 -0.0848
32739ION     NA48356   0.714   5.608  10.721  0.3290 -0.1062 -0.0395
32740ION     NA48357   8.583  10.417  10.936 -0.2462 -0.1093  0.0386
32741ION     NA48358  15.426  11.588   4.643  0.0777 -0.1325  0.1620
32742ION     NA48359   5.617  11.062  10.779  0.1753 -0.0584 -0.2718
32743ION     NA48360   5.686  12.669   3.842  0.2771  0.0434  0.0733
32744ION     NA48361  11.287   5.915  11.136  0.1228 -0.0663  0.0166
32745ION     NA48362  12.261  14.669   1.895 -0.0042  0.2681 -0.1663
32746ION     NA48363   7.264  12.179   6.231  0.4767  0.1564  0.1313
32747ION     NA48364   0.054  14.850  10.755  0.2351 -0.4920 -0.3453
32748ION     NA48365  13.542   3.263  11.139 -0.1222  0.3833 -0.0140
32749ION     NA48366  15.665   3.545   5.966  0.1020 -0.1241  0.2168
32750ION     NA48367  11.799   0.894  10.546  0.1853 -0.0816 -0.1016
32751ION     NA48368  11.721   7.229  14.024 -0.0347  0.3901 -0.0579
32752ION     NA48369   9.493   0.075  10.343 -0.2829 -0.1063 -0.2665
32753ION     NA48370  13.998   5.421  10.913 -0.0294 -0.1323 -0.1737
32754ION     NA48371  10.574   4.050  11.017 -0.0258  0.1976  0.1313
32755ION     NA48372  13.932   8.165  10.927 -0.1651  0.0879  0.0623
32756ION     NA48373  16.938   5.036  10.871  0.0423  0.1285  0.1641
32757ION     NA48374  15.273  16.669   6.202 -0.1346 -0.0062 -0.0307
32758ION     NA48375   1.607  16.804  10.312 -0.0436  0.1608 -0.2163
32759ION     NA48376  11.575  14.760  10.635 -0.1250  0.2962  0.1225
32760ION     NA48377   8.472   5.772   2.361 -0.0389 -0.0014  0.2200
32761ION     NA48378   0.299   3.116   6.052 -0.1911 -0.1364  0.2191
32762ION     NA48379  11.579   5.084  14.512  0.0453 -0.0738 -0.0476
32763ION     NA48380   5.118   5.811   2.442 -0.1622 -0.0180 -0.1130
32764ION     NA48381  17.178  14.041  10.755 -0.0105 -0.3235 -0.2488
32765ION     NA48382  13.331  11.633  10.831 -0.0994 -0.1820  0.0409
32766ION     NA48383   4.217   4.484  10.895  0.0300  0.0249  0.1810
32767ION     NA48384  13.775   2.023  10.805  0.0945 -0.0344 -0.0972
32768ION     NA48385  13.267   4.206  11.304 -0.1220 -0.1509  0.1175
32769ION     NA48386   0.970  12.882  10.828  0.0809 -0.0781 -0.1418
32770ION     NA48387   9.296  14.361  10.755  0.0203  0.3520 -0.0725
32771ION     NA48388   9.444   4.036  11.838  0.1031 -0.3240 -0.0764
32772ION     NA48389  15.941   6.285  10.911  0.1130  0.0050 -0.0345
32773ION     NA48390   8.814   4.498  10.911  0.1435  0.0714 -0.1497
32774ION     NA48391   6.092  13.972  10.177  0.0086 -0.1649 -0.0147
32775ION     NA48392   3.641  10.515  10.751  0.1723 -0.1356  0.2497
32776ION     NA48393   4.971  14.368  15.092  0.1209  0.1834  0.2901
32777ION     NA48394  12.071  12.371   1.282 -0.1043  0.3046  0.0054
32778ION     NA48395   2.477  11.897   4.724  0.1883 -0.0015  0.1332
32779ION     NA48396   7.044  16.497  10.188 -0.0237 -0.1762  0.1042
32780ION     NA48397   9.872   0.599  10.873 -0.1983  0.0031 -0.1020
32781ION     NA48398   1.105   6.059  11.583  0.2430 -0.1752 -0.0798
32782ION     NA48399   0.332   8.178   6.168 -0.0853 -0.0698 -0.1241
32783ION     NA48400   7.940   1.323  10.646 -0.0710 -0.1184  0.1592
32784ION     NA48401  15.856   9.018   6.480 -0.0690 -0.3993 -0.0326
32785ION     NA48402  13.288   7.366   6.440  0.0113 -0.0191 -0.1154
32786ION     NA48403   3.591  13.461   1.325 -0.0311 -0.1832  0.0642
32787ION     NA48404  12.153   4.336  12.209  0.0620  0.1322  0.2022
32788ION     NA48405   1.761   8.988  12.741  0.1015  0.0995 -0.2291
32789ION     NA48406  10.169   9.380  11.199  0.2504  0.0875  0.0383
32790ION     NA48407  16.965   2.969  10.735 -0.1471  0.1756  0.3132
32791ION     NA48408   0.072   8.608   0.398 -0.1048  0.1443  0.1959
32792ION     NA48409   6.076  13.220  10.359 -0.3163 -0.0642 -0.4259
32793ION     NA48410   4.165  15.294  10.212 -0.1035  0.0412  0.3122
32794ION     NA48411  17.787   4.050  10.658 -0.1942  0.0996 -0.1301
32795ION     NA48412  16.660   1.306   0.010 -0.1584 -0.1466 -0.0460
32796ION     NA48413   4.853  10.767   5.620 -0.1581 -0.2518 -0.0414
32797ION     NA48414  13.148   4.470   5.775 -0.0273 -0.0014  0.2712
32798ION     NA48415   9.970   7.682  11.200  0.3116 -0.0152  0.0699
32799ION     NA48416   0.225   6.426  10.975 -0.1254 -0.0328  0.0021
32800ION     NA48417   7.322  15.202  10.680 -0.0112  0.3637  0.4239
32801ION     NA48418  11.910  13.827  10.521  0.4272 -0.0654  0.0456
32802ION     NA48419  13.380  12.602  14.243 -0.0267 -0.1707  0.3443
32803ION     NA48420  14.194   6.652   1.288 -0.1511 -0.0716 -0.0350
32804ION     NA48421   7.428   0.374   1.892 -0.1883  0.3069 -0.1389
32805ION     NA48422   3.209  13.420  10.481 -0.0940  0.1515 -0.1671
32806ION     NA48423  10.105  15.744  13.393 -0.0917 -0.1522 -0.0013
32807ION     NA48424   0.349   0.245  10.250 -0.2205  0.0285  0.0022
32808ION     NA48425   5.665   0.359  10.317  0.1166 -0.0890 -0.0513
32809ION     NA48426  16.049  15.389  10.482 -0.0242  0.3342 -0.2081
32810ION     NA48427   1.785   8.231  16.365 -0.4936 -0.2401  0.0241
32811ION     NA48428   5.816   9.856  10.857  0.0323 -0.1316  0.1405
32812ION     NA48429   5.227  15.314   5.480 -0.0887 -0.1640  0.1857
32813ION     NA48430  16.464   7.583   6.332  0.1091 -0.4047  0.0559
32814ION     NA48431  17.042   9.969  11.065 -0.1251 -0.2443 -0.0840
32815ION     NA48432   0.248  15.167  11.471 -0.0742  0.0372 -0.2061
32816ION     NA48433   6.327  10.549  11.259  0.2049  0.0671 -0.0553
32817ION     NA48434  17.506   7.262  12.455 -0.0952 -0.2235 -0.0229
32818ION     NA48435  14.999   1.916  10.467 -0.3300 -0.1339 -0.1156
32819ION     NA48436   0.150   9.471  10.958 -0.0631  0.1475 -0.0107
32820ION     NA48437   3.326  15.009   5.630 -0.0161 -0.0267 -0.4319
32821ION     NA48438   9.443   7.082  11.341 -0.2148  0.1593 -0.2159
32822ION     NA48439  17.853   4.793   5.879 -0.4247 -0.0200 -0.1855
32823ION     NA48440   9.641  11.290  10.844 -0.0175  0.2468  0.0090
32824ION     NA48441  14.008   5.234  14.725  0.1589 -0.2625  0.2286
32825ION     NA48442  11.240  14.296   0.912 -0.1001 -0.1004 -0.2477
32826ION     NA48443  12.874  12.206  11.598  0.0872 -0.0510 -0.0671
32827ION     NA48444  10.351   8.574  11.104  0.1508 -0.3765  0.0136
32828ION     NA48445  11.207  15.600  12.100  0.2376 -0.0665 -0.0059
32829ION     NA48446   2.204   9.291   5.869  0.0230  0.1807 -0.1476
32830ION     NA48447   1.097  10.596  11.585 -0.0495 -0.2099  0.1722
32831ION     NA48448   4.193   8.749  10.694  0.1699 -0.3145 -0.2672
32832ION     NA48449   1.517   2.369  10.820  0.0723  0.0812 -0.2740
32833ION     NA48450   6.612   8.208  16.099  0.3070  0.0296  0.0059
32834ION     NA48451   3.492  14.118   5.265  0.0004  0.2146 -0.0267
32835ION     NA48452   7.878   7.455   6.020  0.0179 -0.1790 -0.2001
32836ION     NA48453   7.879   7.774   2.527 -0.0875 -0.2155  0.1320
32837ION     NA48454  13.032  15.034  10.569 -0.0752 -0.0590  0.1065
32838ION     NA48455   7.357   2.997  10.839 -0.2305 -0.0708 -0.0456
32839ION     NA48456   3.677  14.581   3.956  0.3938  0.0196  0.0156
32840ION     NA48457  17.693   7.313  10.914  0.0268 -0.2262 -0.0477
32841ION     NA48458  13.078   9.191   3.330 -0.0644  0.1219 -0.0661
32842ION     NA48459  14.142  10.332   6.124  0.0718 -0.0857  0.2407
32843ION     NA48460  16.275  14.445  10.594  0.0145 -0.0096 -0.3076
32844ION     NA48461   5.422   8.068   0.217 -0.2759  0.1779 -0.0056
32845ION     NA48462   0.447  11.556   6.310 -0.3764 -0.1489 -0.0839
32846ION     NA48463  15.408  10.064   5.647  0.0355  0.3549  0.0791
32847ION     NA48464  16.853  10.130  11.835 -0.1716 -0.2428  0.1284
32848ION     NA48465   2.548   2.895   0.979  0.3927  0.2925 -0.1005
32849ION     NA48466   5.579   0.189   6.013  0.0665 -0.2072  0.0073
32850ION     NA48467  10.234  16.805   6.459 -0.1779 -0.4312  0.0379
32851ION     NA48468   3.061  13.522   6.015 -0.1757 -0.0591  0.3620
32852ION     NA48469   4.584   9.745   3.990 -0.0904 -0.0017  0.0987
32853ION     NA48470  17.270   3.383  10.645  0.0583  0.0578 -0.2045
32854ION     NA48471   9.875   2.133  10.498  0.3488 -0.1194 -0.0830
32855ION     NA48472   5.729  13.577  14.898 -0.1683 -0.2031 -0.0490
32856ION     NA48473   3.518  12.913  15.513 -0.0507  0.1489 -0.0687
32857ION     NA48474  15.031   3.981  10.723  0.1417  0.2011  0.1934
32858ION     NA48475   9.739   4.457   0.322  0.0012  0.2138 -0.1534
32859ION     NA48476  11.039   1.430  10.671  0.0954  0.1027  0.1005
32860ION     NA48477  10.799   6.433   0.802 -0.2740  0.1890 -0.1260
32861ION     NA48478  13.802  13.905  10.428 -0.1521  0.2012 -0.0698
32862ION     NA48479  15.448   7.691  11.074 -0.0250 -0.1967  0.2096
32863ION     NA48480   6.976   5.571   6.416 -0.2928 -0.1627 -0.0368
32864ION     NA48481   7.746   2.803  13.020  0.1331  0.1033  0.6468
32865ION     NA48482  12.114  15.142  15.753 -0.2539 -0.0302 -0.0641
32866ION     NA48483   2.643   1.472  10.588  0.1053 -0.2480  0.1056
32867ION     NA48484  10.289  11.738  16.448  0.0832  0.2520 -0.0142
32868ION     NA48485  17.036   7.983  10.611  0.3783  0.2040 -0.2809
32869ION     NA48486   3.212   8.739  10.800  0.2088 -0.0328 -0.2060
32870ION     NA48487  17.740  16.544  10.538 -0.3568 -0.2871  0.0188
32871ION     NA48488  13.198   8.935  11.167 -0.0405 -0.2889  0.3487
32872ION     NA48489   2.554   8.207  10.805  0.1778 -0.0406 -0.1454
32873ION     NA48490   7.021  13.782  10.339 -0.1460  0.0085 -0.0760
32874ION     NA48491  11.549   8.910  11.100  0.2433 -0.1773  0.1597
32875ION     NA48492   3.210   5.609  10.765  0.0888  0.0328 -0.2179
32876ION     NA48493   1.062   6.878  10.937  0.2204 -0.1761 -0.0907
32877ION     NA48494   2.566   3.638  10.634  0.1346 -0.1473 -0.1489
32878ION     NA48495  14.881   4.977  10.914 -0.0915 -0.0340  0.3016
32879ION     NA48496  15.699   5.094  13.810 -0.1559 -0.0775 -0.1925
32880ION     NA48497   4.725   3.390   6.091 -0.3255  0.2267 -0.0036
32881ION     NA48498  12.368   9.246  11.015  0.0443 -0.0331  0.0934
32882ION     NA48499  10.853   8.624  11.313  0.1030  0.0747 -0.0621
32883ION     NA48500   4.823   5.942   6.283 -0.3579  0.3114 -0.0699
32884ION     NA48501   6.838   5.885   5.210  0.1453  0.0352 -0.0208
32885ION     NA48502  16.369  16.689   4.358  0.1102  0.3011  0.1995
32886ION     NA48503   8.639  16.111   2.719  0.4087  0.0058 -0.0834
32887ION     NA48504   0.179  14.719   5.148 -0.4187  0.1546  0.1749
32888ION     NA48505  10.683  14.509  10.811 -0.0591  0.0358 -0.1358
32889ION     NA48506   0.280  13.751  10.710 -0.2327  0.2980  0.1431
32890ION     NA48507   4.913  12.660   5.120  0.0253  0.3946  0.0024
32891ION     NA48508   0.382   7.816   1.932 -0.0280 -0.1160 -0.1729
32892ION     NA48509  17.623  13.411  10.683  0.4308  0.2125  0.1470
32893ION     NA48510   4.813   0.026   3.001  0.2235  0.0993  0.2007
32894ION     NA48511   1.790  10.635  10.791 -0.4946  0.1171 -0.2820
32895ION     NA48512   4.164  16.450   6.146 -0.2759  0.1165 -0.2333
32896ION     NA48513   1.114  12.283   6.177 -0.0538  0.0809  0.0253
32897ION     NA48514  12.066   0.334  14.673 -0.4317 -0.1229 -0.2695
32898ION     NA48515   1.454  14.540  10.829 -0.0056  0.0617  0.0030
32899ION     NA48516  10.987  15.452  10.421 -0.2304  0.2598  0.0313
32900ION     NA48517   7.811   0.437  14.962 -0.0027 -0.1472 -0.0918
32901ION     NA48518  12.711   4.030  11.682 -0.0070  0.0603  0.2187
32902ION     NA48519  17.598   3.948   1.052 -0.1041 -0.0805  0.0972
32903ION     NA48520  10.311   6.137  11.107  0.2542  0.1059  0.2355
32904ION     NA48521   4.709  17.587   6.223 -0.0889 -0.2066 -0.0627
32905ION     NA48522   5.352  17.255   6.314  0.2331  0.2392  0.1082
32906ION     NA48523  16.123  10.172  10.970  0.0326 -0.2281 -0.0612
32907ION     NA48524  13.370   8.464  10.966 -0.1179  0.1112 -0.0873
32908ION     NA48525   1.050  16.692  12.510 -0.2454 -0.1319 -0.1144
32909ION     NA48526   7.381  14.252  10.611  0.0640 -0.1470 -0.0335
32910ION     NA48527  15.106  10.760  11.946  0.0118  0.1744  0.2593
32911ION     NA48528   1.999   1.310   3.996 -0.0766  0.0996 -0.0195
32912ION     NA48529  10.492  10.326  10.920  0.1160 -0.1467 -0.0714
32913ION     NA48530   9.204   2.372   1.585 -0.2716 -0.1475 -0.0003
32914ION     NA48531  12.455   4.130  10.921 -0.4136 -0.0362 -0.1674
32915ION     NA48532  12.398   6.156  16.580  0.0985 -0.4135  0.3129
32916ION     NA48533   3.842  15.806  10.170  0.0077 -0.0950  0.1679
32917ION     NA48534  10.192   4.749  11.093  0.2825 -0.2534 -0.2785
32918ION     NA48535   3.015   9.476  10.606  0.1415  0.1089 -0.1988
32919ION     NA48536   2.203   6.839   0.048  0.1105 -0.1070  0.1710
32920ION     NA48537  14.543  17.772   0.680 -0.0260 -0.0083  0.1530
32921ION     NA48538  14.300   3.185  12.806  0.0718  0.2389  0.0916
32922ION     NA48539   3.198  14.913  10.334 -0.0503  0.2404  0.1976
32923ION     NA48540  17.401  17.186  13.169 -0.1323  0.1255 -0.1060
32924ION     NA48541   3.790  16.761  14.445  0.2076 -0.2307  0.1288
32925ION     NA48542  12.948   1.660  13.073  0.0099  0.0009  0.1067
32926ION     NA48543   1.268  16.921  11.220  0.1847  0.2135  0.1122
32927ION     NA48544  14.998  15.692   6.237  0.4812 -0.0370 -0.0301
32928ION     NA48545   3.175   0.663  10.367  0.0933  0.1122  0.1459
32929ION     NA48546  14.892   3.157  10.932  0.2665  0.3125  0.0026
32930ION     NA48547  12.781   1.198   6.266  0.0317  0.0450 -0.2350
32931ION     NA48548  10.170  16.013  10.462  0.3616 -0.0903  0.1304
32932ION     NA48549  11.838  11.469  10.630  0.0696 -0.1584 -0.2175
32933ION     NA48550   8.237  10.700   2.496 -0.0336  0.0415  0.3555
32934ION     NA48551  16.943   4.332   5.917  0.1142  0.0877  0.1975
32935ION     NA48552   0.875   8.759  11.183 -0.1048  0.0922 -0.1387
32936ION     NA48553   5.555  17.141  16.813 -0.0241 -0.3338 -0.0671
32937ION     NA48554   9.093  15.676   0.117  0.0528  0.0808  0.1015
32938ION     NA48555   4.454  12.798   5.811 -0.0137  0.1016  0.0908
32939ION     NA48556  13.331  15.742  11.077  0.1278  0.2162  0.3728
32940ION     NA48557  13.328   6.826  11.197  0.1000  0.0841 -0.2843
32941ION     NA48558   8.312   0.030  10.510 -0.1376 -0.1452 -0.1528
32942ION     NA48559   8.551   2.054  10.774  0.0411 -0.0962  0.2300
32943ION     NA48560   1.751   3.581   1.651  0.0864 -0.2761 -0.1516
32944ION     NA48561   1.770   7.647   0.867  0.0142 -0.0541  0.2029
32945ION     NA48562  14.784  12.358   6.347  0.0300 -0.1145  0.0282
32946ION     NA48563  10.427   7.009  11.186 -0.2211  0.3161 -0.0675
32947ION     NA48564   2.330   0.561  10.410 -0.2221 -0.1460  0.0567
32948ION     NA48565   2.987   0.241  13.828  0.2061 -0.0893 -0.0246
32949ION     NA48566  17.465   8.291  10.682 -0.1877  0.3739  0.1183
32950ION     NA48567   2.633   2.291   6.046  0.2429 -0.2318 -0.0436
32951ION     NA48568   2.445  13.576   1.998  0.1847 -0.4781  0.1572
32952ION     NA48569   8.171   2.452  16.546 -0.1556  0.1096  0.2329
32953ION     NA48570   3.999  16.697  10.613  0.0077  0.2343 -0.2511
32954ION     NA48571   8.738   7.105  11.078  0.0181 -0.0008 -0.0103
32955ION     NA48572  15.754   5.371  10.901  0.2149  0.2359  0.0729
32956ION     NA48573  15.620  15.545  11.289 -0.0830 -0.2570 -0.1780
32957ION     NA48574   3.316  14.511   1.938  0.2186 -0.0285 -0.0388
32958ION     NA48575   5.752   7.508  10.959 -0.0002  0.3102  0.3415
32959ION     NA48576   1.278  11.426  11.207 -0.0416  0.0557  0.0265
32960ION     NA48577   4.661  10.518  11.595  0.0128 -0.0719  0.2294
32961ION     NA48578   6.742  13.732  15.904 -0.0716  0.0382 -0.1519
32962ION     NA48579   2.232  14.577  16.821  0.0952 -0.1909 -0.3204
32963ION     NA48580   2.811  10.493  10.810 -0.5319  0.1904 -0.1323
32964ION     NA48581   9.437   4.783   6.089  0.3550  0.2220 -0.0288
32965ION     NA48582  17.164  10.060  16.449  0.1207 -0.0791  0.4520
32966ION     NA48583  16.433   6.869   6.038  0.3968 -0.0630  0.1838
32967ION     NA48584   2.308  14.054   1.219  0.2251  0.1518 -0.2581
32968ION     NA48585  17.684  10.281   4.732 -0.1563  0.0554 -0.3511
32969ION     NA48586   2.858   4.041  10.845  0.0950  0.0213  0.0741
32970ION     NA48587   6.744  17.273  13.386 -0.1510 -0.1501 -0.3505
32971ION     NA48588  11.734  17.004  10.626 -0.2983 -0.2339  0.0656
32972ION     NA48589   5.838  13.918   4.071 -0.0736  0.0311 -0.0460
32973ION     NA48590   7.961   4.779  11.153 -0.1395  0.0216  0.0891
32974ION     NA48591   7.981   6.657  16.043  0.4852 -0.1125  0.0976
32975ION     NA48592   5.251   1.030  10.515  0.1260 -0.1743 -0.1220
32976ION     NA48593   6.559  12.336   5.887  0.2169  0.1686 -0.1790
32977ION     NA48594   4.509   5.257  10.548  0.1337 -0.0287  0.2264
32978ION     NA48595   0.159   8.737  11.110  0.0987  0.0998  0.3075
32979ION     NA48596  15.792  17.406   1.083  0.0508 -0.4141 -0.1061
32980ION     NA48597  10.141  12.665   2.625 -0.0285  0.1190  0.2660
32981ION     NA48598   5.596   6.617  11.314  0.1846  0.2011  0.3086
32982ION     NA48599   1.221   4.127   5.785 -0.1113  0.0230  0.1182
32983ION     NA48600   9.218   5.334  11.125 -0.0905 -0.0662 -0.2466
32984ION     NA48601  12.841   5.927   6.366  0.3647  0.3000 -0.1541
32985ION     NA48602   3.516   3.496  10.578 -0.0709  0.1615  0.0825
32986ION     NA48603  15.280  14.646  10.744 -0.1511 -0.1148  0.1605
32987ION     NA48604  12.948   4.920  11.033  0.2537 -0.1647 -0.2731
32988ION     NA48605  16.360   2.242  10.584  0.1753  0.2162 -0.0819
32989ION     NA48606   4.459   1.369  10.719 -0.2876  0.0163 -0.1966
32990ION     NA48607  16.518  12.664  10.805 -0.0779 -0.1159 -0.1613
32991ION     NA48608  14.107   6.326   4.453 -0.0916 -0.0772 -0.0253
32992ION     NA48609   0.438   7.851  10.968 -0.2645 -0.1902  0.0043
32993ION     NA48610   2.284  10.976   5.917  0.0450  0.2022  0.4890
32994ION     NA48611  17.752  17.569  10.491 -0.0959  0.2744 -0.2128
32995ION     NA48612  13.444  14.994  12.286 -0.1579 -0.0152  0.1624
32996ION     NA48613   8.304   1.691   6.400  0.1385  0.1704  0.1797
32997ION     NA48614   1.749   8.560   5.831  0.0323 -0.2441  0.5369
32998ION     NA48615  11.113   1.590   3.919  0.2382 -0.0559  0.0288
32999ION     NA48616   1.631   5.413  10.690  0.0226  0.1916  0.3557
33000ION     NA48617   3.582  13.180   0.007  0.1211 -0.0321  0.2564
33001ION     NA48618   7.231  11.071   6.249 -0.2650 -0.3065 -0.0740
33002ION     NA48619  16.181   6.534  11.814 -0.1381 -0.1910 -0.0239
33003ION     NA48620   9.612   6.651  11.210  0.0366  0.2744  0.0628
33004ION     NA48621  11.825  15.636  10.529 -0.0062 -0.1806 -0.0900
33005ION     NA48622  17.364  10.818   6.576 -0.0147 -0.1265  0.2254
33006ION     NA48623   6.576   0.348   6.268 -0.3733 -0.1754 -0.1309
33007ION     NA48624  13.015  11.256   3.971 -0.0461 -0.0043 -0.0843
33008ION     NA48625  14.921   6.456  11.246 -0.0691 -0.1368 -0.1891
33009ION     NA48626  14.349  16.187  10.612  0.0964  0.0284 -0.4905
33010ION     NA48627   8.663   9.428   5.780 -0.1387  0.2815  0.0809
33011ION     NA48628   2.258  14.884  10.650  0.0987  0.0558  0.0165
33012ION     NA48629  15.748   8.996  13.631  0.1443 -0.0405  0.2433
33013ION     NA48630   2.536   9.393   2.169  0.0528 -0.1368  0.0724
33014ION     NA48631   4.218  17.861  16.050 -0.1165  0.0628  0.2803
33015ION     NA48632   3.144   6.956  10.944  0.1024 -0.0420 -0.1426
33016ION     NA48633   6.662   0.762  10.396 -0.1057  0.1254 -0.2262
33017ION     NA48634   6.754  15.688  10.488  0.1957 -0.1151  0.2035
33018ION     NA48635  14.659   9.271  11.365  0.0476 -0.3751  0.3523
33019ION     NA48636   5.767   4.229  10.939 -0.2072 -0.1228  0.2069
33020ION     NA48637  11.555  15.983   6.698  0.2227  0.1517  0.2873
33021ION     NA48638  10.960  16.192  10.550 -0.1439 -0.1264  0.2156
33022ION     NA48639   0.755  16.486  10.531  0.0371  0.2598  0.2140
33023ION     NA48640  14.375  11.077   6.364 -0.1820 -0.0110  0.1703
33024ION     NA48641   8.876   0.179  10.714  0.0528 -0.0775 -0.1245
33025ION     NA48642   3.229  12.740  10.525 -0.1026  0.1859  0.0788
33026ION     NA48643   1.675   9.392  13.484  0.0687 -0.1852 -0.1835
33027ION     NA48644   3.695  17.664  10.451  0.1833 -0.0205 -0.0917
33028ION     NA48645   9.551   8.801  11.071  0.1188  0.1107 -0.1354
33029ION     NA48646  12.281  16.245  13.337  0.3397  0.0007  0.1007
33030ION     NA48647  17.507   1.556   0.953 -0.3817 -0.1043  0.0041
33031ION     NA48648  11.165   7.683  11.606  0.1034 -0.2964  0.1019
33032ION     NA48649   0.939  17.419  10.551  0.3576 -0.0702 -0.1460
33033ION     NA48650   2.914  13.650  12.674  0.1597 -0.0652  0.1749
33034ION     NA48651  16.046  16.233  10.470  0.1159  0.0495 -0.1362
33035ION     NA48652   5.477  10.588  10.938 -0.1730 -0.0816 -0.1678
33036ION     NA48653  11.124   7.828   5.364  0.0260  0.0189  0.0236
33037ION     NA48654   0.867   7.737   2.158  0.2773 -0.0694  0.0511
33038ION     NA48655   1.696   2.608   0.180 -0.0047  0.1712  0.2126
33039ION     NA48656   5.828   3.314  10.757 -0.2295  0.0715 -0.0814
33040ION     NA48657  17.434   2.191  11.430  0.2074  0.1791  0.0069
33041ION     NA48658   6.633   3.213  10.900 -0.2039 -0.1204  0.0170
33042ION     NA48659   0.932  16.859   0.442 -0.2059 -0.2575  0.0514
33043ION     NA48660   7.614  12.626  11.807  0.3051 -0.0745  0.0305
33044ION     NA48661  10.127  10.045   6.203 -0.0422  0.3411 -0.1418
33045ION     NA48662  11.161  14.441   2.035 -0.0711 -0.2846  0.1148
33046ION     NA48663   1.306  11.173   3.316  0.1175 -0.2923 -0.2227
33047ION     NA48664  15.111   2.418   6.339 -0.1194  0.1896 -0.0363
33048ION     NA48665  11.644   4.072   2.503  0.1450 -0.1577  0.2080
33049ION     NA48666  15.129   5.808  10.854 -0.2313 -0.0693  0.5913
33050ION     NA48667   2.913   2.434  10.726 -0.0229 -0.2109 -0.0418
33051ION     NA48668  16.453   4.897  10.648 -0.0875 -0.0890  0.0115
33052ION     NA48669   8.361  16.437  10.649 -0.2358 -0.1025  0.0135
33053ION     NA48670   0.003  17.031   6.181  0.0253  0.2498  0.1832
33054ION     NA48671   6.506   4.922  10.796  0.0181 -0.1944  0.0378
33055ION     NA48672   3.591   8.385   5.920  0.1995  0.1828  0.0358
33056ION     NA48673   0.918   4.194  10.765 -0.1537 -0.1291  0.3649
33057ION     NA48674  17.374   9.270  10.856  0.3626 -0.4509 -0.0476
33058ION     NA48675   3.003   5.370   6.160  0.1692  0.0046  0.0615
33059ION     NA48676  15.691  12.480   1.553 -0.0162 -0.0418  0.0201
33060ION     NA48677  14.018   0.880   6.251 -0.1084 -0.1771  0.1212
33061ION     NA48678  14.203   5.853  10.927  0.2001  0.0892  0.1014
33062ION     NA48679  12.041  16.107   6.621  0.2867  0.2058 -0.2473
33063ION     NA48680  12.155  14.500  10.364 -0.3834 -0.1255 -0.1200
33064ION     NA48681   5.070   4.483  10.707  0.2043  0.0291  0.1533
33065ION     NA48682   3.246  16.564   1.409 -0.4780 -0.0859  0.1895
33066ION     NA48683   2.338  10.131  12.863  0.0877 -0.0068  0.0674
33067ION     NA48684   4.924  16.827  10.514 -0.4841  0.2685 -0.0165
33068ION     NA48685   1.090  11.373  12.490  0.0828 -0.0586 -0.1053
33069ION     NA48686   6.731   2.310  10.786  0.2243 -0.1308 -0.0426
33070ION     NA48687  11.267  17.307  10.681 -0.1802 -0.0361  0.2593
33071ION     NA48688   0.429  11.385  10.750  0.0481  0.1435 -0.0259
33072ION     NA48689   9.328  13.897   6.196  0.1324 -0.1322 -0.1328
33073ION     NA48690   9.942   2.721   6.388  0.0551  0.0985 -0.1250
33074ION     NA48691  16.612   6.041   6.327 -0.0552 -0.1465 -0.1270
33075ION     NA48692  15.475   2.161  10.619  0.0904  0.2857 -0.2187
33076ION     NA48693   3.423   8.637   2.093  0.0750  0.1139 -0.1100
33077ION     NA48694   8.616   1.559   5.920  0.0248  0.2380  0.3305
33078ION     NA48695  12.489   0.383   6.493  0.0760  0.0580 -0.0717
33079ION     NA48696  16.799   4.013  10.690 -0.0262 -0.1879  0.2434
33080ION     NA48697  13.220  10.775  11.084  0.0200  0.1884 -0.0408
33081ION     NA48698  14.934   0.604  10.700  0.0748  0.1870 -0.3787
33082ION     NA48699   5.273  10.900   2.561  0.0406  0.2544  0.2402
33083ION     NA48700   0.279   9.662   6.297 -0.4261  0.1598 -0.2263
33084ION     NA48701  16.143   0.847  13.523  0.2097  0.0395 -0.2181
33085ION     NA48702   4.020   5.227  15.357 -0.0588 -0.2137 -0.0605
33086ION     NA48703  10.055  15.436  10.287  0.2115 -0.1047 -0.2407
33087ION     NA48704   9.705   3.778   4.063 -0.1083  0.0812  0.1094
33088ION     NA48705   9.676  14.657   6.261  0.2055 -0.2258  0.0551
33089ION     NA48706   4.183   0.379  10.316 -0.1279  0.0203 -0.0141
33090ION     NA48707   8.085   4.745   6.371  0.0968  0.0118  0.0293
33091ION     NA48708   4.443   6.691   0.861 -0.3850 -0.0980 -0.0518
33092ION     NA48709  10.438  17.007   5.508  0.0264  0.4087 -0.1189
33093ION     NA48710   1.155   9.554  10.828  0.0034 -0.0768 -0.1757
33094ION     NA48711   6.721  10.591  15.957  0.0221  0.0505  0.1457
33095ION     NA48712   1.741  16.956  14.887  0.0980  0.1324  0.0092
33096ION     NA48713   3.239   7.735  10.828  0.1334 -0.1792  0.0684
33097ION     NA48714  13.307  14.595  10.502 -0.0837 -0.1385  0.0929
33098ION     NA48715   0.991   3.123  10.985  0.0920  0.2798 -0.1722
33099ION     NA48716   1.655  12.465  10.786  0.2586  0.1021  0.0405
33100ION     NA48717   2.542   0.705   0.994 -0.0937  0.0770  0.2279
33101ION     NA48718   2.554  11.478   2.065  0.3202  0.0988  0.2077
33102ION     NA48719   9.343   6.140  11.030 -0.2643  0.0278 -0.2857
33103ION     NA48720   6.678  14.766  10.972 -0.1913 -0.0293 -0.0586
33104ION     NA48721  15.215   9.813  11.216  0.2271  0.1279 -0.0392
33105ION     NA48722   3.964  14.230  10.411 -0.0052 -0.1443  0.1194
33106ION     NA48723   8.605  14.863   6.128 -0.0623 -0.1000 -0.0782
33107ION     NA48724   4.244   2.515   5.954 -0.1637 -0.3482  0.0459
33108ION     NA48725  16.953   5.288   6.045  0.0349 -0.3084 -0.2266
33109ION     NA48726   1.524  13.700  10.996  0.2138 -0.2441 -0.3197
33110ION     NA48727   5.650  10.535   4.201 -0.1134  0.1351 -0.0536
33111ION     NA48728  12.961   5.147  13.783 -0.0291 -0.4203  0.3780
33112ION     NA48729  10.986   4.928  11.034 -0.3801 -0.0589  0.1537
33113ION     NA48730  14.115   0.143  10.826  0.3170  0.2612  0.2661
33114ION     NA48731  15.939  11.983  10.547 -0.0267 -0.0447 -0.1203
33115ION     NA48732  12.471   6.524  11.209 -0.1947 -0.0281  0.1160
33116ION     NA48733   5.740  11.977  10.390  0.0873  0.1525  0.0203
33117ION     NA48734   8.279  15.356  10.662 -0.1958 -0.0938  0.0910
33118ION     NA48735   3.022   6.209  11.602 -0.0785  0.2176  0.1032
33119ION     NA48736   5.228   5.750  10.608  0.3515 -0.0458 -0.0069
33120ION     NA48737   6.546  11.845  10.735 -0.0788 -0.1282 -0.1526
33121ION     NA48738  11.537  14.894   6.479  0.0176  0.0213 -0.1215
33122ION     NA48739  12.110   6.160  11.176 -0.1377  0.3536  0.0104
33123ION     NA48740   2.600   4.233   1.161 -0.2094  0.3735 -0.0506
33124ION     NA48741   3.372   6.132  10.885  0.1057 -0.1218 -0.0424
33125ION     NA48742  17.294  12.528   5.917 -0.0300  0.0608  0.1519
33126ION     NA48743  14.503  15.461   4.437 -0.0131  0.2496  0.0679
33127ION     NA48744   4.602   3.633  10.804 -0.1121 -0.0179 -0.1025
33128ION     NA48745   0.270   7.075   6.399  0.1623  0.0762 -0.0606
33129ION     NA48746  13.311  16.666  10.698  0.0384 -0.1031  0.0249
33130ION     NA48747  10.597   9.465   6.284  0.0391  0.0247 -0.0332
33131ION     NA48748   4.392  13.951  10.351 -0.0301  0.1995  0.0870
33132ION     NA48749  13.886   3.106  10.811 -0.0207 -0.0821 -0.0403
33133ION     NA48750  12.955  14.445  14.383  0.1427  0.1010 -0.0898
33134ION     NA48751  14.101  10.672  11.011  0.0063 -0.1073 -0.1687
33135ION     NA48752   4.145  13.058  16.210  0.2464 -0.0248 -0.1271
33136ION     NA48753  12.613   1.274  10.550  0.1386  0.2758 -0.0576
33137ION     NA48754  13.609  14.553   5.980 -0.1388 -0.1056 -0.0405
33138ION     NA48755   3.987   5.292  10.671 -0.1582 -0.2092 -0.3195
33139ION     NA48756  17.431  16.924   3.185  0.0995  0.1828 -0.0324
33140ION     NA48757   1.179  11.111   2.806  0.2011  0.1487 -0.0675
33141ION     NA48758   9.436   0.956  10.750 -0.0540 -0.2105  0.2181
33142ION     NA48759   1.304  11.507  10.676  0.0914 -0.0622  0.0176
33143ION     NA48760  13.354   1.839  10.690 -0.1508  0.0606  0.0718
33144ION     NA48761   4.272   0.817   5.707  0.0566  0.2853 -0.0641
33145ION     NA48762  12.656  15.893  10.586  0.0431  0.3669  0.4309
33146ION     NA48763  10.673  10.753   3.780 -0.1793 -0.2082  0.1718
33147ION     NA48764  16.249   0.590  10.557  0.0561  0.1372 -0.0606
33148ION     NA48765  15.904  11.433   6.398 -0.0213  0.0594  0.0837
33149ION     NA48766  11.846  12.652  10.550  0.2187  0.1593  0.0688
33150ION     NA48767  13.810  12.139   2.446 -0.0285 -0.1085  0.2045
33151ION     NA48768   6.691  10.186   6.278 -0.4020 -0.2077 -0.3900
33152ION     NA48769  13.293  17.697   6.119  0.0539 -0.1956  0.3512
33153ION     NA48770   6.794  12.865  10.572  0.0396  0.0566 -0.3141
33154ION     NA48771   4.940  11.176   5.896  0.5755 -0.4754 -0.1513
33155ION     NA48772   6.031  11.286  10.958 -0.0731 -0.0890 -0.2601
33156ION     NA48773  10.844   6.790   6.099 -0.0062  0.2974  0.0436
33157ION     NA48774   9.274  16.285  10.528 -0.0533 -0.1066 -0.0197
33158ION     NA48775  15.033   0.109  10.629  0.3688 -0.0116 -0.0950
33159ION     NA48776   4.510   8.803   6.246 -0.0889 -0.1216 -0.0334
33160ION     NA48777   7.545   3.927   6.267  0.0537 -0.0224 -0.3091
33161ION     NA48778   8.128   7.337   6.481  0.1339 -0.0925  0.1929
33162ION     NA48779  17.085  17.191  10.381 -0.1796 -0.1807 -0.2376
33163ION     NA48780   7.989  14.684  15.677  0.2153 -0.3217  0.0879
33164ION     NA48781   0.866  12.544   4.930 -0.1751 -0.0586 -0.3469
33165ION     NA48782   4.787  15.985   5.872  0.0973 -0.0303 -0.1072
33166ION     NA48783   3.197  13.979  15.813  0.1129 -0.3907  0.0533
33167ION     NA48784   3.956  14.772   1.290  0.2897 -0.3533 -0.1394
33168ION     NA48785  17.618   5.459  10.923  0.0528  0.1059 -0.0161
33169ION     NA48786  11.502   6.819  11.075  0.2506  0.1684  0.1280
33170ION     NA48787  12.425   8.337  11.056 -0.1562 -0.0467  0.1129
33171ION     NA48788  14.676  17.293  10.701 -0.1536 -0.2397  0.1193
33172ION     NA48789   7.323   7.209   6.699  0.1336  0.1945  0.3297
33173ION     NA48790  15.874   1.381  10.662 -0.1190 -0.1763  0.2020
33174ION     NA48791   0.086  12.491  10.757 -0.4095 -0.0777 -0.0554
33175ION     NA48792   0.414   7.375   5.456  0.0694  0.0518  0.2118
33176ION     NA48793   2.781  12.125  10.505  0.2057  0.3683 -0.1567
33177ION     NA48794  10.190  17.772   6.112 -0.0796 -0.0230  0.4001
33178ION     NA48795   5.829  16.341  14.647 -0.1877  0.2000 -0.2327
33179ION     NA48796   3.745   4.108   2.184  0.0755  0.2737  0.2557
33180ION     NA48797  17.484   0.222   6.095  0.0175  0.2368 -0.0873
33181ION     NA48798  12.925   1.614   1.562  0.0376  0.0893  0.3041
33182ION     NA48799   9.577  11.227  16.035 -0.1735 -0.4310 -0.0912
33183ION     NA48800   3.911   9.636  10.627 -0.1155 -0.0029 -0.0262
33184ION     NA48801  11.810   9.633   4.848 -0.0532 -0.0903  0.0224
33185ION     NA48802   9.577  16.978  12.106  0.2592 -0.0946 -0.1318
33186ION     NA48803  10.011   2.616  10.707  0.0670 -0.2722 -0.1103
33187ION     NA48804   9.640   3.555  11.179 -0.1060  0.0790 -0.0039
33188ION     NA48805  10.410  13.774  10.757 -0.0199 -0.2360 -0.0662
33189ION     NA48806   0.627  10.416  10.765  0.1283  0.0351  0.1249
33190ION     NA48807   3.694  12.334  10.910  0.2021 -0.1489 -0.0519
33191ION     NA48808  14.018  17.193  10.524 -0.2072  0.0361 -0.2131
33192ION     NA48809  14.771   8.207  10.803 -0.0217  0.0364 -0.2784
33193ION     NA48810  11.073  13.148  10.768 -0.2271 -0.3836 -0.0034
33194ION     NA48811   5.978   8.957  11.387  0.0149 -0.0299 -0.3394
33195ION     NA48812  17.254   5.364   3.659  0.0653  0.1725  0.0208
33196ION     NA48813  16.857   2.793   5.795  0.0490 -0.2240  0.2537
33197ION     NA48814   0.036  17.613   4.740  0.0891 -0.1359 -0.0711
33198ION     NA48815  16.098  17.097  10.447 -0.2457  0.0437 -0.0772
33199ION     NA48816   3.579   8.892  13.130 -0.0197  0.1091 -0.0953
33200ION     NA48817  15.476  10.724  10.907 -0.3592 -0.1875  0.1785
33201ION     NA48818  14.827  15.472  10.613 -0.2684 -0.0958  0.0604
33202ION     NA48819   1.323  14.054   5.966 -0.0740  0.0363 -0.3853
33203ION     NA48820  13.830   9.517  11.176 -0.0688  0.3594  0.2346
33204ION     NA48821   5.043   2.753  10.711  0.1327  0.1637  0.0933
33205ION     NA48822   0.329   8.486  12.589 -0.1089 -0.0130  0.1713
33206ION     NA48823   6.633  11.675   1.421  0.0888  0.0592 -0.0359
33207ION     NA48824   4.319   4.141   6.146  0.1825  0.0997  0.0850
33208ION     NA48825   7.869  15.234  10.975  0.0615 -0.0580 -0.1453
33209ION     NA48826   8.616  11.173  11.009  0.0116  0.1499 -0.1886
33210ION     NA48827   2.508   6.338   6.119 -0.0580 -0.0118  0.1013
33211ION     NA48828  14.453   1.311   3.219 -0.0493  0.2455  0.3052
33212ION     NA48829   2.635   7.338  15.483  0.0498 -0.0563 -0.3811
33213ION     NA48830  12.103   4.834  15.736  0.0392  0.0919  0.2213
33214ION     NA48831   1.892  12.649   6.116 -0.0250 -0.3752  0.2569
33215ION     NA48832   7.210   1.538  11.668 -0.1612 -0.1010 -0.1943
33216ION     NA48833   4.290   2.261  10.509  0.1523  0.2127  0.3781
33217ION     NA48834   3.483   4.568  10.608  0.2581  0.3060  0.0005
33218ION     NA48835   7.738   4.039  11.438 -0.0716 -0.1608  0.0988
33219ION     NA48836  14.279  12.956   4.310 -0.0080  0.2798  0.0827
33220ION     NA48837  14.051   4.000  10.969 -0.0314 -0.1647 -0.1404
33221ION     NA48838  12.432  12.574  14.275 -0.1505 -0.0034 -0.0340
33222ION     NA48839  14.561   7.370  11.085  0.0538 -0.0547  0.1386
33223ION     NA48840   3.706  16.586   6.210  0.2510  0.2494 -0.0677
33224ION     NA48841  15.093   2.675   4.517 -0.2762  0.0845  0.1271
  17.87115  17.87115  16.82944
